<event>
12    1  0.8251070E-002  0.1982840E+03  0.7818608E-02  0.1151852E+00
         21   -1    0    0  501  502  0.00000000000E+00  0.00000000000E+00  0.89580659582E+02  0.89580659582E+02  0.00000000000E+00 0. -1.
         21   -1    0    0  502  503 -0.00000000000E+00 -0.00000000000E+00 -0.44895744471E+03  0.44895744471E+03  0.00000000000E+00 0. -1.
         -6    2    1    2    0  503 -0.26173311014E+02  0.89262151218E+02 -0.23312003024E+03  0.30604165623E+03  0.17511074497E+03 0.  0.
        -24    2    3    3    0    0  0.15676956829E+01  0.12763510419E+03 -0.18753596585E+03  0.24014746910E+03  0.78790170294E+02 0.  0.
          6    2    1    2  501    0  0.26173311014E+02 -0.89262151218E+02 -0.12625675489E+03  0.23249644806E+03  0.17164223360E+03 0.  0.
         24    2    5    5    0    0  0.65651682968E+02 -0.23544379347E+02 -0.28315802273E+02  0.10803003656E+03  0.77486920608E+02 0.  0.
          5    1    5    5  501    0 -0.39478371954E+02 -0.65717771871E+02 -0.97940952620E+02  0.12446641150E+03  0.47000000000E+01 0. -1.
        -11    1    6    6    0    0  0.33442303997E+02 -0.32785612918E+02 -0.49692340524E+02  0.68283327524E+02  0.00000000000E+00 0.  1.
         12    1    6    6    0    0  0.32209378971E+02  0.92412335704E+01  0.21376538250E+02  0.39746709036E+02  0.00000000000E+00 0. -1.
         -5    1    3    3    0  503 -0.27741006697E+02 -0.38372952972E+02 -0.45584064388E+02  0.65894187137E+02  0.47000000000E+01 0.  1.
         11    1    4    4    0    0 -0.14564367635E+02  0.44684314695E+02 -0.17281211923E+02  0.50074435293E+02  0.00000000000E+00 0. -1.
        -12    1    4    4    0    0  0.16132063318E+02  0.82950789495E+02 -0.17025475393E+03  0.19007303380E+03  0.00000000000E+00 0.  1.
</event>
<event>
12    1  0.8251070E-002  0.2082316E+03  0.7818608E-02  0.1143106E+00
         21   -1    0    0  501  502  0.00000000000E+00  0.00000000000E+00  0.27183101957E+02  0.27183101957E+02  0.00000000000E+00 0.  1.
         21   -1    0    0  502  503 -0.00000000000E+00 -0.00000000000E+00 -0.22011940642E+04  0.22011940642E+04  0.00000000000E+00 0.  1.
         -6    2    1    2    0  503 -0.95633719277E+02 -0.66166004673E+02 -0.16753222231E+04  0.16882135425E+04  0.17273293102E+03 0.  0.
        -24    2    3    3    0    0 -0.11049488671E+03 -0.39461374883E+02 -0.81826295479E+03  0.83059668695E+03  0.81057221056E+02 0.  0.
          6    2    1    2  501    0  0.95633719277E+02  0.66166004673E+02 -0.49868873914E+03  0.54016362365E+03  0.17193758556E+03 0.  0.
         24    2    5    5    0    0  0.12924460142E+03  0.37083113787E+02 -0.43329830308E+03  0.46095816254E+03  0.81582374542E+02 0.  0.
          5    1    5    5  501    0 -0.33610882146E+02  0.29082890885E+02 -0.65390436066E+02  0.79205461111E+02  0.47000000000E+01 0. -1.
        -11    1    6    6    0    0  0.10932292347E+03  0.58536770182E+02 -0.30266416980E+03  0.32708355927E+03  0.00000000000E+00 0.  1.
         12    1    6    6    0    0  0.19921677954E+02 -0.21453656395E+02 -0.13063413327E+03  0.13387460327E+03  0.00000000000E+00 0. -1.
         -5    1    3    3    0  503  0.14861167437E+02 -0.26704629790E+02 -0.85705926832E+03  0.85761685557E+03  0.47000000000E+01 0.  1.
         13    1    4    4    0    0  0.41589886435E+01 -0.23853990051E+02 -0.90083929933E+02  0.93281426126E+02  0.00000000000E+00 0. -1.
        -14    1    4    4    0    0 -0.11465387536E+03 -0.15607384832E+02 -0.72817902486E+03  0.73731526082E+03  0.00000000000E+00 0.  1.
</event>
<event>
12    1  0.8251070E-002  0.2087409E+03  0.7818608E-02  0.1142647E+00
         21   -1    0    0  501  502  0.00000000000E+00  0.00000000000E+00  0.58772276674E+03  0.58772276674E+03  0.00000000000E+00 0.  1.
         21   -1    0    0  502  503 -0.00000000000E+00 -0.00000000000E+00 -0.10191996944E+03  0.10191996944E+03  0.00000000000E+00 0.  1.
         -6    2    1    2    0  503  0.62353462840E+02 -0.98880471879E+02  0.62242658552E+02  0.21743944650E+03  0.17245423249E+03 0.  0.
        -24    2    3    3    0    0 -0.50729250821E+01 -0.99566854258E+01 -0.14931771466E+02  0.81675901195E+02  0.79518078972E+02 0.  0.
          6    2    1    2  501    0 -0.62353462840E+02  0.98880471879E+02  0.42356013875E+03  0.47220328968E+03  0.17293771595E+03 0.  0.
         24    2    5    5    0    0 -0.89857943171E+01  0.67245277008E+02  0.38515887780E+03  0.39908940289E+03  0.79513008850E+02 0.  0.
          5    1    5    5  501    0 -0.53367668523E+02  0.31635194870E+02  0.38401260956E+02  0.73113886787E+02  0.47000000000E+01 0. -1.
        -11    1    6    6    0    0 -0.27917934061E+02  0.69768072520E+02  0.21286053697E+03  0.22573569320E+03  0.00000000000E+00 0.  1.
         12    1    6    6    0    0  0.18932139744E+02 -0.25227955122E+01  0.17229834083E+03  0.17335370970E+03  0.00000000000E+00 0. -1.
         -5    1    3    3    0  503  0.67426387922E+02 -0.88923786453E+02  0.77174430019E+02  0.13576354531E+03  0.47000000000E+01 0.  1.
         13    1    4    4    0    0 -0.59671805127E+01  0.27038264224E+02  0.17259709261E+02  0.32627787839E+02  0.00000000000E+00 0. -1.
        -14    1    4    4    0    0  0.89425543066E+00 -0.36994949650E+02 -0.32191480727E+02  0.49048113356E+02  0.00000000000E+00 0.  1.
</event>
<event>
12    1  0.8251070E-002  0.1956727E+03  0.7818608E-02  0.1154103E+00
         21   -1    0    0  503  502  0.00000000000E+00  0.00000000000E+00  0.96162717482E+03  0.96162717482E+03  0.00000000000E+00 0.  1.
         21   -1    0    0  501  503 -0.00000000000E+00 -0.00000000000E+00 -0.10512336313E+03  0.10512336313E+03  0.00000000000E+00 0.  1.
          6    2    1    2  501    0 -0.76985446218E+02 -0.38510960907E+02  0.46461139087E+01  0.19270857346E+03  0.17235183455E+03 0.  0.
         24    2    3    3    0    0 -0.10485727359E+03  0.63260138906E+01 -0.26960596859E+02  0.13099741373E+03  0.73473684714E+02 0.  0.
         -6    2    1    2    0  502  0.76985446218E+02  0.38510960907E+02  0.85185769778E+03  0.87404196448E+03  0.17572127179E+03 0.  0.
        -24    2    5    5    0    0 -0.32937643668E+01  0.10720658010E+02  0.18783200480E+03  0.20458751231E+03  0.80308198674E+02 0.  0.
          5    1    3    3  501    0  0.27871827369E+02 -0.44836974797E+02  0.31606710768E+02  0.61711159731E+02  0.47000000000E+01 0. -1.
        -11    1    4    4    0    0 -0.38257878759E+02 -0.30888949459E+02 -0.23830612260E+02  0.54641472953E+02  0.00000000000E+00 0.  1.
         12    1    4    4    0    0 -0.66599394828E+02  0.37214963349E+02 -0.31299845993E+01  0.76355940778E+02  0.00000000000E+00 0. -1.
         -5    1    5    5    0  502  0.80279210585E+02  0.27790302897E+02  0.66402569299E+03  0.66945445217E+03  0.47000000000E+01 0.  1.
         13    1    6    6    0    0  0.90248949247E+01 -0.29799886505E+01  0.18580957271E+03  0.18605248285E+03  0.00000000000E+00 0. -1.
        -14    1    6    6    0    0 -0.12318659291E+02  0.13700646660E+02  0.20224320835E+01  0.18535029463E+02  0.00000000000E+00 0.  1.
</event>
<event>
12    1  0.8251070E-002  0.1759103E+03  0.7818608E-02  0.1172302E+00
         21   -1    0    0  503  502  0.00000000000E+00  0.00000000000E+00  0.28320145754E+03  0.28320145754E+03  0.00000000000E+00 0. -1.
         21   -1    0    0  501  503 -0.00000000000E+00 -0.00000000000E+00 -0.11818727687E+03  0.11818727687E+03  0.00000000000E+00 0. -1.
          6    2    1    2  501    0 -0.20316703233E+02 -0.26751928117E+02  0.24226872707E+02  0.17757076956E+03  0.17267310952E+03 0.  0.
         24    2    3    3    0    0  0.32526465509E+02 -0.57554865465E+02 -0.17189605258E+02  0.10355296036E+03  0.77828012774E+02 0.  0.
         -6    2    1    2    0  502  0.20316703233E+02  0.26751928117E+02  0.14078730796E+03  0.22381796484E+03  0.17071901246E+03 0.  0.
        -24    2    5    5    0    0  0.68034082997E+02  0.22133139110E+02  0.45596906521E+02  0.11713345768E+03  0.80762966307E+02 0.  0.
          5    1    3    3  501    0 -0.52843168743E+02  0.30802937348E+02  0.41416477965E+02  0.74017809202E+02  0.47000000000E+01 0. -1.
        -11    1    4    4    0    0  0.48026168412E+02 -0.65954434220E+02 -0.42749222784E+01  0.81699297464E+02  0.00000000000E+00 0.  1.
         12    1    4    4    0    0 -0.15499702903E+02  0.83995687545E+01 -0.12914682980E+02  0.21853662892E+02  0.00000000000E+00 0. -1.
         -5    1    5    5    0  502 -0.47717379764E+02  0.46187890067E+01  0.95190401439E+02  0.10668450717E+03  0.47000000000E+01 0.  1.
         13    1    6    6    0    0 -0.11554708591E+02 -0.15787902383E+02  0.57997681510E+01  0.20406039863E+02  0.00000000000E+00 0. -1.
        -14    1    6    6    0    0  0.79588791588E+02  0.37921041493E+02  0.39797138370E+02  0.96727417813E+02  0.00000000000E+00 0.  1.
</event>
<event>
12    1  0.8251070E-002  0.2012437E+03  0.7818608E-02  0.1148753E+00
         21   -1    0    0  503  502  0.00000000000E+00  0.00000000000E+00  0.48903401253E+03  0.48903401253E+03  0.00000000000E+00 0. -1.
         21   -1    0    0  501  503 -0.00000000000E+00 -0.00000000000E+00 -0.85481846587E+02  0.85481846587E+02  0.00000000000E+00 0.  1.
          6    2    1    2  501    0  0.54200137296E+02 -0.89210189201E+02  0.14979912665E+03  0.25064916937E+03  0.17172395006E+03 0.  0.
         24    2    3    3    0    0 -0.25581316447E+02 -0.65451630444E+01  0.46062789410E+02  0.95788249273E+02  0.79726816192E+02 0.  0.
         -6    2    1    2    0  502 -0.54200137296E+02  0.89210189201E+02  0.25375303930E+03  0.32386668975E+03  0.17205497678E+03 0.  0.
        -24    2    5    5    0    0 -0.93327795813E+02  0.94343453604E+02  0.22443530190E+03  0.27448102593E+03  0.85777993373E+02 0.  0.
          5    1    3    3  501    0  0.79781453744E+02 -0.82665026156E+02  0.10373633724E+03  0.15486092010E+03  0.47000000000E+01 0. -1.
        -13    1    4    4    0    0 -0.28359018172E+02 -0.22040238601E+02 -0.10222438799E+02  0.37343062064E+02  0.00000000000E+00 0.  1.
         14    1    4    4    0    0  0.27777017249E+01  0.15495075557E+02  0.56285228209E+02  0.58445187209E+02  0.00000000000E+00 0. -1.
         -5    1    5    5    0  502  0.39127658516E+02 -0.51332644038E+01  0.29317737395E+02  0.49385663814E+02  0.47000000000E+01 0.  1.
         11    1    6    6    0    0 -0.32290133331E+02  0.16163154236E+02  0.13887027853E+03  0.14348816859E+03  0.00000000000E+00 0. -1.
        -12    1    6    6    0    0 -0.61037662481E+02  0.78180299368E+02  0.85565023373E+02  0.13099285734E+03  0.00000000000E+00 0.  1.
</event>
<event>
12    1  0.8251070E-002  0.2648688E+03  0.7818608E-02  0.1104592E+00
         21   -1    0    0  501  502  0.00000000000E+00  0.00000000000E+00  0.92045319125E+02  0.92045319125E+02  0.00000000000E+00 0.  1.
         21   -1    0    0  502  503 -0.00000000000E+00 -0.00000000000E+00 -0.98621152567E+03  0.98621152567E+03  0.00000000000E+00 0.  1.
         -6    2    1    2    0  503 -0.16834537073E+03 -0.10464150585E+03 -0.70630230747E+03  0.75352879718E+03  0.17219956462E+03 0.  0.
        -24    2    3    3    0    0 -0.25047992001E+02 -0.71191056326E+02 -0.36482598285E+03  0.38166693896E+03  0.82922169110E+02 0.  0.
          6    2    1    2  501    0  0.16834537073E+03  0.10464150585E+03 -0.18786389908E+03  0.32472804762E+03  0.17568566173E+03 0.  0.
         24    2    5    5    0    0  0.14879896484E+03  0.54612764299E+02 -0.66811915657E+02  0.19221159711E+03  0.85777503041E+02 0.  0.
          5    1    5    5  501    0  0.19546405898E+02  0.50028741551E+02 -0.12105198342E+03  0.13251645051E+03  0.47000000000E+01 0. -1.
        -13    1    6    6    0    0  0.15703446277E+03  0.61801792451E+02 -0.58996028360E+02  0.17877308357E+03  0.00000000000E+00 0.  1.
         14    1    6    6    0    0 -0.82354979289E+01 -0.71890281516E+01 -0.78158872970E+01  0.13438513539E+02  0.00000000000E+00 0. -1.
         -5    1    3    3    0  503 -0.14329737873E+03 -0.33450449524E+02 -0.34147632461E+03  0.37186185822E+03  0.47000000000E+01 0.  1.
         11    1    4    4    0    0 -0.28577047032E+02  0.68857594300E+01 -0.15488837482E+03  0.15765300490E+03  0.00000000000E+00 0. -1.
        -12    1    4    4    0    0  0.35290550314E+01 -0.78076815756E+02 -0.20993760803E+03  0.22401393406E+03  0.00000000000E+00 0.  1.
</event>
<event>
12    1  0.8251070E-002  0.2110827E+03  0.7818608E-02  0.1140736E+00
         21   -1    0    0  501  502  0.00000000000E+00  0.00000000000E+00  0.38330877585E+02  0.38330877585E+02  0.00000000000E+00 0.  1.
         21   -1    0    0  502  503 -0.00000000000E+00 -0.00000000000E+00 -0.12289398498E+04  0.12289398498E+04  0.00000000000E+00 0.  1.
         -6    2    1    2    0  503 -0.33736623436E+02  0.11786040842E+03 -0.44726845987E+03  0.49457557049E+03  0.17183330323E+03 0.  0.
        -24    2    3    3    0    0  0.47942700193E+02  0.62566650770E+02 -0.21886080998E+03  0.24573615224E+03  0.79202992907E+02 0.  0.
          6    2    1    2  501    0  0.33736623436E+02 -0.11786040842E+03 -0.74334051239E+03  0.77269515694E+03  0.17167834040E+03 0.  0.
         24    2    5    5    0    0  0.34220098580E+01 -0.14561468921E+03 -0.64554094759E+03  0.66650607665E+03  0.79321417833E+02 0.  0.
          5    1    5    5  501    0  0.30314613578E+02  0.27754280783E+02 -0.97799564800E+02  0.10618908029E+03  0.47000000000E+01 0. -1.
        -11    1    6    6    0    0  0.23170413934E+02 -0.81838208045E+02 -0.22201107885E+03  0.23774625026E+03  0.00000000000E+00 0.  1.
         12    1    6    6    0    0 -0.19748404076E+02 -0.63776481160E+02 -0.42352986874E+03  0.42875982639E+03  0.00000000000E+00 0. -1.
         -5    1    3    3    0  503 -0.81679323630E+02  0.55293757653E+02 -0.22840764989E+03  0.24883941824E+03  0.47000000000E+01 0.  1.
         13    1    4    4    0    0  0.56995074615E+02  0.95814289583E+01 -0.10615138578E+03  0.12086504464E+03  0.00000000000E+00 0. -1.
        -14    1    4    4    0    0 -0.90523744214E+01  0.52985221812E+02 -0.11270942419E+03  0.12487110761E+03  0.00000000000E+00 0.  1.
</event>
<event>
12    1  0.8251070E-002  0.1913921E+03  0.7818608E-02  0.1157367E+00
         21   -1    0    0  503  502  0.00000000000E+00  0.00000000000E+00  0.30467869692E+03  0.30467869692E+03  0.00000000000E+00 0.  1.
         21   -1    0    0  501  503 -0.00000000000E+00 -0.00000000000E+00 -0.11981048340E+03  0.11981048340E+03  0.00000000000E+00 0.  1.
          6    2    1    2  501    0 -0.41178418196E+02 -0.68597753314E+02  0.90019733469E+02  0.21150530640E+03  0.17386669703E+03 0.  0.
         24    2    3    3    0    0 -0.15051316420E+01 -0.22606725060E+02  0.11817484699E+03  0.14439387099E+03  0.79818331713E+02 0.  0.
         -6    2    1    2    0  502  0.41178418196E+02  0.68597753314E+02  0.94848480046E+02  0.21298387392E+03  0.17310280905E+03 0.  0.
        -24    2    5    5    0    0  0.83811342524E+02  0.12793873855E+02  0.36579195705E+02  0.12161079968E+03  0.79139905840E+02 0.  0.
          5    1    3    3  501    0 -0.39673286554E+02 -0.45991028253E+02 -0.28155113523E+02  0.67111435414E+02  0.47000000000E+01 0. -1.
        -13    1    4    4    0    0  0.24716012617E+02  0.11094496925E+02  0.88083931002E+02  0.92156106919E+02  0.00000000000E+00 0.  1.
         14    1    4    4    0    0 -0.26221144259E+02 -0.33701221986E+02  0.30090915990E+02  0.52237764067E+02  0.00000000000E+00 0. -1.
         -5    1    5    5    0  502 -0.42632924328E+02  0.55803879459E+02  0.58269284341E+02  0.91373074245E+02  0.47000000000E+01 0.  1.
         11    1    6    6    0    0  0.37664932086E+02 -0.11112938815E+02  0.54024882613E+02  0.66789463686E+02  0.00000000000E+00 0. -1.
        -12    1    6    6    0    0  0.46146410438E+02  0.23906812669E+02 -0.17445686908E+02  0.54821335993E+02  0.00000000000E+00 0.  1.
</event>
<event>
12    1  0.8251070E-002  0.2550821E+03  0.7818608E-02  0.1110683E+00
         21   -1    0    0  501  502  0.00000000000E+00  0.00000000000E+00  0.29145421196E+03  0.29145421196E+03  0.00000000000E+00 0. -1.
         21   -1    0    0  502  503 -0.00000000000E+00 -0.00000000000E+00 -0.23420404006E+03  0.23420404006E+03  0.00000000000E+00 0.  1.
         -6    2    1    2    0  503 -0.93482711567E+02  0.15688293539E+03 -0.35904964554E+02  0.25409838378E+03  0.17299002682E+03 0.  0.
        -24    2    3    3    0    0 -0.24023538509E+02  0.18358563375E+02  0.23632352699E+02  0.88025024952E+02  0.79219629336E+02 0.  0.
          6    2    1    2  501    0  0.93482711567E+02 -0.15688293539E+03  0.93155136445E+02  0.27155986825E+03  0.17808876948E+03 0.  0.
         24    2    5    5    0    0 -0.12925882344E+02 -0.81818406719E+02  0.82043269415E+02  0.14078129235E+03  0.78910988513E+02 0.  0.
          5    1    5    5  501    0  0.10640859391E+03 -0.75064528675E+02  0.11111867030E+02  0.13077857589E+03  0.47000000000E+01 0. -1.
        -11    1    6    6    0    0  0.19247724075E+02 -0.66726969209E+02  0.78892546738E+02  0.10510469653E+03  0.00000000000E+00 0.  1.
         12    1    6    6    0    0 -0.32173606420E+02 -0.15091437509E+02  0.31507226770E+01  0.35676595823E+02  0.00000000000E+00 0. -1.
         -5    1    3    3    0  503 -0.69459173059E+02  0.13852437202E+03 -0.59537317253E+02  0.16607335882E+03  0.47000000000E+01 0.  1.
         11    1    4    4    0    0 -0.19595255183E+02  0.14759499384E+02 -0.27340881840E+02  0.36733372667E+02  0.00000000000E+00 0. -1.
        -12    1    4    4    0    0 -0.44282833258E+01  0.35990639914E+01  0.50973234539E+02  0.51291652285E+02  0.00000000000E+00 0.  1.
</event>
<event>
12    1  0.8251070E-002  0.6245713E+03  0.7818608E-02  0.9855769E-01
         21   -1    0    0  501  502  0.00000000000E+00  0.00000000000E+00  0.57439542218E+03  0.57439542218E+03  0.00000000000E+00 0.  1.
         21   -1    0    0  502  503 -0.00000000000E+00 -0.00000000000E+00 -0.73436227496E+03  0.73436227496E+03  0.00000000000E+00 0. -1.
         -6    2    1    2    0  503  0.14512484178E+03 -0.58237601397E+03  0.99732695860E+02  0.63234568237E+03  0.17231195561E+03 0.  0.
        -24    2    3    3    0    0  0.17187255294E+02 -0.21009484307E+03 -0.51963064675E+00  0.22610201755E+03  0.81771679050E+02 0.  0.
          6    2    1    2  501    0 -0.14512484178E+03  0.58237601397E+03 -0.25969954865E+03  0.67641201477E+03  0.17281873974E+03 0.  0.
         24    2    5    5    0    0 -0.17156719767E+03  0.51182224027E+03 -0.20389501401E+03  0.58253300085E+03  0.79838658478E+02 0.  0.
          5    1    5    5  501    0  0.26442355892E+02  0.70553773694E+02 -0.55804534634E+02  0.93879013913E+02  0.47000000000E+01 0. -1.
        -13    1    6    6    0    0 -0.28506323059E+02  0.23839803772E+02 -0.14346947875E+02  0.39834427466E+02  0.00000000000E+00 0.  1.
         14    1    6    6    0    0 -0.14306087461E+03  0.48798243650E+03 -0.18954806614E+03  0.54269857339E+03  0.00000000000E+00 0. -1.
         -5    1    3    3    0  503  0.12793758648E+03 -0.37228117089E+03  0.10025232651E+03  0.40624366482E+03  0.47000000000E+01 0.  1.
         11    1    4    4    0    0  0.37820438656E+02 -0.14633610591E+03 -0.27921750551E+02  0.15370187256E+03  0.00000000000E+00 0. -1.
        -12    1    4    4    0    0 -0.20633183362E+02 -0.63758737161E+02  0.27402119905E+02  0.72400144995E+02  0.00000000000E+00 0.  1.
</event>
<event>
12    1  0.8251070E-002  0.1935715E+03  0.7818608E-02  0.1155818E+00
         21   -1    0    0  503  502  0.00000000000E+00  0.00000000000E+00  0.31180745240E+03  0.31180745240E+03  0.00000000000E+00 0. -1.
         21   -1    0    0  501  503 -0.00000000000E+00 -0.00000000000E+00 -0.15838154444E+03  0.15838154444E+03  0.00000000000E+00 0. -1.
          6    2    1    2  501    0  0.77632737720E+02  0.44120451126E+02 -0.41376331852E+02  0.19556590257E+03  0.16899871372E+03 0.  0.
         24    2    3    3    0    0  0.16605573979E+02 -0.13144530261E+02  0.26344790680E+02  0.87807685973E+02  0.81040841290E+02 0.  0.
         -6    2    1    2    0  502 -0.77632737720E+02 -0.44120451126E+02  0.19480223982E+03  0.27462309427E+03  0.17174537867E+03 0.  0.
        -24    2    5    5    0    0  0.23861426613E+02 -0.32625430127E+01  0.84044656370E+02  0.11886762457E+03  0.80535681781E+02 0.  0.
          5    1    3    3  501    0  0.61027163741E+02  0.57264981386E+02 -0.67721122533E+02  0.10775821660E+03  0.47000000000E+01 0. -1.
        -13    1    4    4    0    0 -0.19922283019E+02  0.10099219500E+02  0.37000524822E+02  0.43219560760E+02  0.00000000000E+00 0.  1.
         14    1    4    4    0    0  0.36527856999E+02 -0.23243749761E+02 -0.10655734141E+02  0.44588125213E+02  0.00000000000E+00 0. -1.
         -5    1    5    5    0  502 -0.10149416433E+03 -0.40857908113E+02  0.11075758345E+03  0.15575546970E+03  0.47000000000E+01 0.  1.
         11    1    6    6    0    0  0.34297055285E+01 -0.46346710705E+01  0.95317758367E+02  0.95491979328E+02  0.00000000000E+00 0. -1.
        -12    1    6    6    0    0  0.20431721085E+02  0.13721280579E+01 -0.11273101997E+02  0.23375645243E+02  0.00000000000E+00 0.  1.
</event>
<event>
12    1  0.8251070E-002  0.2685673E+03  0.7818608E-02  0.1102222E+00
         21   -1    0    0  503  502  0.00000000000E+00  0.00000000000E+00  0.16853507187E+03  0.16853507187E+03  0.00000000000E+00 0. -1.
         21   -1    0    0  501  503 -0.00000000000E+00 -0.00000000000E+00 -0.42771488868E+03  0.42771488868E+03  0.00000000000E+00 0.  1.
          6    2    1    2  501    0  0.19316445806E+03 -0.71280045996E+02 -0.14424995906E+03  0.30412451241E+03  0.17114413674E+03 0.  0.
         24    2    3    3    0    0  0.13088608626E+03  0.15131580695E+02 -0.47954124201E+02  0.16045634393E+03  0.78016075071E+02 0.  0.
         -6    2    1    2    0  502 -0.19316445806E+03  0.71280045996E+02 -0.11492985775E+03  0.29212544814E+03  0.17243854683E+03 0.  0.
        -24    2    5    5    0    0 -0.55775339220E+02  0.20384071486E+02  0.66247995788E+01  0.10169489671E+03  0.82289520673E+02 0.  0.
          5    1    3    3  501    0  0.62278371805E+02 -0.86411626691E+02 -0.96295834858E+02  0.14366816848E+03  0.47000000000E+01 0. -1.
        -11    1    4    4    0    0  0.46707299259E+02  0.13305472306E+02 -0.58014297249E+02  0.75658879734E+02  0.00000000000E+00 0.  1.
         12    1    4    4    0    0  0.84178786999E+02  0.18261083889E+01  0.10060173047E+02  0.84797464196E+02  0.00000000000E+00 0. -1.
         -5    1    5    5    0  502 -0.13738911884E+03  0.50895974510E+02 -0.12155465733E+03  0.19043055143E+03  0.47000000000E+01 0.  1.
         13    1    6    6    0    0  0.20009778088E+02  0.77084499058E+01  0.12172074339E+02  0.24657064156E+02  0.00000000000E+00 0. -1.
        -14    1    6    6    0    0 -0.75785117308E+02  0.12675621580E+02 -0.55472747601E+01  0.77037832557E+02  0.00000000000E+00 0.  1.
</event>
<event>
12    1  0.8251070E-002  0.1846538E+03  0.7818608E-02  0.1163577E+00
         21   -1    0    0  503  502  0.00000000000E+00  0.00000000000E+00  0.44100550846E+02  0.44100550846E+02  0.00000000000E+00 0. -1.
         21   -1    0    0  501  503 -0.00000000000E+00 -0.00000000000E+00 -0.85842275420E+03  0.85842275420E+03  0.00000000000E+00 0. -1.
          6    2    1    2  501    0  0.37576302524E+02 -0.55741624146E+02 -0.55150398890E+03  0.58132174835E+03  0.17105326117E+03 0.  0.
         24    2    3    3    0    0 -0.38729476056E+02 -0.36064461091E+01 -0.24339298970E+03  0.25961516392E+03  0.81528566375E+02 0.  0.
         -6    2    1    2    0  502 -0.37576302524E+02  0.55741624146E+02 -0.26281821445E+03  0.32120155669E+03  0.17198232177E+03 0.  0.
        -24    2    5    5    0    0 -0.49069061064E+02  0.22941567371E+02 -0.59069180691E+02  0.11445609488E+03  0.81712552770E+02 0.  0.
          5    1    3    3  501    0  0.76305778580E+02 -0.52135178037E+02 -0.30811099920E+03  0.32170658443E+03  0.47000000000E+01 0. -1.
        -11    1    4    4    0    0 -0.90646634278E+01 -0.37034690244E+02 -0.61900457305E+02  0.72700777294E+02  0.00000000000E+00 0.  1.
         12    1    4    4    0    0 -0.29664812629E+02  0.33428244135E+02 -0.18149253239E+03  0.18691438663E+03  0.00000000000E+00 0. -1.
         -5    1    5    5    0  502  0.11492758540E+02  0.32800056774E+02 -0.20374903376E+03  0.20674546182E+03  0.47000000000E+01 0.  1.
         11    1    6    6    0    0 -0.42124704468E+02 -0.12048636602E+02 -0.64905112110E+02  0.78309220073E+02  0.00000000000E+00 0. -1.
        -12    1    6    6    0    0 -0.69443565962E+01  0.34990203974E+02  0.58359314195E+01  0.36146874805E+02  0.00000000000E+00 0.  1.
</event>
<event>
12    1  0.8251070E-002  0.1812156E+03  0.7818608E-02  0.1166849E+00
         21   -1    0    0  503  502  0.00000000000E+00  0.00000000000E+00  0.38956435501E+03  0.38956435501E+03  0.00000000000E+00 0.  1.
         21   -1    0    0  501  503 -0.00000000000E+00 -0.00000000000E+00 -0.97258726334E+02  0.97258726334E+02  0.00000000000E+00 0.  1.
          6    2    1    2  501    0  0.46553550038E+02  0.30060782788E+02  0.23612464574E+03  0.29709855030E+03  0.17158617830E+03 0.  0.
         24    2    3    3    0    0 -0.14224522487E+02  0.72649736216E+02  0.14692688979E+03  0.18096878357E+03  0.75378169735E+02 0.  0.
         -6    2    1    2    0  502 -0.46553550038E+02 -0.30060782788E+02  0.56180982936E+02  0.18972453104E+03  0.17253466652E+03 0.  0.
        -24    2    5    5    0    0 -0.10190549796E+01  0.46315361743E+02  0.30953095150E+02  0.97175938315E+02  0.79617320236E+02 0.  0.
          5    1    3    3  501    0  0.60778072525E+02 -0.42588953428E+02  0.89197755958E+02  0.11612976673E+03  0.47000000000E+01 0. -1.
        -13    1    4    4    0    0  0.13293807763E+02  0.75477499319E+02  0.11985367793E+03  0.14226202003E+03  0.00000000000E+00 0.  1.
         14    1    4    4    0    0 -0.27518330250E+02 -0.28277631033E+01  0.27073211850E+02  0.38706763541E+02  0.00000000000E+00 0. -1.
         -5    1    5    5    0  502 -0.45534495058E+02 -0.76376144531E+02  0.25227887786E+02  0.92548592727E+02  0.47000000000E+01 0.  1.
         11    1    6    6    0    0  0.91933741343E+01  0.33865325602E+02 -0.22276063462E+02  0.41564424806E+02  0.00000000000E+00 0. -1.
        -12    1    6    6    0    0 -0.10212429114E+02  0.12450036142E+02  0.53229158612E+02  0.55611513510E+02  0.00000000000E+00 0.  1.
</event>
<event>
12    1  0.8251070E-002  0.2180192E+03  0.7818608E-02  0.1135608E+00
         21   -1    0    0  503  502  0.00000000000E+00  0.00000000000E+00  0.28083210292E+03  0.28083210292E+03  0.00000000000E+00 0.  1.
         21   -1    0    0  501  503 -0.00000000000E+00 -0.00000000000E+00 -0.17000415934E+03  0.17000415934E+03  0.00000000000E+00 0.  1.
          6    2    1    2  501    0 -0.74238206437E+02  0.10962145463E+03  0.78303682770E+02  0.23165455509E+03  0.17321718029E+03 0.  0.
         24    2    3    3    0    0 -0.10652749105E+03  0.89661503822E+02  0.21476753490E+02  0.16315355197E+03  0.82283284826E+02 0.  0.
         -6    2    1    2    0  502  0.74238206437E+02 -0.10962145463E+03  0.32524260811E+02  0.21918170718E+03  0.17162347919E+03 0.  0.
        -24    2    5    5    0    0  0.58623497270E+01 -0.88934894779E+02 -0.30824077304E+02  0.12358728537E+03  0.79874343245E+02 0.  0.
          5    1    3    3  501    0  0.32289284617E+02  0.19959950805E+02  0.56826929280E+02  0.68501003121E+02  0.47000000000E+01 0. -1.
        -11    1    4    4    0    0 -0.37419511736E+02  0.80018777909E+02 -0.51077395913E+01  0.88483409068E+02  0.00000000000E+00 0.  1.
         12    1    4    4    0    0 -0.69107979318E+02  0.96427259134E+01  0.26584493081E+02  0.74670142901E+02  0.00000000000E+00 0. -1.
         -5    1    5    5    0  502  0.68375856710E+02 -0.20686559848E+02  0.63348338115E+02  0.95594421810E+02  0.47000000000E+01 0.  1.
         13    1    6    6    0    0  0.90982818192E+01 -0.39129585369E+02 -0.55016453774E+02  0.68122781572E+02  0.00000000000E+00 0. -1.
        -14    1    6    6    0    0 -0.32359320922E+01 -0.49805309409E+02  0.24192376469E+02  0.55464503794E+02  0.00000000000E+00 0.  1.
</event>
<event>
12    1  0.8251070E-002  0.1727519E+03  0.7818608E-02  0.1175049E+00
         21   -1    0    0  501  502  0.00000000000E+00  0.00000000000E+00  0.68337038525E+03  0.68337038525E+03  0.00000000000E+00 0.  1.
         21   -1    0    0  502  503 -0.00000000000E+00 -0.00000000000E+00 -0.54730830932E+02  0.54730830932E+02  0.00000000000E+00 0.  1.
         -6    2    1    2    0  503 -0.13222923222E+02  0.73129703081E+01  0.14823214684E+03  0.22763125686E+03  0.17208978619E+03 0.  0.
        -24    2    3    3    0    0 -0.32232165596E+01  0.50183477357E+02  0.15733908216E+03  0.18243279694E+03  0.77442676232E+02 0.  0.
          6    2    1    2  501    0  0.13222923222E+02 -0.73129703081E+01  0.48040740748E+03  0.51046995933E+03  0.17193015145E+03 0.  0.
         24    2    5    5    0    0 -0.10993779360E+02 -0.68553402625E+02  0.29656714360E+03  0.31513391078E+03  0.80850967024E+02 0.  0.
          5    1    5    5  501    0  0.24216702582E+02  0.61240432317E+02  0.18384026389E+03  0.19533604854E+03  0.47000000000E+01 0. -1.
        -13    1    6    6    0    0 -0.32270595537E+02 -0.14571526734E+00  0.62364591374E+02  0.70219333709E+02  0.00000000000E+00 0.  1.
         14    1    6    6    0    0  0.21276816177E+02 -0.68407687358E+02  0.23420255222E+03  0.24491457707E+03  0.00000000000E+00 0. -1.
         -5    1    3    3    0  503 -0.99997066628E+01 -0.42870507049E+02 -0.91069353183E+01  0.45198459917E+02  0.47000000000E+01 0.  1.
         11    1    4    4    0    0  0.10071322278E+02  0.64325721072E+02  0.82390056864E+02  0.10501119652E+03  0.00000000000E+00 0. -1.
        -12    1    4    4    0    0 -0.13294538837E+02 -0.14142243716E+02  0.74949025294E+02  0.77421600427E+02  0.00000000000E+00 0.  1.
</event>
<event>
12    1  0.8251070E-002  0.1947328E+03  0.7818608E-02  0.1154564E+00
         21   -1    0    0  501  502  0.00000000000E+00  0.00000000000E+00  0.23253098305E+03  0.23253098305E+03  0.00000000000E+00 0.  1.
         21   -1    0    0  502  503 -0.00000000000E+00 -0.00000000000E+00 -0.63177541395E+03  0.63177541395E+03  0.00000000000E+00 0.  1.
         -6    2    1    2    0  503  0.22316871326E+02 -0.85874491244E+02 -0.57248510297E+03  0.60469833207E+03  0.17334476828E+03 0.  0.
        -24    2    3    3    0    0  0.13066622359E+02 -0.12858932380E+03 -0.41754582258E+03  0.44364432052E+03  0.75959320457E+02 0.  0.
          6    2    1    2  501    0 -0.22316871326E+02  0.85874491244E+02  0.17324067207E+03  0.25960806494E+03  0.17178924858E+03 0.  0.
         24    2    5    5    0    0 -0.54191539375E+02  0.10951854785E+03  0.10369731012E+03  0.17939955499E+03  0.80622781775E+02 0.  0.
          5    1    5    5  501    0  0.31874668049E+02 -0.23644056606E+02  0.69543361956E+02  0.80208509948E+02  0.47000000000E+01 0. -1.
        -11    1    6    6    0    0 -0.67096364816E+02  0.57064884780E+02  0.42584173925E+02  0.97835244750E+02  0.00000000000E+00 0.  1.
         12    1    6    6    0    0  0.12904825441E+02  0.52453663070E+02  0.61113136193E+02  0.81564310238E+02  0.00000000000E+00 0. -1.
         -5    1    3    3    0  503  0.92502489669E+01  0.42714832554E+02 -0.15493928040E+03  0.16105401155E+03  0.47000000000E+01 0.  1.
         11    1    4    4    0    0 -0.26470221862E+01 -0.54885495946E+02 -0.75405476326E+02  0.93302788016E+02  0.00000000000E+00 0. -1.
        -12    1    4    4    0    0  0.15713644545E+02 -0.73703827853E+02 -0.34214034625E+03  0.35034153250E+03  0.00000000000E+00 0.  1.
</event>
<event>
12    1  0.8251070E-002  0.2692829E+03  0.7818608E-02  0.1101706E+00
         21   -1    0    0  503  502  0.00000000000E+00  0.00000000000E+00  0.37582183405E+02  0.37582183405E+02  0.00000000000E+00 0. -1.
         21   -1    0    0  501  503 -0.00000000000E+00 -0.00000000000E+00 -0.23164220650E+04  0.23164220650E+04  0.00000000000E+00 0.  1.
          6    2    1    2  501    0  0.10677794819E+03  0.17705808605E+03 -0.16211524155E+04  0.16433649729E+04  0.17251719887E+03 0.  0.
         24    2    3    3    0    0  0.25376054177E+02  0.43885447048E+02 -0.35748311128E+03  0.37008439876E+03  0.81230602398E+02 0.  0.
         -6    2    1    2    0  502 -0.10677794819E+03 -0.17705808605E+03 -0.65768746609E+03  0.71063927547E+03  0.17234929862E+03 0.  0.
        -24    2    5    5    0    0 -0.11706367326E+03 -0.19803150970E+03 -0.57081376595E+03  0.62055703296E+03  0.79638516651E+02 0.  0.
          5    1    3    3  501    0  0.81401894018E+02  0.13317263901E+03 -0.12636693042E+04  0.12732805741E+04  0.47000000000E+01 0. -1.
        -13    1    4    4    0    0 -0.39329664920E+01  0.44139914491E+02 -0.31712309138E+03  0.32020439623E+03  0.00000000000E+00 0.  1.
         14    1    4    4    0    0  0.29309020669E+02 -0.25446744280E+00 -0.40360019902E+02  0.49880002534E+02  0.00000000000E+00 0. -1.
         -5    1    5    5    0  502  0.10285725060E+02  0.20973423641E+02 -0.86873700141E+02  0.90082242509E+02  0.47000000000E+01 0.  1.
         13    1    6    6    0    0 -0.52973373478E+02 -0.58859450889E+02 -0.11457197996E+03  0.13927437614E+03  0.00000000000E+00 0. -1.
        -14    1    6    6    0    0 -0.64090299778E+02 -0.13917205881E+03 -0.45624178599E+03  0.48128265683E+03  0.00000000000E+00 0.  1.
</event>
<event>
12    1  0.8251070E-002  0.2149446E+03  0.7818608E-02  0.1137720E+00
         21   -1    0    0  501  502  0.00000000000E+00  0.00000000000E+00  0.19523444377E+03  0.19523444377E+03  0.00000000000E+00 0. -1.
         21   -1    0    0  502  503 -0.00000000000E+00 -0.00000000000E+00 -0.28335457821E+03  0.28335457821E+03  0.00000000000E+00 0. -1.
         -6    2    1    2    0  503  0.12200651386E+03 -0.43131355339E+02 -0.14128339310E+03  0.25722006582E+03  0.17162535320E+03 0.  0.
        -24    2    3    3    0    0  0.12595607840E+03 -0.81722363411E+02 -0.13450383219E+03  0.21756004300E+03  0.81838945922E+02 0.  0.
          6    2    1    2  501    0 -0.12200651386E+03  0.43131355339E+02  0.53163258655E+02  0.22136895616E+03  0.17155751059E+03 0.  0.
         24    2    5    5    0    0 -0.33409413169E+02  0.80009363386E+02  0.37938371515E+02  0.12408935440E+03  0.80256842234E+02 0.  0.
          5    1    5    5  501    0 -0.88597100692E+02 -0.36878008047E+02  0.15224887140E+02  0.97279601752E+02  0.47000000000E+01 0. -1.
        -13    1    6    6    0    0 -0.20990185479E+02  0.85256172907E+01 -0.20786904248E+02  0.30746860406E+02  0.00000000000E+00 0.  1.
         14    1    6    6    0    0 -0.12419227690E+02  0.71483746095E+02  0.58725275763E+02  0.93342493997E+02  0.00000000000E+00 0. -1.
         -5    1    3    3    0  503 -0.39495645440E+01  0.38591008072E+02 -0.67795609109E+01  0.39660022823E+02  0.47000000000E+01 0.  1.
         11    1    4    4    0    0  0.85897036410E+02 -0.34722256055E+02 -0.12420102705E+03  0.15495106017E+03  0.00000000000E+00 0. -1.
        -12    1    4    4    0    0  0.40059041995E+02 -0.47000107356E+02 -0.10302805140E+02  0.62608982828E+02  0.00000000000E+00 0.  1.
</event>
<event>
12    1  0.8251070E-002  0.2924251E+03  0.7818608E-02  0.1089295E+00
         21   -1    0    0  501  502  0.00000000000E+00  0.00000000000E+00  0.61155042502E+03  0.61155042502E+03  0.00000000000E+00 0. -1.
         21   -1    0    0  502  503 -0.00000000000E+00 -0.00000000000E+00 -0.24296255901E+03  0.24296255901E+03  0.00000000000E+00 0. -1.
         -6    2    1    2    0  503  0.21853077207E+03 -0.91673664999E+02 -0.94804710170E+02  0.30740909758E+03  0.17132618308E+03 0.  0.
        -24    2    3    3    0    0  0.12300269988E+03 -0.12041897046E+03 -0.45667046228E+02  0.19610543556E+03  0.82106456016E+02 0.  0.
          6    2    1    2  501    0 -0.21853077207E+03  0.91673664999E+02  0.46339257618E+03  0.54710388645E+03  0.16861264397E+03 0.  0.
         24    2    5    5    0    0 -0.94389877630E+02  0.10405548950E+03  0.27872125683E+03  0.32419166730E+03  0.87622509934E+02 0.  0.
          5    1    5    5  501    0 -0.12414089444E+03 -0.12381824502E+02  0.18467131935E+03  0.22291221914E+03  0.47000000000E+01 0. -1.
        -11    1    6    6    0    0  0.12918978166E+02  0.36339313190E+02  0.70250967909E+02  0.80141401111E+02  0.00000000000E+00 0.  1.
         12    1    6    6    0    0 -0.10730885580E+03  0.67716176312E+02  0.20847028892E+03  0.24405026619E+03  0.00000000000E+00 0. -1.
         -5    1    3    3    0  503  0.95528072193E+02  0.28745305461E+02 -0.49137663941E+02  0.11130366203E+03  0.47000000000E+01 0.  1.
         11    1    4    4    0    0  0.12015882388E+03 -0.12386873086E+03 -0.58734226066E+02  0.18229458235E+03  0.00000000000E+00 0. -1.
        -12    1    4    4    0    0  0.28438759979E+01  0.34497603987E+01  0.13067179838E+02  0.13810853211E+02  0.00000000000E+00 0.  1.
</event>
<event>
12    1  0.8251070E-002  0.2087380E+03  0.7818608E-02  0.1142861E+00
         21   -1    0    0  501  502  0.00000000000E+00  0.00000000000E+00  0.73778868240E+03  0.73778868240E+03  0.00000000000E+00 0. -1.
         21   -1    0    0  502  503 -0.00000000000E+00 -0.00000000000E+00 -0.56910434918E+03  0.56910434918E+03  0.00000000000E+00 0.  1.
         -6    2    1    2    0  503 -0.13369096796E+02 -0.11554079361E+03 -0.53448953869E+03  0.57380364322E+03  0.17332958855E+03 0.  0.
        -24    2    3    3    0    0 -0.36920842232E+02 -0.29919949422E+02 -0.12951311479E+03  0.15917898454E+03  0.79410013549E+02 0.  0.
          6    2    1    2  501    0  0.13369096796E+02  0.11554079361E+03  0.70317387191E+03  0.73308938835E+03  0.17157549196E+03 0.  0.
         24    2    5    5    0    0 -0.43534045737E+02  0.23722990864E+02  0.41571868074E+03  0.42597205986E+03  0.78563228219E+02 0.  0.
          5    1    5    5  501    0  0.56903142533E+02  0.91817802750E+02  0.28745519117E+03  0.30711732849E+03  0.47000000000E+01 0. -1.
        -13    1    6    6    0    0  0.19730516183E+02 -0.33724411875E+01  0.50442728896E+02  0.54269102875E+02  0.00000000000E+00 0.  1.
         14    1    6    6    0    0 -0.63264561920E+02  0.27095432051E+02  0.36527595185E+03  0.37170295699E+03  0.00000000000E+00 0. -1.
         -5    1    3    3    0  503  0.23551745436E+02 -0.85620844192E+02 -0.40497642390E+03  0.41462465868E+03  0.47000000000E+01 0.  1.
         13    1    4    4    0    0 -0.30751854322E+02  0.21646984049E+02 -0.74921202340E+02  0.83829917229E+02  0.00000000000E+00 0. -1.
        -14    1    4    4    0    0 -0.61689879097E+01 -0.51566933471E+02 -0.54591912449E+02  0.75349067309E+02  0.00000000000E+00 0.  1.
</event>
<event>
12    1  0.8251070E-002  0.2545751E+03  0.7818608E-02  0.1110928E+00
         21   -1    0    0  501  502  0.00000000000E+00  0.00000000000E+00  0.53485804544E+03  0.53485804544E+03  0.00000000000E+00 0. -1.
         21   -1    0    0  502  503 -0.00000000000E+00 -0.00000000000E+00 -0.12178100316E+03  0.12178100316E+03  0.00000000000E+00 0. -1.
         -6    2    1    2    0  503  0.97566610681E+02 -0.15746153612E+03  0.24820517739E+03  0.35333851217E+03  0.17008502350E+03 0.  0.
        -24    2    3    3    0    0  0.13924893208E+02 -0.13305656497E+03  0.13975467030E+03  0.21414389300E+03  0.91805701913E+02 0.  0.
          6    2    1    2  501    0 -0.97566610681E+02  0.15746153612E+03  0.16487186489E+03  0.30330053642E+03  0.17462847617E+03 0.  0.
         24    2    5    5    0    0 -0.69761028733E+02  0.18574493744E+03  0.15004151038E+03  0.26069618697E+03  0.77988871969E+02 0.  0.
          5    1    5    5  501    0 -0.27805581948E+02 -0.28283401319E+02  0.14830354509E+02  0.42604349455E+02  0.47000000000E+01 0. -1.
        -13    1    6    6    0    0  0.46834336622E+01  0.88638499740E+02  0.45421875779E+02  0.99708901239E+02  0.00000000000E+00 0.  1.
         14    1    6    6    0    0 -0.74444462395E+02  0.97106437697E+02  0.10461963460E+03  0.16098728573E+03  0.00000000000E+00 0. -1.
         -5    1    3    3    0  503  0.83641717473E+02 -0.24404971151E+02  0.10845050709E+03  0.13919461917E+03  0.47000000000E+01 0.  1.
         13    1    4    4    0    0  0.50734540002E+02 -0.10190468376E+03  0.93292986578E+02  0.14718063550E+03  0.00000000000E+00 0. -1.
        -14    1    4    4    0    0 -0.36809646794E+02 -0.31151881210E+02  0.46461683726E+02  0.66963257498E+02  0.00000000000E+00 0.  1.
</event>
<event>
12    1  0.8251070E-002  0.2763985E+03  0.7818608E-02  0.1097673E+00
         21   -1    0    0  501  502  0.00000000000E+00  0.00000000000E+00  0.63710569509E+02  0.63710569509E+02  0.00000000000E+00 0.  1.
         21   -1    0    0  502  503 -0.00000000000E+00 -0.00000000000E+00 -0.15501606011E+04  0.15501606011E+04  0.00000000000E+00 0. -1.
         -6    2    1    2    0  503 -0.55674245719E+02 -0.20850395941E+03 -0.11272410392E+04  0.11606328006E+04  0.17269225412E+03 0.  0.
        -24    2    3    3    0    0 -0.83745591587E+02 -0.12227058644E+03 -0.90168830105E+03  0.91748609024E+03  0.82313504988E+02 0.  0.
          6    2    1    2  501    0  0.55674245719E+02  0.20850395941E+03 -0.35920899237E+03  0.45323836999E+03  0.17268583355E+03 0.  0.
         24    2    5    5    0    0  0.64304297637E+02  0.23454999919E+03 -0.32706660662E+03  0.41071664677E+03  0.50664128839E+02 0.  0.
          5    1    5    5  501    0 -0.86300519180E+01 -0.26046039782E+02 -0.32142385749E+02  0.42521723226E+02  0.47000000000E+01 0. -1.
        -11    1    6    6    0    0  0.72482744808E+02  0.19841703482E+03 -0.27326675456E+03  0.34539511744E+03  0.00000000000E+00 0.  1.
         12    1    6    6    0    0 -0.81784471718E+01  0.36132964367E+02 -0.53799852056E+02  0.65321529324E+02  0.00000000000E+00 0. -1.
         -5    1    3    3    0  503  0.28071345868E+02 -0.86233372964E+02 -0.22555273815E+03  0.24314671036E+03  0.47000000000E+01 0.  1.
         13    1    4    4    0    0 -0.13366475183E+02  0.96910837623E+01 -0.16137389876E+03  0.16221625986E+03  0.00000000000E+00 0. -1.
        -14    1    4    4    0    0 -0.70379116404E+02 -0.13196167021E+03 -0.74031440229E+03  0.75526983038E+03  0.00000000000E+00 0.  1.
</event>
<event>
12    1  0.8251070E-002  0.2203711E+03  0.7818608E-02  0.1134108E+00
         21   -1    0    0  503  502  0.00000000000E+00  0.00000000000E+00  0.18037094796E+03  0.18037094796E+03  0.00000000000E+00 0.  1.
         21   -1    0    0  501  503 -0.00000000000E+00 -0.00000000000E+00 -0.27003857305E+03  0.27003857305E+03  0.00000000000E+00 0.  1.
          6    2    1    2  501    0  0.93792741800E+02 -0.94991589539E+02 -0.17490141922E+02  0.22106409880E+03  0.17533667676E+03 0.  0.
         24    2    3    3    0    0  0.11317531727E+02  0.11868765905E+02 -0.30096740959E+02  0.85408976590E+02  0.78229951664E+02 0.  0.
         -6    2    1    2    0  502 -0.93792741800E+02  0.94991589539E+02 -0.72177483161E+02  0.22934542221E+03  0.17195712581E+03 0.  0.
        -24    2    5    5    0    0 -0.12234604927E+02  0.10051879209E+03 -0.70610820848E+02  0.14745022034E+03  0.80634771269E+02 0.  0.
          5    1    3    3  501    0  0.82475210073E+02 -0.10686035544E+03  0.12606599038E+02  0.13565512221E+03  0.47000000000E+01 0. -1.
        -13    1    4    4    0    0  0.39150293026E+02 -0.12565282260E+02 -0.68568836587E+01  0.41685112640E+02  0.00000000000E+00 0.  1.
         14    1    4    4    0    0 -0.27832761300E+02  0.24434048166E+02 -0.23239857301E+02  0.43723863950E+02  0.00000000000E+00 0. -1.
         -5    1    5    5    0  502 -0.81558136873E+02 -0.55272025496E+01 -0.15666623126E+01  0.81895201868E+02  0.47000000000E+01 0.  1.
         11    1    6    6    0    0  0.28403922345E+02  0.98218854286E+01 -0.15884523816E+02  0.33993680807E+02  0.00000000000E+00 0. -1.
        -12    1    6    6    0    0 -0.40638527272E+02  0.90696906660E+02 -0.54726297032E+02  0.11345653954E+03  0.00000000000E+00 0.  1.
</event>
<event>
12    1  0.8251070E-002  0.3203489E+03  0.7818608E-02  0.1075495E+00
         21   -1    0    0  501  502  0.00000000000E+00  0.00000000000E+00  0.85847286876E+02  0.85847286876E+02  0.00000000000E+00 0.  1.
         21   -1    0    0  502  503 -0.00000000000E+00 -0.00000000000E+00 -0.19566656157E+04  0.19566656157E+04  0.00000000000E+00 0. -1.
         -6    2    1    2    0  503  0.26984412500E+03 -0.14056816145E+02 -0.15725420539E+04  0.16048401521E+04  0.17207543868E+03 0.  0.
        -24    2    3    3    0    0  0.25325432398E+03  0.36491882593E+02 -0.13388882203E+04  0.13651599560E+04  0.74636645783E+02 0.  0.
          6    2    1    2  501    0 -0.26984412500E+03  0.14056816145E+02 -0.29827627494E+03  0.43767275050E+03  0.17197457505E+03 0.  0.
         24    2    5    5    0    0 -0.23011077420E+03 -0.43906316538E+02 -0.21198503995E+03  0.32628724358E+03  0.81528983360E+02 0.  0.
          5    1    5    5  501    0 -0.39733350800E+02  0.57963132683E+02 -0.86291234987E+02  0.11138550692E+03  0.47000000000E+01 0. -1.
        -11    1    6    6    0    0 -0.14215403251E+03 -0.43555439861E+01 -0.16849926161E+03  0.22049657795E+03  0.00000000000E+00 0.  1.
         12    1    6    6    0    0 -0.87956741687E+02 -0.39550772552E+02 -0.43485778336E+02  0.10579066563E+03  0.00000000000E+00 0. -1.
         -5    1    3    3    0  503  0.16589801018E+02 -0.50548698738E+02 -0.23365383358E+03  0.23968019607E+03  0.47000000000E+01 0.  1.
         13    1    4    4    0    0  0.13188001422E+03 -0.17849533020E+02 -0.71008103641E+03  0.72244447693E+03  0.00000000000E+00 0. -1.
        -14    1    4    4    0    0  0.12137430976E+03  0.54341415613E+02 -0.62880718389E+03  0.64271547907E+03  0.00000000000E+00 0.  1.
</event>
<event>
12    1  0.8251070E-002  0.2975866E+03  0.7818608E-02  0.1086864E+00
         21   -1    0    0  501  502  0.00000000000E+00  0.00000000000E+00  0.43393085784E+03  0.43393085784E+03  0.00000000000E+00 0.  1.
         21   -1    0    0  502  503 -0.00000000000E+00 -0.00000000000E+00 -0.20786013381E+03  0.20786013381E+03  0.00000000000E+00 0. -1.
         -6    2    1    2    0  503 -0.20802688932E+03 -0.11572196783E+03  0.57955740863E+02  0.30000097029E+03  0.17313276339E+03 0.  0.
        -24    2    3    3    0    0 -0.38674312843E+02 -0.29460617216E+02 -0.18576743006E+02  0.95060425604E+02  0.79547210477E+02 0.  0.
          6    2    1    2  501    0  0.20802688932E+03  0.11572196783E+03  0.16811498317E+03  0.34179002135E+03  0.17858054377E+03 0.  0.
         24    2    5    5    0    0  0.26961803804E+02  0.74722886012E+02  0.37950035874E+02  0.11500710003E+03  0.73999859969E+02 0.  0.
          5    1    5    5  501    0  0.18106508551E+03  0.40999081821E+02  0.13016494729E+03  0.22678292133E+03  0.47000000000E+01 0. -1.
        -13    1    6    6    0    0  0.29114730682E+02  0.84957882866E+02  0.16735091357E+02  0.91354106018E+02  0.00000000000E+00 0.  1.
         14    1    6    6    0    0 -0.21529268784E+01 -0.10234996854E+02  0.21214944516E+02  0.23652994008E+02  0.00000000000E+00 0. -1.
         -5    1    3    3    0  503 -0.16935257647E+03 -0.86261350617E+02  0.76532483869E+02  0.20494054469E+03  0.47000000000E+01 0.  1.
         11    1    4    4    0    0 -0.59857841372E+02 -0.36203221203E+02 -0.20078680505E+02  0.72779034137E+02  0.00000000000E+00 0. -1.
        -12    1    4    4    0    0  0.21183528529E+02  0.67426039871E+01  0.15019374991E+01  0.22281391467E+02  0.00000000000E+00 0.  1.
</event>
<event>
12    1  0.8251070E-002  0.2126801E+03  0.7818608E-02  0.1141697E+00
         21   -1    0    0  501  502  0.00000000000E+00  0.00000000000E+00  0.10657401275E+03  0.10657401275E+03  0.00000000000E+00 0. -1.
         21   -1    0    0  502  503 -0.00000000000E+00 -0.00000000000E+00 -0.69159049146E+03  0.69159049146E+03  0.00000000000E+00 0. -1.
         -6    2    1    2    0  503 -0.82690534891E+01  0.10060060805E+03 -0.54591002361E+03  0.58191893115E+03  0.17442198533E+03 0.  0.
        -24    2    3    3    0    0  0.41050242341E+01  0.13392392861E+03 -0.35141443405E+03  0.38414586460E+03  0.78252609896E+02 0.  0.
          6    2    1    2  501    0  0.82690534891E+01 -0.10060060805E+03 -0.39106455102E+02  0.21624557306E+03  0.18720035645E+03 0.  0.
         24    2    5    5    0    0 -0.34293132068E+02 -0.11019942373E+03 -0.75381108674E+02  0.15931036960E+03  0.79859566853E+02 0.  0.
          5    1    5    5  501    0  0.42562185557E+02  0.95988156868E+01  0.36274653572E+02  0.56935203466E+02  0.47000000000E+01 0. -1.
        -13    1    6    6    0    0 -0.14061881786E+02 -0.61098562165E+02 -0.84714122903E+02  0.10539095520E+03  0.00000000000E+00 0.  1.
         14    1    6    6    0    0 -0.20231250282E+02 -0.49100861568E+02  0.93330142289E+01  0.53919414400E+02  0.00000000000E+00 0. -1.
         -5    1    3    3    0  503 -0.12374077723E+02 -0.33323320559E+02 -0.19449558956E+03  0.19777306654E+03  0.47000000000E+01 0.  1.
         13    1    4    4    0    0 -0.28286075561E+02  0.84179539405E+02 -0.26354453946E+03  0.27810433511E+03  0.00000000000E+00 0. -1.
        -14    1    4    4    0    0  0.32391099795E+02  0.49744389200E+02 -0.87869894589E+02  0.10604152950E+03  0.00000000000E+00 0.  1.
</event>
<event>
12    1  0.8251070E-002  0.1985623E+03  0.7818608E-02  0.1150977E+00
         21   -1    0    0  503  502  0.00000000000E+00  0.00000000000E+00  0.59518301667E+03  0.59518301667E+03  0.00000000000E+00 0. -1.
         21   -1    0    0  501  503 -0.00000000000E+00 -0.00000000000E+00 -0.69954326299E+02  0.69954326299E+02  0.00000000000E+00 0. -1.
          6    2    1    2  501    0  0.82873579312E+02 -0.52506086933E+02  0.33958831786E+03  0.39337920069E+03  0.17263270432E+03 0.  0.
         24    2    3    3    0    0  0.12369139810E+03 -0.55761691927E+02  0.26905632268E+03  0.31168742853E+03  0.79679483435E+02 0.  0.
         -6    2    1    2    0  502 -0.82873579312E+02  0.52506086933E+02  0.18564037252E+03  0.27175814228E+03  0.17252599999E+03 0.  0.
        -24    2    5    5    0    0 -0.81219143221E+02 -0.28316478939E+02  0.11272196525E+03  0.16278930072E+03  0.79973387908E+02 0.  0.
          5    1    3    3  501    0 -0.40817818792E+02  0.32556049939E+01  0.70531995179E+02  0.81691772161E+02  0.47000000000E+01 0. -1.
        -11    1    4    4    0    0 -0.72375078883E+01 -0.19347137358E+02  0.25867901315E+02  0.33103497743E+02  0.00000000000E+00 0.  1.
         12    1    4    4    0    0  0.13092890599E+03 -0.36414554569E+02  0.24318842136E+03  0.27858393079E+03  0.00000000000E+00 0. -1.
         -5    1    5    5    0  502 -0.16544360915E+01  0.80822565872E+02  0.72918407268E+02  0.10896884156E+03  0.47000000000E+01 0.  1.
         11    1    6    6    0    0 -0.20050003849E+02  0.27342705094E+02  0.41952966307E+02  0.53941427105E+02  0.00000000000E+00 0. -1.
        -12    1    6    6    0    0 -0.61169139372E+02 -0.55659184033E+02  0.70768998945E+02  0.10884787361E+03  0.00000000000E+00 0.  1.
</event>
<event>
12    1  0.8251070E-002  0.1739109E+03  0.7818608E-02  0.1174464E+00
         21   -1    0    0  503  502  0.00000000000E+00  0.00000000000E+00  0.88691781610E+03  0.88691781610E+03  0.00000000000E+00 0.  1.
         21   -1    0    0  501  503 -0.00000000000E+00 -0.00000000000E+00 -0.50013813960E+02  0.50013813960E+02  0.00000000000E+00 0.  1.
          6    2    1    2  501    0 -0.69674474565E+01  0.19466178975E+02  0.14817986804E+03  0.22658951558E+03  0.17017067264E+03 0.  0.
         24    2    3    3    0    0 -0.17002088523E+02 -0.51490664130E+02  0.10717457024E+03  0.14389071237E+03  0.79232500223E+02 0.  0.
         -6    2    1    2    0  502  0.69674474565E+01 -0.19466178975E+02  0.68872413409E+03  0.71034211448E+03  0.17267747182E+03 0.  0.
        -24    2    5    5    0    0  0.57228029352E+01 -0.10552450448E+02  0.14112828377E+03  0.16265213923E+03  0.79965125104E+02 0.  0.
          5    1    3    3  501    0  0.10034641066E+02  0.70956843105E+02  0.41005297799E+02  0.82698803209E+02  0.47000000000E+01 0. -1.
        -13    1    4    4    0    0 -0.41404994917E+00 -0.22417664416E+02 -0.81115555545E+01  0.23843666848E+02  0.00000000000E+00 0.  1.
         14    1    4    4    0    0 -0.16588038573E+02 -0.29072999714E+02  0.11528612580E+03  0.12004704552E+03  0.00000000000E+00 0. -1.
         -5    1    5    5    0  502  0.12446445213E+01 -0.89137285271E+01  0.54759585032E+03  0.54768997525E+03  0.47000000000E+01 0.  1.
         13    1    6    6    0    0 -0.10333691067E+02 -0.17728934513E+02  0.89389467772E-01  0.20520922994E+02  0.00000000000E+00 0. -1.
        -14    1    6    6    0    0  0.16056494002E+02  0.71764840657E+01  0.14103889430E+03  0.14213121624E+03  0.00000000000E+00 0.  1.
</event>
<event>
12    1  0.8251070E-002  0.2190156E+03  0.7818608E-02  0.1135079E+00
         21   -1    0    0  501  502  0.00000000000E+00  0.00000000000E+00  0.18151901026E+03  0.18151901026E+03  0.00000000000E+00 0. -1.
         21   -1    0    0  502  503 -0.00000000000E+00 -0.00000000000E+00 -0.37234395458E+03  0.37234395458E+03  0.00000000000E+00 0.  1.
         -6    2    1    2    0  503 -0.65255921074E+02 -0.11930876268E+03 -0.24700212582E+03  0.33011800707E+03  0.17168265009E+03 0.  0.
        -24    2    3    3    0    0 -0.94892815126E+02 -0.13334040815E+03 -0.23031043002E+03  0.29302440557E+03  0.77692324417E+02 0.  0.
          6    2    1    2  501    0  0.65255921074E+02  0.11930876268E+03  0.56177181498E+02  0.22374495777E+03  0.16856160393E+03 0.  0.
         24    2    5    5    0    0  0.26182997721E+01  0.12530384043E+03  0.20265347188E+02  0.15114218646E+03  0.82008342929E+02 0.  0.
          5    1    5    5  501    0  0.62637621302E+02 -0.59950777463E+01  0.35911834310E+02  0.72602771318E+02  0.47000000000E+01 0. -1.
        -13    1    6    6    0    0  0.21409719655E+02 -0.11565712286E+01 -0.13302287900E+01  0.21482161468E+02  0.00000000000E+00 0.  1.
         14    1    6    6    0    0 -0.18791419883E+02  0.12646041166E+03  0.21595575978E+02  0.12966002499E+03  0.00000000000E+00 0. -1.
         -5    1    3    3    0  503  0.29636894053E+02  0.14031645469E+02 -0.16691695804E+02  0.37093601503E+02  0.47000000000E+01 0.  1.
         11    1    4    4    0    0 -0.53535793399E+02 -0.66464852538E+02 -0.56769428982E+02  0.10250085787E+03  0.00000000000E+00 0. -1.
        -12    1    4    4    0    0 -0.41357021728E+02 -0.66875555614E+02 -0.17354100104E+03  0.19052354769E+03  0.00000000000E+00 0.  1.
</event>
<event>
12    1  0.8251070E-002  0.2162768E+03  0.7818608E-02  0.1136705E+00
         21   -1    0    0  501  502  0.00000000000E+00  0.00000000000E+00  0.15523573288E+04  0.15523573288E+04  0.00000000000E+00 0.  1.
         21   -1    0    0  502  503 -0.00000000000E+00 -0.00000000000E+00 -0.32087072209E+02  0.32087072209E+02  0.00000000000E+00 0.  1.
         -6    2    1    2    0  503 -0.96785968204E+02 -0.87056287397E+02  0.56414682256E+03  0.60418315657E+03  0.17271169174E+03 0.  0.
        -24    2    3    3    0    0 -0.35261139422E+02  0.20283285383E+02  0.18499604727E+03  0.20532918725E+03  0.79257668474E+02 0.  0.
          6    2    1    2  501    0  0.96785968204E+02  0.87056287397E+02  0.95612343404E+03  0.98026124444E+03  0.17260870611E+03 0.  0.
         24    2    5    5    0    0 -0.82324752646E+01  0.73871298750E+02  0.43127894330E+03  0.44483006600E+03  0.79671313865E+02 0.  0.
          5    1    5    5  501    0  0.10501844347E+03  0.13184988648E+02  0.52484449074E+03  0.53543117844E+03  0.47000000000E+01 0. -1.
        -11    1    6    6    0    0  0.35751584504E+02  0.37633416603E+02  0.21311330967E+03  0.21934386839E+03  0.00000000000E+00 0.  1.
         12    1    6    6    0    0 -0.43984059768E+02  0.36237882147E+02  0.21816563363E+03  0.22548619761E+03  0.00000000000E+00 0. -1.
         -5    1    3    3    0  503 -0.61524828782E+02 -0.10733957278E+03  0.37915077529E+03  0.39885396932E+03  0.47000000000E+01 0.  1.
         13    1    4    4    0    0 -0.41005553644E+02 -0.27437912341E+01  0.17468329860E+03  0.17945260831E+03  0.00000000000E+00 0. -1.
        -14    1    4    4    0    0  0.57444142220E+01  0.23027076618E+02  0.10312748665E+02  0.25876578934E+02  0.00000000000E+00 0.  1.
</event>
<event>
12    1  0.8251070E-002  0.1976438E+03  0.7818608E-02  0.1153031E+00
         21   -1    0    0  501  502  0.00000000000E+00  0.00000000000E+00  0.48049476591E+02  0.48049476591E+02  0.00000000000E+00 0. -1.
         21   -1    0    0  502  503 -0.00000000000E+00 -0.00000000000E+00 -0.10767776047E+04  0.10767776047E+04  0.00000000000E+00 0. -1.
         -6    2    1    2    0  503  0.41042351231E+01 -0.82937624978E+02 -0.79945741708E+03  0.82212571658E+03  0.17280925250E+03 0.  0.
        -24    2    3    3    0    0  0.52503883831E+02 -0.60500169855E+02 -0.70188925850E+03  0.71082611660E+03  0.78792819875E+02 0.  0.
          6    2    1    2  501    0 -0.41042351231E+01  0.82937624978E+02 -0.22927071103E+03  0.30270136472E+03  0.17935317918E+03 0.  0.
         24    2    5    5    0    0  0.18482265173E+02  0.71632115469E+02 -0.24801571026E+03  0.27089838472E+03  0.80008675878E+02 0.  0.
          5    1    5    5  501    0 -0.22586500296E+02  0.11305509509E+02  0.18744999226E+02  0.31802980000E+02  0.47000000000E+01 0. -1.
        -11    1    6    6    0    0  0.40693094103E+02  0.44923943643E+02 -0.86086325515E+02  0.10528506096E+03  0.00000000000E+00 0.  1.
         12    1    6    6    0    0 -0.22210828930E+02  0.26708171826E+02 -0.16192938474E+03  0.16561332376E+03  0.00000000000E+00 0. -1.
         -5    1    3    3    0  503 -0.48399648708E+02 -0.22437455123E+02 -0.97568158576E+02  0.11129959998E+03  0.47000000000E+01 0.  1.
         11    1    4    4    0    0  0.41260713185E+02 -0.78474034762E+02 -0.49731476860E+03  0.50515601516E+03  0.00000000000E+00 0. -1.
        -12    1    4    4    0    0  0.11243170646E+02  0.17973864907E+02 -0.20457448991E+03  0.20567010144E+03  0.00000000000E+00 0.  1.
</event>
<event>
12    1  0.8251070E-002  0.1820663E+03  0.7818608E-02  0.1166718E+00
         21   -1    0    0  503  502  0.00000000000E+00  0.00000000000E+00  0.22204742295E+03  0.22204742295E+03  0.00000000000E+00 0. -1.
         21   -1    0    0  501  503 -0.00000000000E+00 -0.00000000000E+00 -0.23857369094E+03  0.23857369094E+03  0.00000000000E+00 0. -1.
          6    2    1    2  501    0 -0.50238365319E+02 -0.12376789401E+02 -0.15148482698E+03  0.23398939019E+03  0.17066430105E+03 0.  0.
         24    2    3    3    0    0  0.37956331012E+02 -0.29719746871E+01 -0.94751626424E+02  0.12859726029E+03  0.78165650685E+02 0.  0.
         -6    2    1    2    0  502  0.50238365319E+02  0.12376789401E+02  0.13495855898E+03  0.22663172370E+03  0.17455958089E+03 0.  0.
        -24    2    5    5    0    0  0.43730086869E+02  0.37202357692E+02  0.16145132408E+03  0.18944808305E+03  0.80794246129E+02 0.  0.
          5    1    3    3  501    0 -0.88194696331E+02 -0.94048147135E+01 -0.56733200551E+02  0.10539212990E+03  0.47000000000E+01 0. -1.
        -13    1    4    4    0    0  0.19795632555E+02 -0.30275308217E+00  0.10048298288E+02  0.22201959963E+02  0.00000000000E+00 0.  1.
         14    1    4    4    0    0  0.18160698457E+02 -0.26692216049E+01 -0.10479992471E+03  0.10639530033E+03  0.00000000000E+00 0. -1.
         -5    1    5    5    0  502  0.65082784494E+01 -0.24825568292E+02 -0.26492765101E+02  0.37183640651E+02  0.47000000000E+01 0.  1.
         13    1    6    6    0    0  0.32453556964E+02 -0.21761279499E+02  0.62345335225E+02  0.73578036596E+02  0.00000000000E+00 0. -1.
        -14    1    6    6    0    0  0.11276529905E+02  0.58963637192E+02  0.99105988860E+02  0.11587004645E+03  0.00000000000E+00 0.  1.
</event>
<event>
12    1  0.8251070E-002  0.2318782E+03  0.7818608E-02  0.1126722E+00
         21   -1    0    0  503  502  0.00000000000E+00  0.00000000000E+00  0.10531503588E+03  0.10531503588E+03  0.00000000000E+00 0.  1.
         21   -1    0    0  501  503 -0.00000000000E+00 -0.00000000000E+00 -0.52704415907E+03  0.52704415907E+03  0.00000000000E+00 0. -1.
          6    2    1    2  501    0 -0.12798952291E+02  0.14282204987E+03 -0.29422045960E+03  0.37461069934E+03  0.18222389006E+03 0.  0.
         24    2    3    3    0    0  0.72988339669E+02  0.76298535801E+02 -0.13543178989E+03  0.18220287982E+03  0.60888056374E+02 0.  0.
         -6    2    1    2    0  502  0.12798952291E+02 -0.14282204987E+03 -0.12750866360E+03  0.25774849560E+03  0.17208682862E+03 0.  0.
        -24    2    5    5    0    0  0.31129347473E+02 -0.81003271004E+01 -0.28456345244E+02  0.89464813255E+02  0.78482722003E+02 0.  0.
          5    1    3    3  501    0 -0.85787291961E+02  0.66523514069E+02 -0.15878866970E+03  0.19240781952E+03  0.47000000000E+01 0. -1.
        -13    1    4    4    0    0  0.69386489667E+02  0.83782262371E+02 -0.10701807396E+03  0.15260019853E+03  0.00000000000E+00 0.  1.
         14    1    4    4    0    0  0.36018500018E+01 -0.74837265696E+01 -0.28413715931E+02  0.29602681295E+02  0.00000000000E+00 0. -1.
         -5    1    5    5    0  502 -0.18330395182E+02 -0.13472172277E+03 -0.99052318353E+02  0.16828368235E+03  0.47000000000E+01 0.  1.
         11    1    6    6    0    0  0.45339180379E+02 -0.30780310011E+02 -0.71682655472E+01  0.55267104075E+02  0.00000000000E+00 0. -1.
        -12    1    6    6    0    0 -0.14209832906E+02  0.22679982910E+02 -0.21288079697E+02  0.34197709181E+02  0.00000000000E+00 0.  1.
</event>
<event>
12    1  0.8251070E-002  0.1948702E+03  0.7818608E-02  0.1154697E+00
         21   -1    0    0  503  502  0.00000000000E+00  0.00000000000E+00  0.17138523192E+03  0.17138523192E+03  0.00000000000E+00 0.  1.
         21   -1    0    0  501  503 -0.00000000000E+00 -0.00000000000E+00 -0.21888019112E+03  0.21888019112E+03  0.00000000000E+00 0.  1.
          6    2    1    2  501    0 -0.92706174821E+01 -0.87232947142E+02 -0.29415488383E+02  0.19707777449E+03  0.17400818034E+03 0.  0.
         24    2    3    3    0    0 -0.57062156820E+02 -0.43743738866E+02  0.28208691813E+02  0.11037149668E+03  0.78844990670E+02 0.  0.
         -6    2    1    2    0  502  0.92706174821E+01  0.87232947142E+02 -0.18079470817E+02  0.19318764855E+03  0.17116970781E+03 0.  0.
        -24    2    5    5    0    0  0.82453697303E+00  0.53272330919E+02  0.54464826180E+02  0.11250664238E+03  0.82781073836E+02 0.  0.
          5    1    3    3  501    0  0.47791539338E+02 -0.43489208277E+02 -0.57624180196E+02  0.86706277812E+02  0.47000000000E+01 0. -1.
        -13    1    4    4    0    0 -0.25080846473E+02 -0.51504096240E+02 -0.11879852153E+02  0.58505142308E+02  0.00000000000E+00 0.  1.
         14    1    4    4    0    0 -0.31981310348E+02  0.77603573740E+01  0.40088543966E+02  0.51866354368E+02  0.00000000000E+00 0. -1.
         -5    1    5    5    0  502  0.84460805090E+01  0.33960616224E+02 -0.72544296996E+02  0.80681006172E+02  0.47000000000E+01 0.  1.
         13    1    6    6    0    0 -0.23558750254E+02  0.41344028389E+02 -0.42963849816E+01  0.47778680611E+02  0.00000000000E+00 0. -1.
        -14    1    6    6    0    0  0.24383287227E+02  0.11928302529E+02  0.58761211161E+02  0.64727961766E+02  0.00000000000E+00 0.  1.
</event>
<event>
12    1  0.8251070E-002  0.1790726E+03  0.7818608E-02  0.1168781E+00
         21   -1    0    0  503  502  0.00000000000E+00  0.00000000000E+00  0.28408742979E+03  0.28408742979E+03  0.00000000000E+00 0. -1.
         21   -1    0    0  501  503 -0.00000000000E+00 -0.00000000000E+00 -0.21331742224E+03  0.21331742224E+03  0.00000000000E+00 0. -1.
          6    2    1    2  501    0 -0.24782106749E+02  0.39405152806E+02 -0.13545731456E+03  0.22428087635E+03  0.17258710423E+03 0.  0.
         24    2    3    3    0    0  0.18604522109E+02  0.81988389070E+02 -0.85574455694E+02  0.14550193765E+03  0.82338339831E+02 0.  0.
         -6    2    1    2    0  502  0.24782106749E+02 -0.39405152806E+02  0.20622732211E+03  0.27312397569E+03  0.17291639259E+03 0.  0.
        -24    2    5    5    0    0  0.88391260684E+01 -0.53538037419E+02  0.22448783601E+03  0.24467308065E+03  0.80781658065E+02 0.  0.
          5    1    3    3  501    0 -0.43386628859E+02 -0.42583236264E+02 -0.49882858863E+02  0.78778938700E+02  0.47000000000E+01 0. -1.
        -13    1    4    4    0    0  0.13397163304E+01  0.49137805000E+02  0.32228826815E+01  0.49261604651E+02  0.00000000000E+00 0.  1.
         14    1    4    4    0    0  0.17264805779E+02  0.32850584070E+02 -0.88797338375E+02  0.96240332995E+02  0.00000000000E+00 0. -1.
         -5    1    5    5    0  502  0.15942980681E+02  0.14132884613E+02 -0.18260513898E+02  0.28450895035E+02  0.47000000000E+01 0.  1.
         11    1    6    6    0    0  0.32984105006E+02 -0.48155524792E+01  0.14210647178E+03  0.14596366004E+03  0.00000000000E+00 0. -1.
        -12    1    6    6    0    0 -0.24144978937E+02 -0.48722484939E+02  0.82381364225E+02  0.98709420615E+02  0.00000000000E+00 0.  1.
</event>
<event>
12    1  0.8251070E-002  0.2174283E+03  0.7818608E-02  0.1135904E+00
         21   -1    0    0  503  502  0.00000000000E+00  0.00000000000E+00  0.24350324068E+03  0.24350324068E+03  0.00000000000E+00 0. -1.
         21   -1    0    0  501  503 -0.00000000000E+00 -0.00000000000E+00 -0.51353951007E+03  0.51353951007E+03  0.00000000000E+00 0.  1.
          6    2    1    2  501    0 -0.21019698141E+02 -0.13145436167E+03 -0.43378493035E+03  0.48522616913E+03  0.17190983828E+03 0.  0.
         24    2    3    3    0    0  0.29629839509E+02 -0.99649420525E+02 -0.38873202625E+03  0.41020094595E+03  0.79651072981E+02 0.  0.
         -6    2    1    2    0  502  0.21019698141E+02  0.13145436167E+03  0.16374866096E+03  0.27181658163E+03  0.17131419431E+03 0.  0.
        -24    2    5    5    0    0 -0.38456781971E+02  0.60474739768E+02  0.13975914194E+03  0.17604004257E+03  0.79506984620E+02 0.  0.
          5    1    3    3  501    0 -0.50649537650E+02 -0.31804941141E+02 -0.45052904101E+02  0.75025223179E+02  0.47000000000E+01 0. -1.
        -13    1    4    4    0    0 -0.20912154921E+02 -0.62249897521E+02 -0.23769904065E+03  0.24660332903E+03  0.00000000000E+00 0.  1.
         14    1    4    4    0    0  0.50541994430E+02 -0.37399523004E+02 -0.15103298560E+03  0.16359761691E+03  0.00000000000E+00 0. -1.
         -5    1    5    5    0  502  0.59476480111E+02  0.70979621897E+02  0.23989519018E+02  0.95776539058E+02  0.47000000000E+01 0.  1.
         13    1    6    6    0    0 -0.19598124660E+02  0.16605299898E+02  0.12265825094E+03  0.12531906877E+03  0.00000000000E+00 0. -1.
        -14    1    6    6    0    0 -0.18858657311E+02  0.43869439871E+02  0.17100891003E+02  0.50720973800E+02  0.00000000000E+00 0.  1.
</event>
<event>
12    1  0.8251070E-002  0.2044536E+03  0.7818608E-02  0.1146054E+00
         21   -1    0    0  503  502  0.00000000000E+00  0.00000000000E+00  0.28825521963E+02  0.28825521963E+02  0.00000000000E+00 0. -1.
         21   -1    0    0  501  503 -0.00000000000E+00 -0.00000000000E+00 -0.14969084497E+04  0.14969084497E+04  0.00000000000E+00 0.  1.
          6    2    1    2  501    0 -0.10975340647E+03  0.11630912955E+02 -0.59841670284E+03  0.63237948073E+03  0.17210511048E+03 0.  0.
         24    2    3    3    0    0 -0.14324579706E+03 -0.52601609819E+01 -0.51674327157E+03  0.54238121419E+03  0.81281886815E+02 0.  0.
         -6    2    1    2    0  502  0.10975340647E+03 -0.11630912955E+02 -0.86966622490E+03  0.89335449093E+03  0.17199364919E+03 0.  0.
        -24    2    5    5    0    0  0.12195429119E+03  0.30556619556E+02 -0.54502172149E+03  0.56571933854E+03  0.84753389089E+02 0.  0.
          5    1    3    3  501    0  0.33492390591E+02  0.16891073937E+02 -0.81673431267E+02  0.89998266545E+02  0.47000000000E+01 0. -1.
        -13    1    4    4    0    0 -0.12755131438E+03  0.13890737615E+02 -0.48731190125E+03  0.50391981455E+03  0.00000000000E+00 0.  1.
         14    1    4    4    0    0 -0.15694482677E+02 -0.19150898597E+02 -0.29431370315E+02  0.38461399639E+02  0.00000000000E+00 0. -1.
         -5    1    5    5    0  502 -0.12200884719E+02 -0.42187532511E+02 -0.32464450341E+03  0.32763515239E+03  0.47000000000E+01 0.  1.
         13    1    6    6    0    0  0.26995196584E+02  0.16527976524E+00 -0.26966851432E+02  0.38157293302E+02  0.00000000000E+00 0. -1.
        -14    1    6    6    0    0  0.94959094603E+02  0.30391339790E+02 -0.51805487006E+03  0.52756204524E+03  0.00000000000E+00 0.  1.
</event>
<event>
12    1  0.8251070E-002  0.2033926E+03  0.7818608E-02  0.1146914E+00
         21   -1    0    0  503  502  0.00000000000E+00  0.00000000000E+00  0.74690154301E+02  0.74690154301E+02  0.00000000000E+00 0. -1.
         21   -1    0    0  501  503 -0.00000000000E+00 -0.00000000000E+00 -0.90347745129E+03  0.90347745129E+03  0.00000000000E+00 0. -1.
          6    2    1    2  501    0  0.10472428854E+03  0.27783427041E+02 -0.71869143967E+03  0.74691761029E+03  0.17213202982E+03 0.  0.
         24    2    3    3    0    0  0.11908183715E+03 -0.22724822255E+01 -0.37130976789E+03  0.39791100181E+03  0.79224828870E+02 0.  0.
         -6    2    1    2    0  502 -0.10472428854E+03 -0.27783427041E+02 -0.11009585733E+03  0.23124999530E+03  0.17209406468E+03 0.  0.
        -24    2    5    5    0    0 -0.10053007349E+03  0.37666718750E+02 -0.91167488457E+02  0.16282714698E+03  0.81707352582E+02 0.  0.
          5    1    3    3  501    0 -0.14357548617E+02  0.30055909267E+02 -0.34738167177E+03  0.34900660849E+03  0.47000000000E+01 0. -1.
        -13    1    4    4    0    0  0.11395664939E+01  0.17968735699E+02 -0.20662238070E+02  0.27406243020E+02  0.00000000000E+00 0.  1.
         14    1    4    4    0    0  0.11794227066E+03 -0.20241217924E+02 -0.35064752982E+03  0.37050475879E+03  0.00000000000E+00 0. -1.
         -5    1    5    5    0  502 -0.41942150477E+01 -0.65450145791E+02 -0.18928368869E+02  0.68422848318E+02  0.47000000000E+01 0.  1.
         11    1    6    6    0    0 -0.10110940964E+03  0.47716475120E+01 -0.76117199174E+02  0.12664797411E+03  0.00000000000E+00 0. -1.
        -12    1    6    6    0    0  0.57933614550E+00  0.32895071238E+02 -0.15050289283E+02  0.36179172871E+02  0.00000000000E+00 0.  1.
</event>
<event>
12    1  0.8251070E-002  0.2286876E+03  0.7818608E-02  0.1127830E+00
         21   -1    0    0  501  502  0.00000000000E+00  0.00000000000E+00  0.41634594354E+03  0.41634594354E+03  0.00000000000E+00 0.  1.
         21   -1    0    0  502  503 -0.00000000000E+00 -0.00000000000E+00 -0.19214610674E+03  0.19214610674E+03  0.00000000000E+00 0. -1.
         -6    2    1    2    0  503  0.10816245340E+03 -0.10373721757E+03 -0.68254368583E+02  0.23724083237E+03  0.17077478468E+03 0.  0.
        -24    2    3    3    0    0 -0.20635393639E+01 -0.98258096354E+01 -0.50003718573E+02  0.91212416491E+02  0.75620951602E+02 0.  0.
          6    2    1    2  501    0 -0.10816245340E+03  0.10373721757E+03  0.29245420539E+03  0.37125121790E+03  0.17273528276E+03 0.  0.
         24    2    5    5    0    0 -0.38180131177E+02  0.10819549954E+03  0.25642135998E+03  0.29227110870E+03  0.80662869970E+02 0.  0.
          5    1    5    5  501    0 -0.69982322219E+02 -0.44582819710E+01  0.36032845415E+02  0.78980109205E+02  0.47000000000E+01 0. -1.
        -11    1    6    6    0    0  0.27531003552E+01  0.12385029545E+02  0.11972792950E+03  0.12039827915E+03  0.00000000000E+00 0.  1.
         12    1    6    6    0    0 -0.40933231533E+02  0.95810469993E+02  0.13669343047E+03  0.17187282955E+03  0.00000000000E+00 0. -1.
         -5    1    3    3    0  503  0.11022599276E+03 -0.93911407932E+02 -0.18250650010E+02  0.14602841588E+03  0.47000000000E+01 0.  1.
         13    1    4    4    0    0  0.56944653684E+01 -0.10724727521E+02 -0.69320806056E+02  0.70376280581E+02  0.00000000000E+00 0. -1.
        -14    1    4    4    0    0 -0.77580047322E+01  0.89891788592E+00  0.19317087483E+02  0.20836135909E+02  0.00000000000E+00 0.  1.
</event>
<event>
12    1  0.8251070E-002  0.2092877E+03  0.7818608E-02  0.1142368E+00
         21   -1    0    0  501  502  0.00000000000E+00  0.00000000000E+00  0.10745323361E+03  0.10745323361E+03  0.00000000000E+00 0. -1.
         21   -1    0    0  502  503 -0.00000000000E+00 -0.00000000000E+00 -0.44145647129E+03  0.44145647129E+03  0.00000000000E+00 0. -1.
         -6    2    1    2    0  503 -0.13442352607E+02  0.11944805643E+03 -0.88920593888E+02  0.22739439362E+03  0.17132659807E+03 0.  0.
        -24    2    3    3    0    0  0.19392071198E+02  0.14574165727E+03 -0.63520226467E+02  0.17803123432E+03  0.77740710911E+02 0.  0.
          6    2    1    2  501    0  0.13442352607E+02 -0.11944805643E+03 -0.24508264379E+03  0.32151531127E+03  0.16987659659E+03 0.  0.
         24    2    5    5    0    0  0.71177958241E+02 -0.63034741983E+02 -0.17652747213E+03  0.21550699195E+03  0.79004017148E+02 0.  0.
          5    1    5    5  501    0 -0.57735605634E+02 -0.56413314447E+02 -0.68555171657E+02  0.10600831932E+03  0.47000000000E+01 0. -1.
        -11    1    6    6    0    0  0.55645754327E+02 -0.12143827600E+01 -0.11053382679E+03  0.12375642030E+03  0.00000000000E+00 0.  1.
         12    1    6    6    0    0  0.15532203914E+02 -0.61820359223E+02 -0.65993645344E+02  0.91750571653E+02  0.00000000000E+00 0. -1.
         -5    1    3    3    0  503 -0.32834423805E+02 -0.26293600840E+02 -0.25400367421E+02  0.49363159308E+02  0.47000000000E+01 0.  1.
         13    1    4    4    0    0  0.40698936658E+02  0.51844840260E+02 -0.67471731791E+01  0.66255680908E+02  0.00000000000E+00 0. -1.
        -14    1    4    4    0    0 -0.21306865460E+02  0.93896817009E+02 -0.56773053287E+02  0.11177555341E+03  0.00000000000E+00 0.  1.
</event>
<event>
12    1  0.8251070E-002  0.1905798E+03  0.7818608E-02  0.1157947E+00
         21   -1    0    0  503  502  0.00000000000E+00  0.00000000000E+00  0.16184826385E+03  0.16184826385E+03  0.00000000000E+00 0. -1.
         21   -1    0    0  501  503 -0.00000000000E+00 -0.00000000000E+00 -0.36744188454E+03  0.36744188454E+03  0.00000000000E+00 0. -1.
          6    2    1    2  501    0  0.77986889714E+02  0.24451698144E+02 -0.26793911463E+03  0.32880395484E+03  0.17216512731E+03 0.  0.
         24    2    3    3    0    0  0.77774982833E+01  0.64414952083E+02 -0.18900624121E+03  0.21576011902E+03  0.81359045059E+02 0.  0.
         -6    2    1    2    0  502 -0.77986889714E+02 -0.24451698144E+02  0.62345493944E+02  0.20048619354E+03  0.17212760579E+03 0.  0.
        -24    2    5    5    0    0 -0.36787637844E+02 -0.29570477599E+02 -0.29457129255E+02  0.99622959976E+02  0.82639386776E+02 0.  0.
          5    1    3    3  501    0  0.70209391431E+02 -0.39963253938E+02 -0.78932873423E+02  0.11304383582E+03  0.47000000000E+01 0. -1.
        -13    1    4    4    0    0  0.67305229266E+01  0.25862504187E+02 -0.42965902585E+01  0.27067134121E+02  0.00000000000E+00 0.  1.
         14    1    4    4    0    0  0.10469753567E+01  0.38552447895E+02 -0.18470965095E+03  0.18869298490E+03  0.00000000000E+00 0. -1.
         -5    1    5    5    0  502 -0.41199251870E+02  0.51187794545E+01  0.91802623200E+02  0.10086323356E+03  0.47000000000E+01 0.  1.
         13    1    6    6    0    0 -0.54868755062E+02 -0.38938519399E+02 -0.45278693403E+01  0.67433598271E+02  0.00000000000E+00 0. -1.
        -14    1    6    6    0    0  0.18081117218E+02  0.93680417999E+01 -0.24929259915E+02  0.32189361704E+02  0.00000000000E+00 0.  1.
</event>
<event>
12    1  0.8251070E-002  0.2630738E+03  0.7818608E-02  0.1106294E+00
         21   -1    0    0  501  502  0.00000000000E+00  0.00000000000E+00  0.11568778801E+04  0.11568778801E+04  0.00000000000E+00 0.  1.
         21   -1    0    0  502  503 -0.00000000000E+00 -0.00000000000E+00 -0.88126764596E+02  0.88126764596E+02  0.00000000000E+00 0. -1.
         -6    2    1    2    0  503 -0.16108266476E+03  0.11669328909E+03  0.17695799790E+03  0.31705195298E+03  0.17217101748E+03 0.  0.
        -24    2    3    3    0    0 -0.20889509575E+02  0.18837753460E+02  0.95909616958E+02  0.12778823044E+03  0.79623769374E+02 0.  0.
          6    2    1    2  501    0  0.16108266476E+03 -0.11669328909E+03  0.89179311765E+03  0.92795269177E+03  0.16197618612E+03 0.  0.
         24    2    5    5    0    0  0.16024697379E+02 -0.55063189262E+02  0.44704592785E+03  0.45608169675E+03  0.69797612898E+02 0.  0.
          5    1    5    5  501    0  0.14505796738E+03 -0.61630099824E+02  0.44474718980E+03  0.47187099502E+03  0.47000000000E+01 0. -1.
        -11    1    6    6    0    0  0.61640905001E+01 -0.55306529967E+01  0.30860640895E+03  0.30871750805E+03  0.00000000000E+00 0.  1.
         12    1    6    6    0    0  0.98606068788E+01 -0.49532536266E+02  0.13843951890E+03  0.14736418869E+03  0.00000000000E+00 0. -1.
         -5    1    3    3    0  503 -0.14019315518E+03  0.97855535627E+02  0.81048380947E+02  0.18926372253E+03  0.47000000000E+01 0.  1.
         13    1    4    4    0    0 -0.12409239539E+02 -0.26741974077E+01 -0.11976391402E+02  0.17452063165E+02  0.00000000000E+00 0. -1.
        -14    1    4    4    0    0 -0.84802700367E+01  0.21511950867E+02  0.10788600836E+03  0.11033616728E+03  0.00000000000E+00 0.  1.
</event>
<event>
12    1  0.8251070E-002  0.1840017E+03  0.7818608E-02  0.1164204E+00
         21   -1    0    0  501  502  0.00000000000E+00  0.00000000000E+00  0.15139902775E+03  0.15139902775E+03  0.00000000000E+00 0.  1.
         21   -1    0    0  502  503 -0.00000000000E+00 -0.00000000000E+00 -0.62012261450E+03  0.62012261450E+03  0.00000000000E+00 0.  1.
         -6    2    1    2    0  503 -0.68129281018E+02 -0.77234004897E+01 -0.54304735136E+03  0.57307604927E+03  0.16974829182E+03 0.  0.
        -24    2    3    3    0    0 -0.30922919413E+02 -0.12793070982E+02 -0.11708565292E+03  0.14543662938E+03  0.79516497882E+02 0.  0.
          6    2    1    2  501    0  0.68129281018E+02  0.77234004897E+01  0.74323764606E+02  0.19844559298E+03  0.17074947011E+03 0.  0.
         24    2    5    5    0    0  0.10365720635E+03  0.31165237077E+02  0.76749116836E+02  0.15555357141E+03  0.81181267616E+02 0.  0.
          5    1    5    5  501    0 -0.35527925337E+02 -0.23441836587E+02 -0.24253522303E+01  0.42892021575E+02  0.47000000000E+01 0. -1.
        -11    1    6    6    0    0  0.75876317457E+02  0.10868668327E+02  0.90414916391E+02  0.11853354212E+03  0.00000000000E+00 0.  1.
         12    1    6    6    0    0  0.27780888898E+02  0.20296568750E+02 -0.13665799555E+02  0.37020029287E+02  0.00000000000E+00 0. -1.
         -5    1    3    3    0  503 -0.37206361605E+02  0.50696704922E+01 -0.42596169844E+03  0.42763941988E+03  0.47000000000E+01 0.  1.
         11    1    4    4    0    0 -0.41821792069E+02 -0.38490393960E+02 -0.65020421978E+02  0.86361032840E+02  0.00000000000E+00 0. -1.
        -12    1    4    4    0    0  0.10898872656E+02  0.25697322978E+02 -0.52065230944E+02  0.59075596540E+02  0.00000000000E+00 0.  1.
</event>
<event>
12    1  0.8251070E-002  0.2137775E+03  0.7818608E-02  0.1138878E+00
         21   -1    0    0  503  502  0.00000000000E+00  0.00000000000E+00  0.98795968054E+03  0.98795968054E+03  0.00000000000E+00 0.  1.
         21   -1    0    0  501  503 -0.00000000000E+00 -0.00000000000E+00 -0.47987962259E+02  0.47987962259E+02  0.00000000000E+00 0. -1.
          6    2    1    2  501    0 -0.11479824280E+03 -0.48924908423E+02  0.57796575964E+03  0.61623473599E+03  0.17357576824E+03 0.  0.
         24    2    3    3    0    0 -0.54251567839E+01 -0.42045509655E+02  0.37183011476E+03  0.38273143375E+03  0.80177671000E+02 0.  0.
         -6    2    1    2    0  502  0.11479824280E+03  0.48924908423E+02  0.36200595864E+03  0.41971290680E+03  0.17186717788E+03 0.  0.
        -24    2    5    5    0    0  0.87822214742E+02 -0.70067729678E+01  0.11522936125E+03  0.16519996393E+03  0.79065707591E+02 0.  0.
          5    1    3    3  501    0 -0.10937308601E+03 -0.68793987678E+01  0.20613564487E+03  0.23350330224E+03  0.47000000000E+01 0. -1.
        -11    1    4    4    0    0 -0.59329139320E+01 -0.49295500651E+02  0.37215877612E+03  0.37545625643E+03  0.00000000000E+00 0.  1.
         12    1    4    4    0    0  0.50775714810E+00  0.72499909954E+01 -0.32866135257E+00  0.72751773201E+01  0.00000000000E+00 0. -1.
         -5    1    5    5    0  502  0.26976028055E+02  0.55931681391E+02  0.24677659739E+03  0.25451294287E+03  0.47000000000E+01 0.  1.
         11    1    6    6    0    0  0.26119864414E+02  0.31442807450E+02  0.20329862029E+02  0.45653047516E+02  0.00000000000E+00 0. -1.
        -12    1    6    6    0    0  0.61702350328E+02 -0.38449580418E+02  0.94899499223E+02  0.11954691641E+03  0.00000000000E+00 0.  1.
</event>
<event>
12    1  0.8251070E-002  0.2120539E+03  0.7818608E-02  0.1140043E+00
         21   -1    0    0  503  502  0.00000000000E+00  0.00000000000E+00  0.76719517792E+02  0.76719517792E+02  0.00000000000E+00 0. -1.
         21   -1    0    0  501  503 -0.00000000000E+00 -0.00000000000E+00 -0.59080462202E+03  0.59080462202E+03  0.00000000000E+00 0.  1.
          6    2    1    2  501    0  0.12286247304E+03 -0.22870773755E+02 -0.22369660752E+03  0.30823213072E+03  0.17131437366E+03 0.  0.
         24    2    3    3    0    0  0.78680800130E+01 -0.42688636036E+02 -0.70990556975E+02  0.11598831167E+03  0.80804720991E+02 0.  0.
         -6    2    1    2    0  502 -0.12286247304E+03  0.22870773755E+02 -0.29038849671E+03  0.35929200909E+03  0.17072495190E+03 0.  0.
        -24    2    5    5    0    0 -0.14178735071E+03  0.10398316690E+02 -0.29330905258E+03  0.33596106768E+03  0.81411675209E+02 0.  0.
          5    1    3    3  501    0  0.11499439302E+03  0.19817862281E+02 -0.15270605054E+03  0.19224381905E+03  0.47000000000E+01 0. -1.
        -11    1    4    4    0    0  0.22610437215E+01 -0.11256066170E+02 -0.81553493606E+02  0.82357656982E+02  0.00000000000E+00 0.  1.
         12    1    4    4    0    0  0.56070362915E+01 -0.31432569866E+02  0.10562936631E+02  0.33630654686E+02  0.00000000000E+00 0. -1.
         -5    1    5    5    0  502  0.18924877674E+02  0.12472457064E+02  0.29205558734E+01  0.23330941404E+02  0.47000000000E+01 0.  1.
         13    1    6    6    0    0 -0.47556275494E+02  0.59707687013E+01 -0.30690970537E+02  0.56913839181E+02  0.00000000000E+00 0. -1.
        -14    1    6    6    0    0 -0.94231075217E+02  0.44275479890E+01 -0.26261808205E+03  0.27904722850E+03  0.00000000000E+00 0.  1.
</event>
<event>
12    1  0.8251070E-002  0.2272313E+03  0.7818608E-02  0.1128636E+00
         21   -1    0    0  501  502  0.00000000000E+00  0.00000000000E+00  0.93535882292E+03  0.93535882292E+03  0.00000000000E+00 0. -1.
         21   -1    0    0  502  503 -0.00000000000E+00 -0.00000000000E+00 -0.98712691390E+02  0.98712691390E+02  0.00000000000E+00 0. -1.
         -6    2    1    2    0  503  0.95260785969E+02  0.11316849239E+03  0.74977133958E+02  0.23928153101E+03  0.17248871109E+03 0.  0.
        -24    2    3    3    0    0  0.11450351509E+03  0.11607726138E+03  0.21978949069E+02  0.18262783596E+03  0.79277151111E+02 0.  0.
          6    2    1    2  501    0 -0.95260785969E+02 -0.11316849239E+03  0.76166899757E+03  0.79478998330E+03  0.17224903679E+03 0.  0.
         24    2    5    5    0    0 -0.77230513145E+02 -0.12157443478E+02  0.27319844333E+03  0.29563680530E+03  0.81555966177E+02 0.  0.
          5    1    5    5  501    0 -0.18030272825E+02 -0.10101104891E+03  0.48847055425E+03  0.49915317800E+03  0.47000000000E+01 0. -1.
        -13    1    6    6    0    0 -0.60964623989E+02 -0.17359168982E+02  0.81836834462E+02  0.10351470234E+03  0.00000000000E+00 0.  1.
         14    1    6    6    0    0 -0.16265889156E+02  0.52017255045E+01  0.19136160886E+03  0.19212210296E+03  0.00000000000E+00 0. -1.
         -5    1    3    3    0  503 -0.19242729122E+02 -0.29087689977E+01  0.52998184888E+02  0.56653695048E+02  0.47000000000E+01 0.  1.
         13    1    4    4    0    0  0.60126864651E+02  0.43561279110E+02  0.47896156720E+02  0.88356475252E+02  0.00000000000E+00 0. -1.
        -14    1    4    4    0    0  0.54376650440E+02  0.72515982273E+02 -0.25917207650E+02  0.94271360712E+02  0.00000000000E+00 0.  1.
</event>
<event>
12    1  0.8251070E-002  0.1896365E+03  0.7818608E-02  0.1159353E+00
         21   -1    0    0  501  502  0.00000000000E+00  0.00000000000E+00  0.72486351681E+03  0.72486351681E+03  0.00000000000E+00 0.  1.
         21   -1    0    0  502  503 -0.00000000000E+00 -0.00000000000E+00 -0.55849886628E+02  0.55849886628E+02  0.00000000000E+00 0.  1.
         -6    2    1    2    0  503 -0.31592194529E+02 -0.72532148081E+02  0.19939367944E+03  0.27517238161E+03  0.17234564381E+03 0.  0.
        -24    2    3    3    0    0  0.36957414015E+02 -0.82886547205E+02  0.13114478432E+03  0.17777492734E+03  0.78542601048E+02 0.  0.
          6    2    1    2  501    0  0.31592194529E+02  0.72532148081E+02  0.46961995075E+03  0.50554102183E+03  0.16961676613E+03 0.  0.
         24    2    5    5    0    0  0.48080125930E+01  0.10334416548E+03  0.42161516155E+03  0.44234828012E+03  0.84908909761E+02 0.  0.
          5    1    5    5  501    0  0.26784181936E+02 -0.30812017403E+02  0.48004789203E+02  0.63192741711E+02  0.47000000000E+01 0. -1.
        -11    1    6    6    0    0 -0.29845451952E+02  0.69623645122E+02  0.33188045799E+03  0.34041568906E+03  0.00000000000E+00 0.  1.
         12    1    6    6    0    0  0.34653464545E+02  0.33720520361E+02  0.89734703557E+02  0.10193259106E+03  0.00000000000E+00 0. -1.
         -5    1    3    3    0  503 -0.68549608545E+02  0.10354399124E+02  0.68248895120E+02  0.97397454268E+02  0.47000000000E+01 0.  1.
         13    1    4    4    0    0  0.73444991197E+01 -0.94444663460E+01  0.85583631764E+02  0.86415841359E+02  0.00000000000E+00 0. -1.
        -14    1    4    4    0    0  0.29612914896E+02 -0.73442080859E+02  0.45561152552E+02  0.91359085982E+02  0.00000000000E+00 0.  1.
</event>
<event>
12    1  0.8251070E-002  0.2038377E+03  0.7818608E-02  0.1147683E+00
         21   -1    0    0  501  502  0.00000000000E+00  0.00000000000E+00  0.59426599161E+02  0.59426599161E+02  0.00000000000E+00 0.  1.
         21   -1    0    0  502  503 -0.00000000000E+00 -0.00000000000E+00 -0.91270500024E+03  0.91270500024E+03  0.00000000000E+00 0.  1.
         -6    2    1    2    0  503  0.82655296652E+02  0.50459487464E+02 -0.67609427637E+03  0.70615385103E+03  0.17936480382E+03 0.  0.
        -24    2    3    3    0    0  0.70770867998E+02 -0.15993069527E+02 -0.22138760667E+03  0.24643934458E+03  0.80346649831E+02 0.  0.
          6    2    1    2  501    0 -0.82655296652E+02 -0.50459487464E+02 -0.17718412471E+03  0.26597774837E+03  0.17312391700E+03 0.  0.
         24    2    5    5    0    0 -0.47679363619E+02 -0.46986313925E+02 -0.10194698736E+02  0.95264722465E+02  0.67010447339E+02 0.  0.
          5    1    5    5  501    0 -0.34975933033E+02 -0.34731735386E+01 -0.16698942597E+03  0.17071302590E+03  0.47000000000E+01 0. -1.
        -13    1    6    6    0    0 -0.50213973801E+02 -0.35798756670E+02 -0.32849055154E+02  0.69871700770E+02  0.00000000000E+00 0.  1.
         14    1    6    6    0    0  0.25346101814E+01 -0.11187557255E+02  0.22654356418E+02  0.25393021695E+02  0.00000000000E+00 0. -1.
         -5    1    3    3    0  503  0.11884428654E+02  0.66452556991E+02 -0.45470666970E+03  0.45971450645E+03  0.47000000000E+01 0.  1.
         11    1    4    4    0    0 -0.29479133282E+01 -0.28008371942E+02 -0.10020519631E+03  0.10408765757E+03  0.00000000000E+00 0. -1.
        -12    1    4    4    0    0  0.73718781326E+02  0.12015302414E+02 -0.12118241037E+03  0.14235168701E+03  0.00000000000E+00 0.  1.
</event>
<event>
12    1  0.8251070E-002  0.1972154E+03  0.7818608E-02  0.1152211E+00
         21   -1    0    0  501  502  0.00000000000E+00  0.00000000000E+00  0.38866569052E+03  0.38866569052E+03  0.00000000000E+00 0. -1.
         21   -1    0    0  502  503 -0.00000000000E+00 -0.00000000000E+00 -0.12356659291E+03  0.12356659291E+03  0.00000000000E+00 0. -1.
         -6    2    1    2    0  503  0.33689884284E+02 -0.89509160641E+02  0.20174927661E+02  0.19777759382E+03  0.17193618226E+03 0.  0.
        -24    2    3    3    0    0  0.77825174802E+02 -0.75242953530E+02 -0.20030361054E+02  0.13621458727E+03  0.80218068618E+02 0.  0.
          6    2    1    2  501    0 -0.33689884284E+02  0.89509160641E+02  0.24492416995E+03  0.31445468961E+03  0.17247319980E+03 0.  0.
         24    2    5    5    0    0  0.35218578600E+02  0.10173650349E+02  0.14217776937E+03  0.16741247702E+03  0.80427407768E+02 0.  0.
          5    1    5    5  501    0 -0.68908462884E+02  0.79335510293E+02  0.10274640058E+03  0.14704221259E+03  0.47000000000E+01 0. -1.
        -11    1    6    6    0    0  0.53582412385E+02  0.82699795738E+01  0.51169918658E+02  0.74550842078E+02  0.00000000000E+00 0.  1.
         12    1    6    6    0    0 -0.18363833785E+02  0.19036707749E+01  0.91007850708E+02  0.92861634942E+02  0.00000000000E+00 0. -1.
         -5    1    3    3    0  503 -0.44135290518E+02 -0.14266207112E+02  0.40205288715E+02  0.61563006547E+02  0.47000000000E+01 0.  1.
         13    1    4    4    0    0  0.51963334655E+02 -0.55750932280E+02  0.25478962316E+02  0.80358771266E+02  0.00000000000E+00 0. -1.
        -14    1    4    4    0    0  0.25861840147E+02 -0.19492021249E+02 -0.45509323370E+02  0.55855816006E+02  0.00000000000E+00 0.  1.
</event>
<event>
12    1  0.8251070E-002  0.2081559E+03  0.7818608E-02  0.1143276E+00
         21   -1    0    0  503  502  0.00000000000E+00  0.00000000000E+00  0.36335485458E+03  0.36335485458E+03  0.00000000000E+00 0.  1.
         21   -1    0    0  501  503 -0.00000000000E+00 -0.00000000000E+00 -0.28198163964E+03  0.28198163964E+03  0.00000000000E+00 0. -1.
          6    2    1    2  501    0 -0.27002222711E+02  0.11219053437E+03 -0.20490499153E+03  0.29208723233E+03  0.17324277678E+03 0.  0.
         24    2    3    3    0    0 -0.15186696213E+02 -0.13417468224E+02 -0.73995991146E+02  0.11021850670E+03  0.79133105074E+02 0.  0.
         -6    2    1    2    0  502  0.27002222711E+02 -0.11219053437E+03  0.28627820647E+03  0.35324926189E+03  0.17179637218E+03 0.  0.
        -24    2    5    5    0    0  0.36980150525E+01 -0.48075822859E+02  0.26576899284E+03  0.28185948552E+03  0.80539753933E+02 0.  0.
          5    1    3    3  501    0 -0.11815526498E+02  0.12560800259E+03 -0.13090900038E+03  0.18186872563E+03  0.47000000000E+01 0. -1.
        -11    1    4    4    0    0 -0.24825720246E+02  0.19022275438E+01  0.80751292829E+01  0.26175228142E+02  0.00000000000E+00 0.  1.
         12    1    4    4    0    0  0.96390240329E+01 -0.15319695767E+02 -0.82071120429E+02  0.84043278560E+02  0.00000000000E+00 0. -1.
         -5    1    5    5    0  502  0.23304207659E+02 -0.64114711511E+02  0.20509213631E+02  0.71389776372E+02  0.47000000000E+01 0.  1.
         11    1    6    6    0    0  0.31455851990E+02  0.68243092662E+01  0.99348518002E+02  0.10443260913E+03  0.00000000000E+00 0. -1.
        -12    1    6    6    0    0 -0.27757836937E+02 -0.54900132125E+02  0.16642047484E+03  0.17742687638E+03  0.00000000000E+00 0.  1.
</event>
<event>
12    1  0.8251070E-002  0.2060214E+03  0.7818608E-02  0.1144895E+00
         21   -1    0    0  501  502  0.00000000000E+00  0.00000000000E+00  0.38670299771E+02  0.38670299771E+02  0.00000000000E+00 0.  1.
         21   -1    0    0  502  503 -0.00000000000E+00 -0.00000000000E+00 -0.11117315060E+04  0.11117315060E+04  0.00000000000E+00 0.  1.
         -6    2    1    2    0  503 -0.76534242469E+02  0.81437627574E+02 -0.61011328672E+03  0.64395887599E+03  0.17307580386E+03 0.  0.
        -24    2    3    3    0    0 -0.31669139657E+02 -0.23540728727E+02 -0.19530711075E+03  0.21370361877E+03  0.77248099340E+02 0.  0.
          6    2    1    2  501    0  0.76534242469E+02 -0.81437627574E+02 -0.46294791949E+03  0.50644292976E+03  0.17226168317E+03 0.  0.
         24    2    5    5    0    0  0.31402552751E+02  0.79919615484E+01 -0.10995226186E+03  0.13947897358E+03  0.79466297350E+02 0.  0.
          5    1    5    5  501    0  0.45131689718E+02 -0.89429589122E+02 -0.35299565763E+03  0.36696395618E+03  0.47000000000E+01 0. -1.
        -11    1    6    6    0    0  0.38521548391E+02 -0.69509850367E+01 -0.13182458401E+02  0.41303790297E+02  0.00000000000E+00 0.  1.
         12    1    6    6    0    0 -0.71189956394E+01  0.14942946585E+02 -0.96769803456E+02  0.98175183282E+02  0.00000000000E+00 0. -1.
         -5    1    3    3    0  503 -0.44865102812E+02  0.10497835630E+03 -0.41480617597E+03  0.43025525722E+03  0.47000000000E+01 0.  1.
         11    1    4    4    0    0  0.72235332501E+01 -0.21168328599E+02 -0.10276407322E+02  0.24614672774E+02  0.00000000000E+00 0. -1.
        -12    1    4    4    0    0 -0.38892672907E+02 -0.23724001276E+01 -0.18503070342E+03  0.18908894600E+03  0.00000000000E+00 0.  1.
</event>
<event>
12    1  0.8251070E-002  0.2075727E+03  0.7818608E-02  0.1143904E+00
         21   -1    0    0  503  502  0.00000000000E+00  0.00000000000E+00  0.23406623167E+03  0.23406623167E+03  0.00000000000E+00 0. -1.
         21   -1    0    0  501  503 -0.00000000000E+00 -0.00000000000E+00 -0.21286779916E+03  0.21286779916E+03  0.00000000000E+00 0.  1.
          6    2    1    2  501    0 -0.10681762319E+03 -0.46316855402E+02 -0.74006795724E+02  0.22037108702E+03  0.17184631059E+03 0.  0.
         24    2    3    3    0    0 -0.10623327413E+03 -0.91760285241E+02 -0.53309729082E+02  0.17021228573E+03  0.80155077934E+02 0.  0.
         -6    2    1    2    0  502  0.10681762319E+03  0.46316855402E+02  0.95205228235E+02  0.22656294381E+03  0.16944461133E+03 0.  0.
        -24    2    5    5    0    0  0.15464198880E+02  0.16396654808E+02  0.99790822380E+02  0.13021054784E+03  0.80551764726E+02 0.  0.
          5    1    3    3  501    0 -0.58434906417E+00  0.45443429840E+02 -0.20697066642E+02  0.50158801292E+02  0.47000000000E+01 0. -1.
        -11    1    4    4    0    0 -0.34455826980E+01 -0.42951763903E+02 -0.33799493119E+02  0.54764329610E+02  0.00000000000E+00 0.  1.
         12    1    4    4    0    0 -0.10278769143E+03 -0.48808521338E+02 -0.19510235963E+02  0.11544795612E+03  0.00000000000E+00 0. -1.
         -5    1    5    5    0  502  0.91353424311E+02  0.29920200593E+02 -0.45855941448E+01  0.96352395978E+02  0.47000000000E+01 0.  1.
         11    1    6    6    0    0  0.12265367422E+02  0.48006107391E+02  0.75104527035E+02  0.89976194441E+02  0.00000000000E+00 0. -1.
        -12    1    6    6    0    0  0.31988314584E+01 -0.31609452583E+02  0.24686295345E+02  0.40234353395E+02  0.00000000000E+00 0.  1.
</event>
<event>
12    1  0.8251070E-002  0.1967432E+03  0.7818608E-02  0.1152848E+00
         21   -1    0    0  501  502  0.00000000000E+00  0.00000000000E+00  0.25957104191E+03  0.25957104191E+03  0.00000000000E+00 0.  1.
         21   -1    0    0  502  503 -0.00000000000E+00 -0.00000000000E+00 -0.41586337244E+03  0.41586337244E+03  0.00000000000E+00 0.  1.
         -6    2    1    2    0  503 -0.35739458797E+02 -0.86616366212E+02 -0.34909637341E+03  0.39996880544E+03  0.17125146300E+03 0.  0.
        -24    2    3    3    0    0 -0.90369318545E+02 -0.47991428078E+02 -0.23775333364E+03  0.26998546063E+03  0.76783529417E+02 0.  0.
          6    2    1    2  501    0  0.35739458797E+02  0.86616366212E+02  0.19280404288E+03  0.27546560891E+03  0.17299768476E+03 0.  0.
         24    2    5    5    0    0 -0.18930968579E+02  0.19615025683E+02  0.28721632806E+02  0.89930807438E+02  0.80743341097E+02 0.  0.
          5    1    5    5  501    0  0.54670427376E+02  0.67001340529E+02  0.16408241007E+03  0.18553480147E+03  0.47000000000E+01 0. -1.
        -11    1    6    6    0    0  0.10737095855E+01 -0.30884347031E+02  0.10246907821E+02  0.32557562312E+02  0.00000000000E+00 0.  1.
         12    1    6    6    0    0 -0.20004678165E+02  0.50499372714E+02  0.18474724985E+02  0.57373245125E+02  0.00000000000E+00 0. -1.
         -5    1    3    3    0  503  0.54629859748E+02 -0.38624938134E+02 -0.11134303977E+03  0.12998334481E+03  0.47000000000E+01 0.  1.
         13    1    4    4    0    0  0.66247137922E+01  0.11342728213E+02 -0.15356424097E+02  0.20208020120E+02  0.00000000000E+00 0. -1.
        -14    1    4    4    0    0 -0.96994032337E+02 -0.59334156290E+02 -0.22239690954E+03  0.24977744051E+03  0.00000000000E+00 0.  1.
</event>
<event>
12    1  0.8251070E-002  0.2140589E+03  0.7818608E-02  0.1138394E+00
         21   -1    0    0  503  502  0.00000000000E+00  0.00000000000E+00  0.23566752346E+03  0.23566752346E+03  0.00000000000E+00 0.  1.
         21   -1    0    0  501  503 -0.00000000000E+00 -0.00000000000E+00 -0.19446796006E+03  0.19446796006E+03  0.00000000000E+00 0. -1.
          6    2    1    2  501    0  0.78516194104E+02  0.99943283290E+02  0.23997142513E+02  0.21539979406E+03  0.17224330413E+03 0.  0.
         24    2    3    3    0    0  0.11958725652E+03  0.53060168179E+02  0.34567176689E+02  0.15200677967E+03  0.69243613380E+02 0.  0.
         -6    2    1    2    0  502 -0.78516194104E+02 -0.99943283290E+02  0.17202420891E+02  0.21473568946E+03  0.17222671231E+03 0.  0.
        -24    2    5    5    0    0 -0.11792635669E+03 -0.73189675225E+02  0.33224142353E+02  0.16426092331E+03  0.81329288257E+02 0.  0.
          5    1    3    3  501    0 -0.41071062411E+02  0.46883115112E+02 -0.10570034176E+02  0.63393014384E+02  0.47000000000E+01 0. -1.
        -13    1    4    4    0    0  0.14591834807E+02 -0.14163972117E+02  0.16177788314E+02  0.25985776569E+02  0.00000000000E+00 0.  1.
         14    1    4    4    0    0  0.10499542171E+03  0.67224140296E+02  0.18389388376E+02  0.12602100310E+03  0.00000000000E+00 0. -1.
         -5    1    5    5    0  502  0.39410162589E+02 -0.26753608065E+02 -0.16021721462E+02  0.50474766156E+02  0.47000000000E+01 0.  1.
         13    1    6    6    0    0  0.11039438653E+02 -0.60540429976E+01 -0.55895397545E+01  0.13775470847E+02  0.00000000000E+00 0. -1.
        -14    1    6    6    0    0 -0.12896579535E+03 -0.67135632227E+02  0.38813682108E+02  0.15048545246E+03  0.00000000000E+00 0.  1.
</event>
<event>
12    1  0.8251070E-002  0.1755416E+03  0.7818608E-02  0.1172230E+00
         21   -1    0    0  501  502  0.00000000000E+00  0.00000000000E+00  0.35780534444E+03  0.35780534444E+03  0.00000000000E+00 0. -1.
         21   -1    0    0  502  503 -0.00000000000E+00 -0.00000000000E+00 -0.90562248363E+02  0.90562248363E+02  0.00000000000E+00 0. -1.
         -6    2    1    2    0  503  0.13232529284E+02  0.28680895431E+02  0.83470030780E+02  0.19422706204E+03  0.17250858528E+03 0.  0.
        -24    2    3    3    0    0 -0.24286416755E+02 -0.28773706503E+01  0.11016366885E+03  0.13820710325E+03  0.79793860371E+02 0.  0.
          6    2    1    2  501    0 -0.13232529284E+02 -0.28680895431E+02  0.18377306530E+03  0.25414053077E+03  0.17267650753E+03 0.  0.
         24    2    5    5    0    0  0.35590532492E+02  0.15211910885E+02  0.16180532117E+03  0.18475075061E+03  0.80335481934E+02 0.  0.
          5    1    5    5  501    0 -0.48823061776E+02 -0.43892806316E+02  0.21967744131E+02  0.69389780153E+02  0.47000000000E+01 0. -1.
        -11    1    6    6    0    0 -0.13639089675E+02  0.28354345644E+01  0.11456309574E+03  0.11540696410E+03  0.00000000000E+00 0.  1.
         12    1    6    6    0    0  0.49229622167E+02  0.12376476320E+02  0.47242225426E+02  0.69343786513E+02  0.00000000000E+00 0. -1.
         -5    1    3    3    0  503  0.37518946039E+02  0.31558266081E+02 -0.26693638068E+02  0.56019958794E+02  0.47000000000E+01 0.  1.
         11    1    4    4    0    0 -0.32182985477E+02  0.15697071996E+02  0.11661075656E+02  0.37657978025E+02  0.00000000000E+00 0. -1.
        -12    1    4    4    0    0  0.78965687223E+01 -0.18574442647E+02  0.98502593191E+02  0.10054912522E+03  0.00000000000E+00 0.  1.
</event>
<event>
12    1  0.8251070E-002  0.2157892E+03  0.7818608E-02  0.1138835E+00
         21   -1    0    0  503  502  0.00000000000E+00  0.00000000000E+00  0.13198239961E+04  0.13198239961E+04  0.00000000000E+00 0.  1.
         21   -1    0    0  501  503 -0.00000000000E+00 -0.00000000000E+00 -0.33876123048E+02  0.33876123048E+02  0.00000000000E+00 0.  1.
          6    2    1    2  501    0  0.77683006718E+02 -0.83915295735E+02  0.62777819214E+03  0.66383011315E+03  0.18299872734E+03 0.  0.
         24    2    3    3    0    0  0.12604938213E+03 -0.70535412397E+02  0.48316100570E+03  0.51068133528E+03  0.80543017308E+02 0.  0.
         -6    2    1    2    0  502 -0.77683006718E+02  0.83915295735E+02  0.65816968093E+03  0.68987000601E+03  0.17221170086E+03 0.  0.
        -24    2    5    5    0    0 -0.10673672856E+02  0.16005166338E+01  0.42935793568E+03  0.43759460402E+03  0.83811166310E+02 0.  0.
          5    1    3    3  501    0 -0.48366375415E+02 -0.13379883338E+02  0.14461718644E+03  0.15314877787E+03  0.47000000000E+01 0. -1.
        -13    1    4    4    0    0  0.11763952378E+03 -0.34721592203E+02  0.42045432462E+03  0.43798000595E+03  0.00000000000E+00 0.  1.
         14    1    4    4    0    0  0.84098583524E+01 -0.35813820194E+02  0.62706681082E+02  0.72701329333E+02  0.00000000000E+00 0. -1.
         -5    1    5    5    0  502 -0.67009333861E+02  0.82314779101E+02  0.22881174525E+03  0.25227540199E+03  0.47000000000E+01 0.  1.
         11    1    6    6    0    0 -0.19219350907E+02  0.39782336037E+02  0.26394256208E+03  0.26761482356E+03  0.00000000000E+00 0. -1.
        -12    1    6    6    0    0  0.85456780503E+01 -0.38181819403E+02  0.16541537359E+03  0.16997978047E+03  0.00000000000E+00 0.  1.
</event>
<event>
12    1  0.8251070E-002  0.1939067E+03  0.7818608E-02  0.1156240E+00
         21   -1    0    0  501  502  0.00000000000E+00  0.00000000000E+00  0.96181962281E+02  0.96181962281E+02  0.00000000000E+00 0.  1.
         21   -1    0    0  502  503 -0.00000000000E+00 -0.00000000000E+00 -0.66133784961E+03  0.66133784961E+03  0.00000000000E+00 0.  1.
         -6    2    1    2    0  503  0.52129935709E+02 -0.72881895509E+02 -0.53214335757E+03  0.56637122010E+03  0.17196076606E+03 0.  0.
        -24    2    3    3    0    0  0.62179075680E+02 -0.11344726504E+03 -0.43986445868E+03  0.46496106479E+03  0.77275677689E+02 0.  0.
          6    2    1    2  501    0 -0.52129935709E+02  0.72881895509E+02 -0.33012529760E+02  0.19114859179E+03  0.16558579689E+03 0.  0.
         24    2    5    5    0    0 -0.52485206338E+02  0.49341194141E+02  0.40609139434E+02  0.11371132032E+03  0.78050700443E+02 0.  0.
          5    1    5    5  501    0  0.35527062864E+00  0.23540701368E+02 -0.73621669195E+02  0.77437271473E+02  0.47000000000E+01 0. -1.
        -13    1    6    6    0    0 -0.64986170402E+02  0.46916818907E+02  0.52882307225E+02  0.96025666659E+02  0.00000000000E+00 0.  1.
         14    1    6    6    0    0  0.12500964064E+02  0.24243752343E+01 -0.12273167790E+02  0.17685653661E+02  0.00000000000E+00 0. -1.
         -5    1    3    3    0  503 -0.10049139971E+02  0.40565369535E+02 -0.92278898884E+02  0.10141015531E+03  0.47000000000E+01 0.  1.
         11    1    4    4    0    0 -0.14984003001E+02 -0.43878228635E+02 -0.15246308789E+03  0.15935749892E+03  0.00000000000E+00 0. -1.
        -12    1    4    4    0    0  0.77163078682E+02 -0.69569036410E+02 -0.28740137079E+03  0.30560356587E+03  0.00000000000E+00 0.  1.
</event>
<event>
12    1  0.8251070E-002  0.1904409E+03  0.7818608E-02  0.1159957E+00
         21   -1    0    0  503  502  0.00000000000E+00  0.00000000000E+00  0.60167267136E+03  0.60167267136E+03  0.00000000000E+00 0. -1.
         21   -1    0    0  501  503 -0.00000000000E+00 -0.00000000000E+00 -0.11424075690E+03  0.11424075690E+03  0.00000000000E+00 0. -1.
          6    2    1    2  501    0  0.54544378729E+02 -0.28788499156E+02 -0.10785934401E+02  0.18253853558E+03  0.17146461342E+03 0.  0.
         24    2    3    3    0    0  0.55569234906E+02 -0.41779114163E+02  0.51549049135E+02  0.11868286566E+03  0.81208890440E+02 0.  0.
         -6    2    1    2    0  502 -0.54544378729E+02  0.28788499156E+02  0.49821784887E+03  0.53337489268E+03  0.18017736895E+03 0.  0.
        -24    2    5    5    0    0 -0.10529733468E+03  0.82387334475E+01  0.39418949017E+03  0.41572224791E+03  0.79273121734E+02 0.  0.
          5    1    3    3  501    0 -0.10248561767E+01  0.12990615007E+02 -0.62334983536E+02  0.63855669919E+02  0.47000000000E+01 0. -1.
        -13    1    4    4    0    0  0.47284204750E+02 -0.28680131552E+02 -0.91341731940E+01  0.56051575219E+02  0.00000000000E+00 0.  1.
         14    1    4    4    0    0  0.82850301561E+01 -0.13098982612E+02  0.60683222329E+02  0.62631290442E+02  0.00000000000E+00 0. -1.
         -5    1    5    5    0  502  0.50752955950E+02  0.20549765709E+02  0.10402835869E+03  0.11765264477E+03  0.47000000000E+01 0.  1.
         13    1    6    6    0    0 -0.47663545598E+02  0.12977946860E+02  0.30796272395E+03  0.31189947103E+03  0.00000000000E+00 0. -1.
        -14    1    6    6    0    0 -0.57633789080E+02 -0.47392134126E+01  0.86226766218E+02  0.10382277688E+03  0.00000000000E+00 0.  1.
</event>
<event>
12    1  0.8251070E-002  0.1759046E+03  0.7818608E-02  0.1172170E+00
         21   -1    0    0  501  502  0.00000000000E+00  0.00000000000E+00  0.46183350155E+03  0.46183350155E+03  0.00000000000E+00 0. -1.
         21   -1    0    0  502  503 -0.00000000000E+00 -0.00000000000E+00 -0.75992261668E+02  0.75992261668E+02  0.00000000000E+00 0. -1.
         -6    2    1    2    0  503 -0.30073744864E+02  0.19624709419E+02  0.28741032326E+03  0.33625427744E+03  0.17080013417E+03 0.  0.
        -24    2    3    3    0    0  0.89142277966E+01  0.54503205299E+02  0.97225999523E+02  0.13895060671E+03  0.82488261457E+02 0.  0.
          6    2    1    2  501    0  0.30073744864E+02 -0.19624709419E+02  0.98430916619E+02  0.20157148577E+03  0.17220005569E+03 0.  0.
         24    2    5    5    0    0  0.48488204354E+02 -0.73409192792E+02  0.70792875649E+02  0.13818525479E+03  0.79646204240E+02 0.  0.
          5    1    5    5  501    0 -0.18414459490E+02  0.53784483373E+02  0.27638040970E+02  0.63386230986E+02  0.47000000000E+01 0. -1.
        -11    1    6    6    0    0 -0.11768052701E+02  0.10220849033E+02  0.86841099813E+01  0.17842830086E+02  0.00000000000E+00 0.  1.
         12    1    6    6    0    0  0.60256257054E+02 -0.83630041825E+02  0.62108765668E+02  0.12034242470E+03  0.00000000000E+00 0. -1.
         -5    1    3    3    0  503 -0.38987972660E+02 -0.34878495880E+02  0.19018432374E+03  0.19730367073E+03  0.47000000000E+01 0.  1.
         13    1    4    4    0    0 -0.23318054813E+02  0.40700260607E+02  0.14493954070E+02  0.49094985471E+02  0.00000000000E+00 0. -1.
        -14    1    4    4    0    0  0.32232282610E+02  0.13802944691E+02  0.82732045453E+02  0.89855621244E+02  0.00000000000E+00 0.  1.
</event>
<event>
12    1  0.8251070E-002  0.1733299E+03  0.7818608E-02  0.1174437E+00
         21   -1    0    0  503  502  0.00000000000E+00  0.00000000000E+00  0.21640234971E+03  0.21640234971E+03  0.00000000000E+00 0. -1.
         21   -1    0    0  501  503 -0.00000000000E+00 -0.00000000000E+00 -0.20594984568E+03  0.20594984568E+03  0.00000000000E+00 0. -1.
          6    2    1    2  501    0  0.15156331017E+02 -0.17732486539E+02 -0.11537838103E+03  0.20821962574E+03  0.17175298042E+03 0.  0.
         24    2    3    3    0    0 -0.55329671081E+02 -0.25210103139E+02 -0.82219356240E+02  0.12982445900E+03  0.79984034735E+02 0.  0.
         -6    2    1    2    0  502 -0.15156331017E+02  0.17732486539E+02  0.12583088506E+03  0.21413256966E+03  0.17168340137E+03 0.  0.
        -24    2    5    5    0    0  0.34727481386E+02  0.45803360685E+02  0.12011817826E+03  0.15641694150E+03  0.82060569245E+02 0.  0.
          5    1    3    3  501    0  0.70486002098E+02  0.74776165998E+01 -0.33159024793E+02  0.78395166733E+02  0.47000000000E+01 0. -1.
        -11    1    4    4    0    0 -0.35218444334E+02 -0.13537618092E+02  0.63431070204E+01  0.38260174223E+02  0.00000000000E+00 0.  1.
         12    1    4    4    0    0 -0.20111226747E+02 -0.11672485047E+02 -0.88562463260E+02  0.91564284779E+02  0.00000000000E+00 0. -1.
         -5    1    5    5    0  502 -0.49883812404E+02 -0.28070874146E+02  0.57127067995E+01  0.57715628163E+02  0.47000000000E+01 0.  1.
         13    1    6    6    0    0  0.24410023714E+02 -0.15491921498E+02  0.72698958142E+02  0.78236739479E+02  0.00000000000E+00 0. -1.
        -14    1    6    6    0    0  0.10317457672E+02  0.61295282183E+02  0.47419220118E+02  0.78180202016E+02  0.00000000000E+00 0.  1.
</event>
<event>
12    1  0.8251070E-002  0.2256908E+03  0.7818608E-02  0.1129950E+00
         21   -1    0    0  503  502  0.00000000000E+00  0.00000000000E+00  0.34188967631E+03  0.34188967631E+03  0.00000000000E+00 0. -1.
         21   -1    0    0  501  503 -0.00000000000E+00 -0.00000000000E+00 -0.55471807055E+03  0.55471807055E+03  0.00000000000E+00 0. -1.
          6    2    1    2  501    0  0.77380976535E+02  0.12342553341E+03 -0.49031454775E+03  0.53976355857E+03  0.17237942338E+03 0.  0.
         24    2    3    3    0    0  0.47033394119E+01 -0.70641821187E+01 -0.16873776391E+03  0.18516050909E+03  0.75762504502E+02 0.  0.
         -6    2    1    2    0  502 -0.77380976535E+02 -0.12342553341E+03  0.27748615351E+03  0.35684418829E+03  0.17063859911E+03 0.  0.
        -24    2    5    5    0    0 -0.63349882559E+00 -0.16897093368E+02  0.62560799793E+02  0.10494444328E+03  0.82544348194E+02 0.  0.
          5    1    3    3  501    0  0.72677637123E+02  0.13048971552E+03 -0.32157678384E+03  0.35460304948E+03  0.47000000000E+01 0. -1.
        -13    1    4    4    0    0 -0.23917080079E+02 -0.30309436372E+02 -0.99275321707E+02  0.10651890984E+03  0.00000000000E+00 0.  1.
         14    1    4    4    0    0  0.28620419491E+02  0.23245254254E+02 -0.69462442199E+02  0.78641599256E+02  0.00000000000E+00 0. -1.
         -5    1    5    5    0  502 -0.76747477710E+02 -0.10652844004E+03  0.21492535371E+03  0.25189974502E+03  0.47000000000E+01 0.  1.
         11    1    6    6    0    0  0.20043644294E+02 -0.44052716403E+02  0.26046922867E+02  0.54962093209E+02  0.00000000000E+00 0. -1.
        -12    1    6    6    0    0 -0.20677143120E+02  0.27155623036E+02  0.36513876926E+02  0.49982350067E+02  0.00000000000E+00 0.  1.
</event>
<event>
12    1  0.8251070E-002  0.1951613E+03  0.7818608E-02  0.1154155E+00
         21   -1    0    0  501  502  0.00000000000E+00  0.00000000000E+00  0.57382607163E+02  0.57382607163E+02  0.00000000000E+00 0. -1.
         21   -1    0    0  502  503 -0.00000000000E+00 -0.00000000000E+00 -0.79163968984E+03  0.79163968984E+03  0.00000000000E+00 0. -1.
         -6    2    1    2    0  503  0.37286705194E+02  0.81499964441E+02 -0.54146978280E+03  0.57556708745E+03  0.17336494420E+03 0.  0.
        -24    2    3    3    0    0  0.81607001735E+02  0.89610541322E+02 -0.45826842108E+03  0.48083258088E+03  0.80624271934E+02 0.  0.
          6    2    1    2  501    0 -0.37286705194E+02 -0.81499964441E+02 -0.19278729988E+03  0.27345520956E+03  0.17198333074E+03 0.  0.
         24    2    5    5    0    0 -0.21371042952E+02 -0.13136553604E+02 -0.10295571786E+02  0.77873551246E+02  0.73000004575E+02 0.  0.
          5    1    5    5  501    0 -0.15915662242E+02 -0.68363410837E+02 -0.18249172809E+03  0.19558165831E+03  0.47000000000E+01 0. -1.
        -13    1    6    6    0    0 -0.58732946703E+00  0.28575015594E+02 -0.12552762146E+02  0.31216154625E+02  0.00000000000E+00 0.  1.
         14    1    6    6    0    0 -0.20783713485E+02 -0.41711569198E+02  0.22571903596E+01  0.46657396621E+02  0.00000000000E+00 0. -1.
         -5    1    3    3    0  503 -0.44320296541E+02 -0.81105768813E+01 -0.83201361718E+02  0.94734506567E+02  0.47000000000E+01 0.  1.
         11    1    4    4    0    0  0.58188770545E+02  0.28571861399E+02 -0.33586744411E+03  0.34206611100E+03  0.00000000000E+00 0. -1.
        -12    1    4    4    0    0  0.23418231189E+02  0.61038679923E+02 -0.12240097697E+03  0.13876646987E+03  0.00000000000E+00 0.  1.
</event>
<event>
12    1  0.8251070E-002  0.1877727E+03  0.7818608E-02  0.1160691E+00
         21   -1    0    0  501  502  0.00000000000E+00  0.00000000000E+00  0.55927634476E+03  0.55927634476E+03  0.00000000000E+00 0. -1.
         21   -1    0    0  502  503 -0.00000000000E+00 -0.00000000000E+00 -0.12020186520E+03  0.12020186520E+03  0.00000000000E+00 0. -1.
         -6    2    1    2    0  503  0.72313760365E+02  0.55720396912E+01 -0.15627163847E+02  0.18753089392E+03  0.17223037003E+03 0.  0.
        -24    2    3    3    0    0 -0.13065119052E+02  0.36069208830E+02 -0.38341148296E+02  0.93948601443E+02  0.76711217556E+02 0.  0.
          6    2    1    2  501    0 -0.72313760365E+02 -0.55720396912E+01  0.45470164341E+03  0.49194731605E+03  0.17320002795E+03 0.  0.
         24    2    5    5    0    0 -0.11172372076E+03 -0.10655089728E+02  0.40701677345E+03  0.42969846707E+03  0.79889911823E+02 0.  0.
          5    1    5    5  501    0  0.39409960398E+02  0.50830500371E+01  0.47684869954E+02  0.62248848976E+02  0.47000000000E+01 0. -1.
        -13    1    6    6    0    0 -0.17996420565E+02  0.29716485960E+02  0.82590586912E+02  0.89599920410E+02  0.00000000000E+00 0.  1.
         14    1    6    6    0    0 -0.93727300198E+02 -0.40371575689E+02  0.32442618654E+03  0.34009854666E+03  0.00000000000E+00 0. -1.
         -5    1    3    3    0  503  0.85378879417E+02 -0.30497169139E+02  0.22713984450E+02  0.93582292479E+02  0.47000000000E+01 0.  1.
         13    1    4    4    0    0 -0.12510753056E+00  0.54943445809E+02 -0.43982555806E+02  0.70379422451E+02  0.00000000000E+00 0. -1.
        -14    1    4    4    0    0 -0.12940011521E+02 -0.18874236978E+02  0.56414075100E+01  0.23569178993E+02  0.00000000000E+00 0.  1.
</event>
<event>
12    1  0.8251070E-002  0.2655833E+03  0.7818608E-02  0.1104070E+00
         21   -1    0    0  501  502  0.00000000000E+00  0.00000000000E+00  0.28278714239E+03  0.28278714239E+03  0.00000000000E+00 0.  1.
         21   -1    0    0  502  503 -0.00000000000E+00 -0.00000000000E+00 -0.31863201618E+03  0.31863201618E+03  0.00000000000E+00 0.  1.
         -6    2    1    2    0  503 -0.19668874166E+03  0.38498354542E+02 -0.15962875130E+03  0.30986420879E+03  0.17425815691E+03 0.  0.
        -24    2    3    3    0    0 -0.54381076025E+02  0.39953841675E+02 -0.15288137723E+02  0.10710846197E+03  0.81761143437E+02 0.  0.
          6    2    1    2  501    0  0.19668874166E+03 -0.38498354542E+02  0.12378387750E+03  0.29155494978E+03  0.17179422580E+03 0.  0.
         24    2    5    5    0    0  0.21139753365E+03 -0.58430786034E+02  0.12790184779E+03  0.26600699358E+03  0.79358452470E+02 0.  0.
          5    1    5    5  501    0 -0.14708791987E+02  0.19932431492E+02 -0.41179702854E+01  0.25547956203E+02  0.47000000000E+01 0. -1.
        -11    1    6    6    0    0  0.16596381789E+03 -0.43108792606E+02  0.57552892371E+02  0.18087203285E+03  0.00000000000E+00 0.  1.
         12    1    6    6    0    0  0.45433715759E+02 -0.15321993428E+02  0.70348955415E+02  0.85134960728E+02  0.00000000000E+00 0. -1.
         -5    1    3    3    0  503 -0.14230766563E+03 -0.14554871332E+01 -0.14434061357E+03  0.20275574682E+03  0.47000000000E+01 0.  1.
         11    1    4    4    0    0  0.18420290327E+02  0.25463412452E+02 -0.56328856680E+00  0.31432622599E+02  0.00000000000E+00 0. -1.
        -12    1    4    4    0    0 -0.72801366352E+02  0.14490429224E+02 -0.14724849156E+02  0.75675839371E+02  0.00000000000E+00 0.  1.
</event>
<event>
12    1  0.8251070E-002  0.2437634E+03  0.7818608E-02  0.1117323E+00
         21   -1    0    0  501  502  0.00000000000E+00  0.00000000000E+00  0.38133761014E+03  0.38133761014E+03  0.00000000000E+00 0.  1.
         21   -1    0    0  502  503 -0.00000000000E+00 -0.00000000000E+00 -0.22930370118E+03  0.22930370118E+03  0.00000000000E+00 0.  1.
         -6    2    1    2    0  503  0.15812992702E+03  0.70919346776E+02 -0.96886344797E+02  0.26224228955E+03  0.17131674481E+03 0.  0.
        -24    2    3    3    0    0  0.12084460394E+03  0.80948566964E+02 -0.88665814336E+01  0.16601158074E+03  0.79530748012E+02 0.  0.
          6    2    1    2  501    0 -0.15812992702E+03 -0.70919346776E+02  0.24892025376E+03  0.34839902176E+03  0.17142333000E+03 0.  0.
         24    2    5    5    0    0 -0.47728453928E+02 -0.86871387225E+02  0.11815082603E+03  0.17645226814E+03  0.85738801052E+02 0.  0.
          5    1    5    5  501    0 -0.11040147309E+03  0.15952040449E+02  0.13076942773E+03  0.17194675363E+03  0.47000000000E+01 0. -1.
        -11    1    6    6    0    0 -0.44988856791E+02 -0.10064816408E+02  0.75752462415E+02  0.88677693513E+02  0.00000000000E+00 0.  1.
         12    1    6    6    0    0 -0.27395971366E+01 -0.76806570816E+02  0.42398363617E+02  0.87774574624E+02  0.00000000000E+00 0. -1.
         -5    1    3    3    0  503  0.37285323075E+02 -0.10029220188E+02 -0.88019763364E+02  0.96230708804E+02  0.47000000000E+01 0.  1.
         11    1    4    4    0    0  0.56896481822E+02 -0.66697478236E+01 -0.19735703806E+01  0.57320067689E+02  0.00000000000E+00 0. -1.
        -12    1    4    4    0    0  0.63948122121E+02  0.87618314788E+02 -0.68930110530E+01  0.10869151306E+03  0.00000000000E+00 0.  1.
</event>
<event>
12    1  0.8251070E-002  0.1934027E+03  0.7818608E-02  0.1155631E+00
         21   -1    0    0  501  502  0.00000000000E+00  0.00000000000E+00  0.63822286418E+02  0.63822286418E+02  0.00000000000E+00 0.  1.
         21   -1    0    0  502  503 -0.00000000000E+00 -0.00000000000E+00 -0.63527602515E+03  0.63527602515E+03  0.00000000000E+00 0. -1.
         -6    2    1    2    0  503  0.81356714260E+02 -0.31112510291E+02 -0.38634742877E+03  0.43205200124E+03  0.17267800325E+03 0.  0.
        -24    2    3    3    0    0  0.59207413559E+02 -0.33717466887E+02 -0.39459800742E+03  0.40781278986E+03  0.77209447099E+02 0.  0.
          6    2    1    2  501    0 -0.81356714260E+02  0.31112510291E+02 -0.18510630995E+03  0.26704631032E+03  0.17164638831E+03 0.  0.
         24    2    5    5    0    0 -0.71178861796E+02 -0.27891673645E+02 -0.57343915579E+02  0.12587123526E+03  0.81919883949E+02 0.  0.
          5    1    5    5  501    0 -0.10177852465E+02  0.59004183936E+02 -0.12776239437E+03  0.14117507506E+03  0.47000000000E+01 0. -1.
        -11    1    6    6    0    0 -0.75146318469E+02 -0.82668317897E+01 -0.69295705036E+02  0.10255342229E+03  0.00000000000E+00 0.  1.
         12    1    6    6    0    0  0.39674566735E+01 -0.19624841855E+02  0.11951789457E+02  0.23317812966E+02  0.00000000000E+00 0. -1.
         -5    1    3    3    0  503  0.22149300701E+02  0.26049565957E+01  0.82505786454E+01  0.24239211381E+02  0.47000000000E+01 0.  1.
         13    1    4    4    0    0 -0.68474280578E+01  0.15893509923E+02 -0.11402590343E+03  0.11533168508E+03  0.00000000000E+00 0. -1.
        -14    1    4    4    0    0  0.66054841617E+02 -0.49610976810E+02 -0.28057210399E+03  0.29248110478E+03  0.00000000000E+00 0.  1.
</event>
<event>
12    1  0.8251070E-002  0.2314244E+03  0.7818608E-02  0.1125766E+00
         21   -1    0    0  501  502  0.00000000000E+00  0.00000000000E+00  0.30051881070E+03  0.30051881070E+03  0.00000000000E+00 0.  1.
         21   -1    0    0  502  503 -0.00000000000E+00 -0.00000000000E+00 -0.25853554914E+03  0.25853554914E+03  0.00000000000E+00 0.  1.
         -6    2    1    2    0  503 -0.13319500802E+03  0.77933576934E+02 -0.13536599151E+03  0.26748959173E+03  0.17149978849E+03 0.  0.
        -24    2    3    3    0    0 -0.18195566770E+02  0.30843718195E+02 -0.11165544024E+03  0.14089335748E+03  0.78112657389E+02 0.  0.
          6    2    1    2  501    0  0.13319500802E+03 -0.77933576934E+02  0.17734925307E+03  0.29156476811E+03  0.17246073136E+03 0.  0.
         24    2    5    5    0    0  0.11230809429E+03 -0.96667950641E+02  0.19534742428E+03  0.25790078008E+03  0.79964964007E+02 0.  0.
          5    1    5    5  501    0  0.20886913728E+02  0.18734373707E+02 -0.17998171207E+02  0.33663988030E+02  0.47000000000E+01 0. -1.
        -11    1    6    6    0    0  0.10707819210E+03 -0.53317094533E+02  0.11229342192E+03  0.16406786523E+03  0.00000000000E+00 0.  1.
         12    1    6    6    0    0  0.52299021896E+01 -0.43350856108E+02  0.83054002354E+02  0.93832914850E+02  0.00000000000E+00 0. -1.
         -5    1    3    3    0  503 -0.11499944125E+03  0.47089858740E+02 -0.23710551261E+02  0.12659623425E+03  0.47000000000E+01 0.  1.
         11    1    4    4    0    0 -0.11476353396E+02 -0.18351898446E+02 -0.35546121745E+01  0.21934769922E+02  0.00000000000E+00 0. -1.
        -12    1    4    4    0    0 -0.67192133737E+01  0.49195616640E+02 -0.10810082807E+03  0.11895858756E+03  0.00000000000E+00 0.  1.
</event>
<event>
12    1  0.8251070E-002  0.2671470E+03  0.7818608E-02  0.1103206E+00
         21   -1    0    0  501  502  0.00000000000E+00  0.00000000000E+00  0.62917858472E+03  0.62917858472E+03  0.00000000000E+00 0. -1.
         21   -1    0    0  502  503 -0.00000000000E+00 -0.00000000000E+00 -0.12294797246E+03  0.12294797246E+03  0.00000000000E+00 0.  1.
         -6    2    1    2    0  503 -0.63257338794E+02  0.19171416055E+03  0.36302232152E+03  0.45072465302E+03  0.17496198630E+03 0.  0.
        -24    2    3    3    0    0 -0.93159274186E+02  0.19632975684E+03  0.28514601278E+03  0.36704527125E+03  0.78676290948E+02 0.  0.
          6    2    1    2  501    0  0.63257338794E+02 -0.19171416055E+03  0.14320829073E+03  0.30140190416E+03  0.17198454300E+03 0.  0.
         24    2    5    5    0    0  0.30738730025E+02 -0.15145532330E+03  0.16991574841E+03  0.24297577825E+03  0.79260852753E+02 0.  0.
          5    1    5    5  501    0  0.32518608769E+02 -0.40258837250E+02 -0.26707457680E+02  0.58426125908E+02  0.47000000000E+01 0. -1.
        -13    1    6    6    0    0  0.59192731125E+01 -0.43971827525E+02  0.51141744825E+01  0.44662223307E+02  0.00000000000E+00 0.  1.
         14    1    6    6    0    0  0.24819456912E+02 -0.10748349577E+03  0.16480157393E+03  0.19831355494E+03  0.00000000000E+00 0. -1.
         -5    1    3    3    0  503  0.29901935392E+02 -0.46155962926E+01  0.77876308748E+02  0.83679381771E+02  0.47000000000E+01 0.  1.
         13    1    4    4    0    0 -0.68663458742E+02  0.79391965171E+02  0.17757635344E+03  0.20627921854E+03  0.00000000000E+00 0. -1.
        -14    1    4    4    0    0 -0.24495815444E+02  0.11693779167E+03  0.10756965934E+03  0.16076605271E+03  0.00000000000E+00 0.  1.
</event>
<event>
12    1  0.8251070E-002  0.1732148E+03  0.7818608E-02  0.1174666E+00
         21   -1    0    0  503  502  0.00000000000E+00  0.00000000000E+00  0.19888720010E+03  0.19888720010E+03  0.00000000000E+00 0. -1.
         21   -1    0    0  501  503 -0.00000000000E+00 -0.00000000000E+00 -0.15043537446E+03  0.15043537446E+03  0.00000000000E+00 0. -1.
          6    2    1    2  501    0 -0.78792927017E+00 -0.18808934808E+02  0.22155249223E+02  0.17462594494E+03  0.17218875897E+03 0.  0.
         24    2    3    3    0    0 -0.15676493215E+01  0.16000251033E+02  0.75495261692E+02  0.11075471266E+03  0.79426735309E+02 0.  0.
         -6    2    1    2    0  502  0.78792927017E+00  0.18808934808E+02  0.26296576413E+02  0.17469662962E+03  0.17167703867E+03 0.  0.
        -24    2    5    5    0    0 -0.23855805029E+02  0.29177100740E+02  0.76999236352E+02  0.11718435067E+03  0.79892972169E+02 0.  0.
          5    1    3    3  501    0  0.77972005137E+00 -0.34809185841E+02 -0.53340012469E+02  0.63871232276E+02  0.47000000000E+01 0. -1.
        -11    1    4    4    0    0 -0.37274119498E+02 -0.72408596235E+01  0.41500516158E+02  0.56250181101E+02  0.00000000000E+00 0.  1.
         12    1    4    4    0    0  0.35706470177E+02  0.23241110656E+02  0.33994745533E+02  0.54504531563E+02  0.00000000000E+00 0. -1.
         -5    1    5    5    0  502  0.24643734299E+02 -0.10368165932E+02 -0.50702659939E+02  0.57512278949E+02  0.47000000000E+01 0.  1.
         11    1    6    6    0    0  0.26216486177E+02  0.52344946014E+01  0.47056721089E+02  0.54120597566E+02  0.00000000000E+00 0. -1.
        -12    1    6    6    0    0 -0.50072291206E+02  0.23942606139E+02  0.29942515263E+02  0.63063753104E+02  0.00000000000E+00 0.  1.
</event>
<event>
12    1  0.8251070E-002  0.1844062E+03  0.7818608E-02  0.1163695E+00
         21   -1    0    0  501  502  0.00000000000E+00  0.00000000000E+00  0.25406434136E+03  0.25406434136E+03  0.00000000000E+00 0.  1.
         21   -1    0    0  502  503 -0.00000000000E+00 -0.00000000000E+00 -0.42731384714E+03  0.42731384714E+03  0.00000000000E+00 0.  1.
         -6    2    1    2    0  503 -0.21631156655E+01  0.64814329598E+02 -0.36912076498E+03  0.41262064902E+03  0.17262700967E+03 0.  0.
        -24    2    3    3    0    0 -0.31588324934E+02  0.24241440101E+02 -0.34586324597E+03  0.35716792598E+03  0.79762602417E+02 0.  0.
          6    2    1    2  501    0  0.21631156655E+01 -0.64814329598E+02  0.19587125920E+03  0.26875753947E+03  0.17221930337E+03 0.  0.
         24    2    5    5    0    0  0.15545461960E+02  0.77476433752E+01  0.17289750078E+03  0.19133525140E+03  0.80087110622E+02 0.  0.
          5    1    5    5  501    0 -0.13382346294E+02 -0.72561972973E+02  0.22973758418E+02  0.77422288070E+02  0.47000000000E+01 0. -1.
        -11    1    6    6    0    0 -0.54601975262E+01 -0.32282144522E+02  0.44753732685E+02  0.55451304774E+02  0.00000000000E+00 0.  1.
         12    1    6    6    0    0  0.21005659486E+02  0.40029787897E+02  0.12814376810E+03  0.13588394663E+03  0.00000000000E+00 0. -1.
         -5    1    3    3    0  503  0.29425209268E+02  0.40572889497E+02 -0.23257519014E+02  0.55452723047E+02  0.47000000000E+01 0.  1.
         11    1    4    4    0    0 -0.19752494155E+02  0.45889762852E+02 -0.12033431451E+03  0.13029343271E+03  0.00000000000E+00 0. -1.
        -12    1    4    4    0    0 -0.11835830779E+02 -0.21648322751E+02 -0.22552893146E+03  0.22687449326E+03  0.00000000000E+00 0.  1.
</event>
<event>
12    1  0.8251070E-002  0.3335519E+03  0.7818608E-02  0.1069662E+00
         21   -1    0    0  503  502  0.00000000000E+00  0.00000000000E+00  0.73526651467E+02  0.73526651467E+02  0.00000000000E+00 0.  1.
         21   -1    0    0  501  503 -0.00000000000E+00 -0.00000000000E+00 -0.15157097020E+04  0.15157097020E+04  0.00000000000E+00 0. -1.
          6    2    1    2  501    0 -0.44775364270E+02  0.28151183523E+03 -0.77071832859E+03  0.83948855533E+03  0.17169899790E+03 0.  0.
         24    2    3    3    0    0 -0.97441661440E+02  0.18496678631E+03 -0.51473772735E+03  0.56084390072E+03  0.76703087276E+02 0.  0.
         -6    2    1    2    0  502  0.44775364270E+02 -0.28151183523E+03 -0.67146472190E+03  0.74974779809E+03  0.17321414888E+03 0.  0.
        -24    2    5    5    0    0  0.52287580236E+01 -0.16002426535E+03 -0.22967525364E+03  0.28983129701E+03  0.74942332383E+02 0.  0.
          5    1    3    3  501    0  0.52666297169E+02  0.96545048919E+02 -0.25598060124E+03  0.27864465461E+03  0.47000000000E+01 0. -1.
        -11    1    4    4    0    0  0.16061648666E+01 -0.63694406327E+01 -0.91553338338E+01  0.11268082231E+02  0.00000000000E+00 0.  1.
         12    1    4    4    0    0 -0.99047826306E+02  0.19133622695E+03 -0.50558239351E+03  0.54957581849E+03  0.00000000000E+00 0. -1.
         -5    1    5    5    0  502  0.39546606247E+02 -0.12148756988E+03 -0.44178946826E+03  0.45991650108E+03  0.47000000000E+01 0.  1.
         11    1    6    6    0    0  0.89829875037E+00  0.83117134712E+01 -0.12013350660E+02  0.14635987003E+02  0.00000000000E+00 0. -1.
        -12    1    6    6    0    0  0.43304592732E+01 -0.16833597882E+03 -0.21766190298E+03  0.27519531001E+03  0.00000000000E+00 0.  1.
</event>
<event>
12    1  0.8251070E-002  0.1790703E+03  0.7818608E-02  0.1168784E+00
         21   -1    0    0  501  502  0.00000000000E+00  0.00000000000E+00  0.52461371873E+03  0.52461371873E+03  0.00000000000E+00 0. -1.
         21   -1    0    0  502  503 -0.00000000000E+00 -0.00000000000E+00 -0.93992384163E+02  0.93992384163E+02  0.00000000000E+00 0. -1.
         -6    2    1    2    0  503  0.47154184198E+02  0.95595007684E+01  0.31975224051E+02  0.18158791581E+03  0.17215357990E+03 0.  0.
        -24    2    3    3    0    0 -0.43398146762E+01 -0.26139044955E+02 -0.16843210248E+02  0.10201815011E+03  0.97066603716E+02 0.  0.
          6    2    1    2  501    0 -0.47154184198E+02 -0.95595007684E+01  0.39864611052E+03  0.43701818708E+03  0.17248557409E+03 0.  0.
         24    2    5    5    0    0  0.34951899723E+02 -0.11542528672E+02  0.27106700303E+03  0.28521614466E+03  0.80722139350E+02 0.  0.
          5    1    5    5  501    0 -0.82106083921E+02  0.19830279037E+01  0.12757910748E+03  0.15180204242E+03  0.47000000000E+01 0. -1.
        -11    1    6    6    0    0  0.52858239973E+02  0.23649133275E+01  0.10468842879E+03  0.11729984429E+03  0.00000000000E+00 0.  1.
         12    1    6    6    0    0 -0.17906340250E+02 -0.13907442000E+02  0.16637857424E+03  0.16791630037E+03  0.00000000000E+00 0. -1.
         -5    1    3    3    0  503  0.51493998874E+02  0.35698545723E+02  0.48818434299E+02  0.79569765704E+02  0.47000000000E+01 0.  1.
         13    1    4    4    0    0  0.39739301460E+02  0.83769752107E+01  0.69211891131E+01  0.41198163223E+02  0.00000000000E+00 0. -1.
        -14    1    4    4    0    0 -0.44079116137E+02 -0.34516020165E+02 -0.23764399361E+02  0.60819986883E+02  0.00000000000E+00 0.  1.
</event>
<event>
12    1  0.8251070E-002  0.1728833E+03  0.7818608E-02  0.1174904E+00
         21   -1    0    0  503  502  0.00000000000E+00  0.00000000000E+00  0.43651736810E+03  0.43651736810E+03  0.00000000000E+00 0. -1.
         21   -1    0    0  501  503 -0.00000000000E+00 -0.00000000000E+00 -0.84711545786E+02  0.84711545786E+02  0.00000000000E+00 0. -1.
          6    2    1    2  501    0  0.84712061013E+01  0.10693609019E+02  0.29022876993E+03  0.33781855298E+03  0.17234419409E+03 0.  0.
         24    2    3    3    0    0  0.62062674362E+02  0.36061865487E+02  0.23061805801E+03  0.25360975960E+03  0.77336846303E+02 0.  0.
         -6    2    1    2    0  502 -0.84712061013E+01 -0.10693609019E+02  0.61577052386E+02  0.18341036090E+03  0.17222517963E+03 0.  0.
        -24    2    5    5    0    0  0.32684579208E+02  0.53592704610E+02  0.49390891214E+02  0.10596927808E+03  0.69638840149E+02 0.  0.
          5    1    3    3  501    0 -0.53591468260E+02 -0.25368256468E+02  0.59610711926E+02  0.84208793382E+02  0.47000000000E+01 0. -1.
        -13    1    4    4    0    0  0.39631580038E+02 -0.20505849891E+02  0.94173025363E+02  0.10420993581E+03  0.00000000000E+00 0.  1.
         14    1    4    4    0    0  0.22431094324E+02  0.56567715378E+02  0.13644503264E+03  0.14939982379E+03  0.00000000000E+00 0. -1.
         -5    1    5    5    0  502 -0.41155785309E+02 -0.64286313628E+02  0.12186161172E+02  0.77441082821E+02  0.47000000000E+01 0.  1.
         13    1    6    6    0    0  0.52799595891E+02  0.27917394767E+02  0.22956402092E+02  0.63985737894E+02  0.00000000000E+00 0. -1.
        -14    1    6    6    0    0 -0.20115016683E+02  0.25675309843E+02  0.26434489122E+02  0.41983540189E+02  0.00000000000E+00 0.  1.
</event>
<event>
12    1  0.8251070E-002  0.2033661E+03  0.7818608E-02  0.1147577E+00
         21   -1    0    0  503  502  0.00000000000E+00  0.00000000000E+00  0.11918389891E+04  0.11918389891E+04  0.00000000000E+00 0.  1.
         21   -1    0    0  501  503 -0.00000000000E+00 -0.00000000000E+00 -0.56211448715E+02  0.56211448715E+02  0.00000000000E+00 0.  1.
          6    2    1    2  501    0 -0.49857579158E+02  0.94596654943E+02  0.17973829371E+03  0.27141045486E+03  0.17298403238E+03 0.  0.
         24    2    3    3    0    0 -0.18701177254E+02  0.13069910853E+03  0.15024831697E+03  0.21514450368E+03  0.79250297856E+02 0.  0.
         -6    2    1    2    0  502  0.49857579158E+02 -0.94596654943E+02  0.95588924671E+03  0.97663998299E+03  0.16931361157E+03 0.  0.
        -24    2    5    5    0    0  0.59788123587E+02 -0.10072044055E+03  0.95296419767E+03  0.96372633228E+03  0.83117113813E+02 0.  0.
          5    1    3    3  501    0 -0.31156401904E+02 -0.36102453587E+02  0.29489976743E+02  0.56265951187E+02  0.47000000000E+01 0. -1.
        -13    1    4    4    0    0 -0.10584747409E+02  0.32594466858E+02 -0.14553385511E+01  0.34300935232E+02  0.00000000000E+00 0.  1.
         14    1    4    4    0    0 -0.81164298454E+01  0.98104641672E+02  0.15170365552E+03  0.18084356845E+03  0.00000000000E+00 0. -1.
         -5    1    5    5    0  502 -0.99305444290E+01  0.61237856038E+01  0.29250490377E+01  0.12913650710E+02  0.47000000000E+01 0.  1.
         11    1    6    6    0    0  0.31374130099E+02 -0.12950503955E+02  0.51674505250E+03  0.51785857227E+03  0.00000000000E+00 0. -1.
        -12    1    6    6    0    0  0.28413993488E+02 -0.87769936591E+02  0.43621914517E+03  0.44586776000E+03  0.00000000000E+00 0.  1.
</event>
<event>
12    1  0.8251070E-002  0.2624929E+03  0.7818608E-02  0.1105686E+00
         21   -1    0    0  501  502  0.00000000000E+00  0.00000000000E+00  0.71778024109E+03  0.71778024109E+03  0.00000000000E+00 0. -1.
         21   -1    0    0  502  503 -0.00000000000E+00 -0.00000000000E+00 -0.11968239988E+03  0.11968239988E+03  0.00000000000E+00 0.  1.
         -6    2    1    2    0  503  0.92216043506E+02 -0.17536158215E+03  0.11236132113E+03  0.28533722766E+03  0.17186268888E+03 0.  0.
        -24    2    3    3    0    0  0.12894177771E+03 -0.13849788058E+03  0.11031590147E+03  0.23304969772E+03  0.79592201409E+02 0.  0.
          6    2    1    2  501    0 -0.92216043506E+02  0.17536158215E+03  0.48573652008E+03  0.55212541331E+03  0.17218310578E+03 0.  0.
         24    2    5    5    0    0 -0.12040371841E+03  0.96476352101E+02  0.37521005310E+03  0.41336081250E+03  0.79245412740E+02 0.  0.
          5    1    5    5  501    0  0.28187674907E+02  0.78885230049E+02  0.11052646698E+03  0.13876460081E+03  0.47000000000E+01 0. -1.
        -13    1    6    6    0    0 -0.83947044540E+02  0.10568967864E+03  0.30954194400E+03  0.33768865772E+03  0.00000000000E+00 0.  1.
         14    1    6    6    0    0 -0.36456673873E+02 -0.92133265432E+01  0.65668109105E+02  0.75672154782E+02  0.00000000000E+00 0. -1.
         -5    1    3    3    0  503 -0.36725734205E+02 -0.36863701569E+02  0.20454196660E+01  0.52287529947E+02  0.47000000000E+01 0.  1.
         13    1    4    4    0    0 -0.66720558947E+01 -0.31162742501E+02  0.23042650875E+02  0.39326792513E+02  0.00000000000E+00 0. -1.
        -14    1    4    4    0    0  0.13561383361E+03 -0.10733513808E+03  0.87273250591E+02  0.19372290520E+03  0.00000000000E+00 0.  1.
</event>
<event>
12    1  0.8251070E-002  0.2756881E+03  0.7818608E-02  0.1099280E+00
         21   -1    0    0  503  502  0.00000000000E+00  0.00000000000E+00  0.98488838041E+03  0.98488838041E+03  0.00000000000E+00 0.  1.
         21   -1    0    0  501  503 -0.00000000000E+00 -0.00000000000E+00 -0.15988598364E+03  0.15988598364E+03  0.00000000000E+00 0.  1.
          6    2    1    2  501    0  0.13350747897E+03 -0.16780398535E+03 -0.80889835172E+01  0.26725218520E+03  0.15929806779E+03 0.  0.
         24    2    3    3    0    0  0.75010843949E+02 -0.12681819906E+03 -0.61084577175E+02  0.17818864646E+03  0.79437937006E+02 0.  0.
         -6    2    1    2    0  502 -0.13350747897E+03  0.16780398535E+03  0.83309138028E+03  0.87752217886E+03  0.17326714068E+03 0.  0.
        -24    2    5    5    0    0 -0.60470884648E+02  0.23277456925E+02  0.21600176990E+03  0.23952222684E+03  0.80719047685E+02 0.  0.
          5    1    3    3  501    0  0.58496635018E+02 -0.40985786287E+02  0.52995593658E+02  0.89063538741E+02  0.47000000000E+01 0. -1.
        -11    1    4    4    0    0 -0.13351089170E+02 -0.23442136651E+02 -0.26609514658E+02  0.37892632834E+02  0.00000000000E+00 0.  1.
         12    1    4    4    0    0  0.88361933119E+02 -0.10337606241E+03 -0.34475062517E+02  0.14029601363E+03  0.00000000000E+00 0. -1.
         -5    1    5    5    0  502 -0.73036594319E+02  0.14452652842E+03  0.61708961038E+03  0.63799995201E+03  0.47000000000E+01 0.  1.
         11    1    6    6    0    0 -0.93775934818E+00  0.29315924279E+02  0.22463982670E+02  0.36945004078E+02  0.00000000000E+00 0. -1.
        -12    1    6    6    0    0 -0.59533125300E+02 -0.60384673540E+01  0.19353778723E+03  0.20257722276E+03  0.00000000000E+00 0.  1.
</event>
<event>
12    1  0.8251070E-002  0.1817133E+03  0.7818608E-02  0.1166895E+00
         21   -1    0    0  503  502  0.00000000000E+00  0.00000000000E+00  0.31565666105E+03  0.31565666105E+03  0.00000000000E+00 0. -1.
         21   -1    0    0  501  503 -0.00000000000E+00 -0.00000000000E+00 -0.10301219586E+03  0.10301219586E+03  0.00000000000E+00 0. -1.
          6    2    1    2  501    0 -0.50987110149E+02 -0.20212190966E+02  0.97050836343E+02  0.20330491443E+03  0.17001707365E+03 0.  0.
         24    2    3    3    0    0  0.21836897225E+02  0.24029350559E+02  0.20587485093E+02  0.88721389741E+02  0.79958618587E+02 0.  0.
         -6    2    1    2    0  502  0.50987110149E+02  0.20212190966E+02  0.11559362885E+03  0.21536394248E+03  0.17323834051E+03 0.  0.
        -24    2    5    5    0    0  0.93173606056E+02  0.18527997392E+02  0.40709941872E+02  0.12926984558E+03  0.77645257788E+02 0.  0.
          5    1    3    3  501    0 -0.72824007374E+02 -0.44241541525E+02  0.76463351249E+02  0.11458352469E+03  0.47000000000E+01 0. -1.
        -13    1    4    4    0    0  0.99627928497E+01  0.49413204137E+02  0.30593135633E+02  0.58964921202E+02  0.00000000000E+00 0.  1.
         14    1    4    4    0    0  0.11874104375E+02 -0.25383853578E+02 -0.10005650539E+02  0.29756468539E+02  0.00000000000E+00 0. -1.
         -5    1    5    5    0  502 -0.42186495908E+02  0.16841935734E+01  0.74883686973E+02  0.86094096892E+02  0.47000000000E+01 0.  1.
         11    1    6    6    0    0 -0.13417276879E+02  0.67797380323E+01  0.15730708690E+01  0.15114983248E+02  0.00000000000E+00 0. -1.
        -12    1    6    6    0    0  0.10659088294E+03  0.11748259360E+02  0.39136871003E+02  0.11415486234E+03  0.00000000000E+00 0.  1.
</event>
<event>
12    1  0.8251070E-002  0.1923327E+03  0.7818608E-02  0.1156891E+00
         21   -1    0    0  503  502  0.00000000000E+00  0.00000000000E+00  0.14531326411E+03  0.14531326411E+03  0.00000000000E+00 0.  1.
         21   -1    0    0  501  503 -0.00000000000E+00 -0.00000000000E+00 -0.25220142862E+03  0.25220142862E+03  0.00000000000E+00 0.  1.
          6    2    1    2  501    0  0.77833380149E+02  0.32527072397E+02 -0.63529286208E+02  0.20035523003E+03  0.17026509475E+03 0.  0.
         24    2    3    3    0    0  0.48535342688E+02  0.60953697589E+02 -0.99165545326E+02  0.14596330984E+03  0.73487752033E+02 0.  0.
         -6    2    1    2    0  502 -0.77833380149E+02 -0.32527072397E+02 -0.43358878305E+02  0.19715946269E+03  0.17284622038E+03 0.  0.
        -24    2    5    5    0    0 -0.16118406126E+02  0.34256684076E+02  0.15650468049E+02  0.88656001440E+02  0.78623317287E+02 0.  0.
          5    1    3    3  501    0  0.29298037461E+02 -0.28426625192E+02  0.35636259118E+02  0.54391920197E+02  0.47000000000E+01 0. -1.
        -11    1    4    4    0    0  0.20821522332E+02 -0.43778191967E+01 -0.62627244420E+02  0.66142821505E+02  0.00000000000E+00 0.  1.
         12    1    4    4    0    0  0.27713820357E+02  0.65331516785E+02 -0.36538300907E+02  0.79820488331E+02  0.00000000000E+00 0. -1.
         -5    1    5    5    0  502 -0.61714974023E+02 -0.66783756472E+02 -0.59009346353E+02  0.10850346126E+03  0.47000000000E+01 0.  1.
         11    1    6    6    0    0  0.29487627201E+02 -0.99648622289E+00  0.31389359587E+01  0.29670963276E+02  0.00000000000E+00 0. -1.
        -12    1    6    6    0    0 -0.45606033327E+02  0.35253170298E+02  0.12511532090E+02  0.58985038164E+02  0.00000000000E+00 0.  1.
</event>
<event>
12    1  0.8251070E-002  0.1776676E+03  0.7818608E-02  0.1170286E+00
         21   -1    0    0  503  502  0.00000000000E+00  0.00000000000E+00  0.10801228185E+03  0.10801228185E+03  0.00000000000E+00 0.  1.
         21   -1    0    0  501  503 -0.00000000000E+00 -0.00000000000E+00 -0.45907838595E+03  0.45907838595E+03  0.00000000000E+00 0.  1.
          6    2    1    2  501    0  0.39058106966E+02 -0.10160475214E+02 -0.34742852431E+03  0.39022090941E+03  0.17302314199E+03 0.  0.
         24    2    3    3    0    0  0.12291987361E+02  0.58188126177E+02 -0.15580925092E+03  0.18496986215E+03  0.80002351521E+02 0.  0.
         -6    2    1    2    0  502 -0.39058106966E+02  0.10160475214E+02 -0.36375798009E+01  0.17686975839E+03  0.17216535212E+03 0.  0.
        -24    2    5    5    0    0 -0.72911476959E+02  0.97760118346E+01  0.44819927715E+02  0.11757036120E+03  0.80014436404E+02 0.  0.
          5    1    3    3  501    0  0.26766119605E+02 -0.68348601391E+02 -0.19161927338E+03  0.20525104726E+03  0.47000000000E+01 0. -1.
        -13    1    4    4    0    0  0.44062069739E+02  0.24374343236E+02 -0.10316290213E+03  0.11479616272E+03  0.00000000000E+00 0.  1.
         14    1    4    4    0    0 -0.31770082378E+02  0.33813782940E+02 -0.52646348789E+02  0.70173699431E+02  0.00000000000E+00 0. -1.
         -5    1    5    5    0  502  0.33853369993E+02  0.38446337950E+00 -0.48457507516E+02  0.59299397186E+02  0.47000000000E+01 0.  1.
         11    1    6    6    0    0 -0.20980218994E+02  0.37590283534E+02 -0.80732296940E+00  0.43056367422E+02  0.00000000000E+00 0. -1.
        -12    1    6    6    0    0 -0.51931257965E+02 -0.27814271699E+02  0.45627250684E+02  0.74513993780E+02  0.00000000000E+00 0.  1.
</event>
<event>
12    1  0.8251070E-002  0.3269988E+03  0.7818608E-02  0.1072639E+00
         21   -1    0    0  501  502  0.00000000000E+00  0.00000000000E+00  0.35130133908E+03  0.35130133908E+03  0.00000000000E+00 0.  1.
         21   -1    0    0  502  503 -0.00000000000E+00 -0.00000000000E+00 -0.84251555737E+03  0.84251555737E+03  0.00000000000E+00 0. -1.
         -6    2    1    2    0  503  0.29165339902E+01 -0.27475946133E+03 -0.72306796010E+03  0.79296231506E+03  0.17452991267E+03 0.  0.
        -24    2    3    3    0    0  0.68130723656E+00 -0.15596383910E+03 -0.58585555864E+03  0.61139489173E+03  0.79068291729E+02 0.  0.
          6    2    1    2  501    0 -0.29165339902E+01  0.27475946133E+03  0.23185374181E+03  0.40085458139E+03  0.17727653558E+03 0.  0.
         24    2    5    5    0    0 -0.18382027448E+02  0.16412743625E+03  0.22362139628E+03  0.28874531338E+03  0.78048785133E+02 0.  0.
          5    1    5    5  501    0  0.15465493458E+02  0.11063202508E+03  0.82323455333E+01  0.11210926801E+03  0.47000000000E+01 0. -1.
        -11    1    6    6    0    0 -0.16933446333E+01  0.97481673709E+02  0.18700263873E+03  0.21089222607E+03  0.00000000000E+00 0.  1.
         12    1    6    6    0    0 -0.16688682815E+02  0.66645762542E+02  0.36618757549E+02  0.77853087308E+02  0.00000000000E+00 0. -1.
         -5    1    3    3    0  503  0.22352267537E+01 -0.11879562223E+03 -0.13721240146E+03  0.18156742333E+03  0.47000000000E+01 0.  1.
         13    1    4    4    0    0 -0.28993136877E+02 -0.21233808512E+02 -0.14903182668E+03  0.15330349629E+03  0.00000000000E+00 0. -1.
        -14    1    4    4    0    0  0.29674444113E+02 -0.13473003059E+03 -0.43682373195E+03  0.45809139544E+03  0.00000000000E+00 0.  1.
</event>
<event>
12    1  0.8251070E-002  0.2000583E+03  0.7818608E-02  0.1150121E+00
         21   -1    0    0  503  502  0.00000000000E+00  0.00000000000E+00  0.63928652230E+02  0.63928652230E+02  0.00000000000E+00 0. -1.
         21   -1    0    0  501  503 -0.00000000000E+00 -0.00000000000E+00 -0.62097134292E+03  0.62097134292E+03  0.00000000000E+00 0.  1.
          6    2    1    2  501    0  0.97844010544E+02  0.25621091365E+02 -0.29249590016E+03  0.35322498763E+03  0.17024731879E+03 0.  0.
         24    2    3    3    0    0  0.42396525316E+02  0.96656121953E+01 -0.27928338563E+03  0.29384770684E+03  0.80351576897E+02 0.  0.
         -6    2    1    2    0  502 -0.97844010544E+02 -0.25621091365E+02 -0.26454679053E+03  0.33167500752E+03  0.17260769250E+03 0.  0.
        -24    2    5    5    0    0 -0.31785533624E+02  0.42524239896E+02 -0.18633510637E+03  0.20860321512E+03  0.77303934986E+02 0.  0.
          5    1    3    3  501    0  0.55447485228E+02  0.15955479170E+02 -0.13212514529E+02  0.59377280788E+02  0.47000000000E+01 0. -1.
        -11    1    4    4    0    0  0.34166579009E+02  0.37800958287E+02 -0.10051933843E+03  0.11269607343E+03  0.00000000000E+00 0.  1.
         12    1    4    4    0    0  0.82299463077E+01 -0.28135346092E+02 -0.17876404720E+03  0.18115163341E+03  0.00000000000E+00 0. -1.
         -5    1    5    5    0  502 -0.66058476921E+02 -0.68145331261E+02 -0.78211684159E+02  0.12307179240E+03  0.47000000000E+01 0.  1.
         11    1    6    6    0    0 -0.57019675629E+01  0.51312439367E+02 -0.59322351983E+02  0.78642356988E+02  0.00000000000E+00 0. -1.
        -12    1    6    6    0    0 -0.26083566061E+02 -0.87881994705E+01 -0.12701275439E+03  0.12996085813E+03  0.00000000000E+00 0.  1.
</event>
<event>
12    1  0.8251070E-002  0.2116272E+03  0.7818608E-02  0.1140525E+00
         21   -1    0    0  501  502  0.00000000000E+00  0.00000000000E+00  0.10243770493E+03  0.10243770493E+03  0.00000000000E+00 0. -1.
         21   -1    0    0  502  503 -0.00000000000E+00 -0.00000000000E+00 -0.97755910233E+03  0.97755910233E+03  0.00000000000E+00 0. -1.
         -6    2    1    2    0  503  0.47696269315E+02  0.11426290670E+03 -0.84054397572E+03  0.86677578389E+03  0.17162499368E+03 0.  0.
        -24    2    3    3    0    0  0.17076804576E+02  0.11529812691E+01 -0.49874512495E+03  0.50541730364E+03  0.80043766419E+02 0.  0.
          6    2    1    2  501    0 -0.47696269315E+02 -0.11426290670E+03 -0.34577421684E+02  0.21322102337E+03  0.17010779160E+03 0.  0.
         24    2    5    5    0    0 -0.19733424944E+02 -0.93406962483E+02 -0.87240683614E+02  0.14987751359E+03  0.75750006608E+02 0.  0.
          5    1    5    5  501    0 -0.27962844371E+02 -0.20855944222E+02  0.52663261931E+02  0.63343509785E+02  0.47000000000E+01 0. -1.
        -11    1    6    6    0    0  0.10677360051E+02 -0.87472332031E+02 -0.77624939070E+02  0.11743528454E+03  0.00000000000E+00 0.  1.
         12    1    6    6    0    0 -0.30410784995E+02 -0.59346304524E+01 -0.96157445445E+01  0.32442229050E+02  0.00000000000E+00 0. -1.
         -5    1    3    3    0  503  0.30619464739E+02  0.11310992544E+03 -0.34179885077E+03  0.36135848024E+03  0.47000000000E+01 0.  1.
         13    1    4    4    0    0  0.37352112611E+02  0.28964793723E+02 -0.30445428514E+03  0.30810152763E+03  0.00000000000E+00 0. -1.
        -14    1    4    4    0    0 -0.20275308035E+02 -0.27811812454E+02 -0.19429083981E+03  0.19731577601E+03  0.00000000000E+00 0.  1.
</event>
<event>
12    1  0.8251070E-002  0.2144530E+03  0.7818608E-02  0.1138169E+00
         21   -1    0    0  503  502  0.00000000000E+00  0.00000000000E+00  0.26649276955E+03  0.26649276955E+03  0.00000000000E+00 0. -1.
         21   -1    0    0  501  503 -0.00000000000E+00 -0.00000000000E+00 -0.17640975842E+03  0.17640975842E+03  0.00000000000E+00 0. -1.
          6    2    1    2  501    0  0.53746785346E+02 -0.11593174524E+03  0.10927370411E+02  0.21430743855E+03  0.17169561528E+03 0.  0.
         24    2    3    3    0    0  0.48093342967E+02 -0.11838934280E+03  0.61287041736E+02  0.16335463988E+03  0.81238111493E+02 0.  0.
         -6    2    1    2    0  502 -0.53746785346E+02  0.11593174524E+03  0.79155640722E+02  0.22859508942E+03  0.17222431001E+03 0.  0.
        -24    2    5    5    0    0 -0.19461019425E+01  0.91046737136E+02 -0.64113103383E+01  0.12541385303E+03  0.85989731803E+02 0.  0.
          5    1    3    3  501    0  0.56534423785E+01  0.24575975603E+01 -0.50359671325E+02  0.50952798671E+02  0.47000000000E+01 0. -1.
        -13    1    4    4    0    0 -0.76055760653E+01  0.93516658740E+01  0.54382422295E+01  0.13223952528E+02  0.00000000000E+00 0.  1.
         14    1    4    4    0    0  0.55698919033E+02 -0.12774100867E+03  0.55848799507E+02  0.15013068735E+03  0.00000000000E+00 0. -1.
         -5    1    5    5    0  502 -0.51800683403E+02  0.24885008104E+02  0.85566951060E+02  0.10318123639E+03  0.47000000000E+01 0.  1.
         11    1    6    6    0    0 -0.20344302369E+02 -0.59426800560E+01  0.12917051411E+02  0.24820481508E+02  0.00000000000E+00 0. -1.
        -12    1    6    6    0    0  0.18398200426E+02  0.96989417192E+02 -0.19328361749E+02  0.10059337152E+03  0.00000000000E+00 0.  1.
</event>
<event>
12    1  0.8251070E-002  0.1784433E+03  0.7818608E-02  0.1169463E+00
         21   -1    0    0  503  502  0.00000000000E+00  0.00000000000E+00  0.11681590260E+03  0.11681590260E+03  0.00000000000E+00 0.  1.
         21   -1    0    0  501  503 -0.00000000000E+00 -0.00000000000E+00 -0.27967998538E+03  0.27967998538E+03  0.00000000000E+00 0.  1.
          6    2    1    2  501    0  0.13073047106E+02  0.45947618569E+02 -0.11508755372E+03  0.21233739830E+03  0.17193003660E+03 0.  0.
         24    2    3    3    0    0 -0.41491717244E+02  0.73469348264E+02 -0.64461155535E+02  0.13283971716E+03  0.79823819428E+02 0.  0.
         -6    2    1    2    0  502 -0.13073047106E+02 -0.45947618569E+02 -0.47776529061E+02  0.18415848967E+03  0.17131743745E+03 0.  0.
        -24    2    5    5    0    0 -0.63410107086E+01 -0.30307235123E+02  0.41488807470E+02  0.93162158896E+02  0.77454049521E+02 0.  0.
          5    1    3    3  501    0  0.54564764350E+02 -0.27521729695E+02 -0.50626398185E+02  0.79497681143E+02  0.47000000000E+01 0. -1.
        -13    1    4    4    0    0  0.69617776989E+01  0.64523894070E+02 -0.24389893524E+02  0.69330124483E+02  0.00000000000E+00 0.  1.
         14    1    4    4    0    0 -0.48453494943E+02  0.89454541943E+01 -0.40071262010E+02  0.63509592677E+02  0.00000000000E+00 0. -1.
         -5    1    5    5    0  502 -0.67320363970E+01 -0.15640383447E+02 -0.89265336531E+02  0.90996330775E+02  0.47000000000E+01 0.  1.
         11    1    6    6    0    0  0.32892885906E+02 -0.66311905863E+00  0.86050032815E+01  0.34006289883E+02  0.00000000000E+00 0. -1.
        -12    1    6    6    0    0 -0.39233896615E+02 -0.29644116064E+02  0.32883804189E+02  0.59155869013E+02  0.00000000000E+00 0.  1.
</event>
<event>
12    1  0.8251070E-002  0.1771965E+03  0.7818608E-02  0.1171150E+00
         21   -1    0    0  501  502  0.00000000000E+00  0.00000000000E+00  0.58931836065E+03  0.58931836065E+03  0.00000000000E+00 0.  1.
         21   -1    0    0  502  503 -0.00000000000E+00 -0.00000000000E+00 -0.63785398716E+02  0.63785398716E+02  0.00000000000E+00 0.  1.
         -6    2    1    2    0  503  0.20722904966E+02  0.32669156002E+02  0.12422009920E+03  0.21441182798E+03  0.17042619043E+03 0.  0.
        -24    2    3    3    0    0 -0.70839847099E+01 -0.42909194321E+02  0.86381190866E+02  0.12530973409E+03  0.79683357895E+02 0.  0.
          6    2    1    2  501    0 -0.20722904966E+02 -0.32669156002E+02  0.40131286273E+03  0.43869193139E+03  0.17292161325E+03 0.  0.
         24    2    5    5    0    0  0.12601549845E+01 -0.66086368682E+02  0.37869329344E+03  0.39249994136E+03  0.79237600652E+02 0.  0.
          5    1    5    5  501    0 -0.21983059950E+02  0.33417212680E+02  0.22619569298E+02  0.46191990034E+02  0.47000000000E+01 0. -1.
        -13    1    6    6    0    0 -0.21105149429E+02  0.95171187444E+01  0.63284760382E+02  0.67386673596E+02  0.00000000000E+00 0.  1.
         14    1    6    6    0    0  0.22365304414E+02 -0.75603487426E+02  0.31540853305E+03  0.32511326776E+03  0.00000000000E+00 0. -1.
         -5    1    3    3    0  503  0.27806889675E+02  0.75578350323E+02  0.37838908337E+02  0.89102093887E+02  0.47000000000E+01 0.  1.
         13    1    4    4    0    0  0.19376543052E+02 -0.55928377097E+02  0.44335561974E+02  0.73953200342E+02  0.00000000000E+00 0. -1.
        -14    1    4    4    0    0 -0.26460527762E+02  0.13019182776E+02  0.42045628893E+02  0.51356533748E+02  0.00000000000E+00 0.  1.
</event>
<event>
12    1  0.8251070E-002  0.1969267E+03  0.7818608E-02  0.1155689E+00
         21   -1    0    0  501  502  0.00000000000E+00  0.00000000000E+00  0.10065884053E+04  0.10065884053E+04  0.00000000000E+00 0. -1.
         21   -1    0    0  502  503 -0.00000000000E+00 -0.00000000000E+00 -0.47144509149E+02  0.47144509149E+02  0.00000000000E+00 0. -1.
         -6    2    1    2    0  503  0.34468967943E+02  0.49459298396E+02  0.20581287364E+03  0.27479784581E+03  0.17181555563E+03 0.  0.
        -24    2    3    3    0    0 -0.21354365040E+02  0.42524725868E+02  0.43311409668E+02  0.10277125312E+03  0.80135454345E+02 0.  0.
          6    2    1    2  501    0 -0.34468967943E+02 -0.49459298396E+02  0.75363102254E+03  0.77893506866E+03  0.18747210756E+03 0.  0.
         24    2    5    5    0    0  0.44851992547E+02 -0.15605516993E+02  0.23350178658E+03  0.25168332102E+03  0.81031946483E+02 0.  0.
          5    1    5    5  501    0 -0.79320960490E+02 -0.33853781403E+02  0.52012923596E+03  0.52725174764E+03  0.47000000000E+01 0. -1.
        -11    1    6    6    0    0  0.32194684902E+02 -0.48715977157E+02  0.15034876123E+03  0.16129009321E+03  0.00000000000E+00 0.  1.
         12    1    6    6    0    0  0.12657307645E+02  0.33110460164E+02  0.83153025348E+02  0.90393227808E+02  0.00000000000E+00 0. -1.
         -5    1    3    3    0  503  0.55823332983E+02  0.69345725281E+01  0.16250146397E+03  0.17202659269E+03  0.47000000000E+01 0.  1.
         11    1    4    4    0    0  0.16613799282E+02 -0.21784453709E+01 -0.13195554055E+02  0.21328070650E+02  0.00000000000E+00 0. -1.
        -12    1    4    4    0    0 -0.37968164322E+02  0.44703171239E+02  0.56506963723E+02  0.81443182465E+02  0.00000000000E+00 0.  1.
</event>
<event>
12    1  0.8251070E-002  0.1865747E+03  0.7818608E-02  0.1162848E+00
         21   -1    0    0  503  502  0.00000000000E+00  0.00000000000E+00  0.17066179510E+03  0.17066179510E+03  0.00000000000E+00 0.  1.
         21   -1    0    0  501  503 -0.00000000000E+00 -0.00000000000E+00 -0.29722853000E+03  0.29722853000E+03  0.00000000000E+00 0.  1.
          6    2    1    2  501    0  0.58489616502E+02 -0.40276720589E+02 -0.19896957733E+03  0.27276181536E+03  0.17253076755E+03 0.  0.
         24    2    3    3    0    0  0.10360112208E+03 -0.14048633950E+02 -0.11931862779E+03  0.17742386789E+03  0.79446443272E+02 0.  0.
         -6    2    1    2    0  502 -0.58489616502E+02  0.40276720589E+02  0.72402842430E+02  0.19512850974E+03  0.16670247227E+03 0.  0.
        -24    2    5    5    0    0 -0.66461384771E+02  0.12167962460E+02 -0.11825650469E+02  0.10585264296E+03  0.80621095484E+02 0.  0.
          5    1    3    3  501    0 -0.45111505573E+02 -0.26228086639E+02 -0.79650949546E+02  0.95337947468E+02  0.47000000000E+01 0. -1.
        -11    1    4    4    0    0  0.59690516378E+02 -0.36774810832E+02 -0.10444159775E+03  0.12579106406E+03  0.00000000000E+00 0.  1.
         12    1    4    4    0    0  0.43910605698E+02  0.22726176882E+02 -0.14877030038E+02  0.51632803828E+02  0.00000000000E+00 0. -1.
         -5    1    5    5    0  502  0.79717682687E+01  0.28108758130E+02  0.84228492899E+02  0.89275866778E+02  0.47000000000E+01 0.  1.
         11    1    6    6    0    0  0.67373673412E+01 -0.58693159916E+01  0.21608437386E+02  0.23383018521E+02  0.00000000000E+00 0. -1.
        -12    1    6    6    0    0 -0.73198752112E+02  0.18037278451E+02 -0.33434087855E+02  0.82469624441E+02  0.00000000000E+00 0.  1.
</event>
<event>
12    1  0.8251070E-002  0.2121490E+03  0.7818608E-02  0.1139981E+00
         21   -1    0    0  503  502  0.00000000000E+00  0.00000000000E+00  0.23512491214E+03  0.23512491214E+03  0.00000000000E+00 0. -1.
         21   -1    0    0  501  503 -0.00000000000E+00 -0.00000000000E+00 -0.21816272678E+03  0.21816272678E+03  0.00000000000E+00 0. -1.
          6    2    1    2  501    0 -0.14273576065E+02  0.12289964827E+03 -0.71584368095E+02  0.22390066285E+03  0.17233434525E+03 0.  0.
         24    2    3    3    0    0  0.31686637183E+02  0.49700853343E+01 -0.40911829491E+02  0.93583290103E+02  0.77815870297E+02 0.  0.
         -6    2    1    2    0  502  0.14273576065E+02 -0.12289964827E+03  0.88546553459E+02  0.22938697607E+03  0.17166780171E+03 0.  0.
        -24    2    5    5    0    0 -0.23200870411E+02 -0.21702048260E+02 -0.61718482251E+01  0.85724336516E+02  0.79380796633E+02 0.  0.
          5    1    3    3  501    0 -0.45960213249E+02  0.11792956293E+03 -0.30672538604E+02  0.13031737275E+03  0.47000000000E+01 0. -1.
        -11    1    4    4    0    0  0.53377870233E+02 -0.10056682639E+02 -0.14435014297E+02  0.56202344560E+02  0.00000000000E+00 0.  1.
         12    1    4    4    0    0 -0.21691233049E+02  0.15026767973E+02 -0.26476815194E+02  0.37380945543E+02  0.00000000000E+00 0. -1.
         -5    1    5    5    0  502  0.37474446476E+02 -0.10119760001E+03  0.94718401684E+02  0.14366263955E+03  0.47000000000E+01 0.  1.
         11    1    6    6    0    0 -0.21107279065E+02 -0.47885618351E+02  0.12119183218E+02  0.53716145397E+02  0.00000000000E+00 0. -1.
        -12    1    6    6    0    0 -0.20935913462E+01  0.26183570092E+02 -0.18291031443E+02  0.32008191119E+02  0.00000000000E+00 0.  1.
</event>
<event>
12    1  0.8251070E-002  0.1808256E+03  0.7818608E-02  0.1167082E+00
         21   -1    0    0  501  502  0.00000000000E+00  0.00000000000E+00  0.16088827248E+04  0.16088827248E+04  0.00000000000E+00 0.  1.
         21   -1    0    0  502  503 -0.00000000000E+00 -0.00000000000E+00 -0.32371014452E+02  0.32371014452E+02  0.00000000000E+00 0.  1.
         -6    2    1    2    0  503  0.31521571011E+02 -0.45063139026E+02  0.28732230638E+03  0.33948786099E+03  0.17226028004E+03 0.  0.
        -24    2    3    3    0    0  0.50084730661E+02 -0.53294973994E+02  0.59853389188E+02  0.11106598750E+03  0.58347158312E+02 0.  0.
          6    2    1    2  501    0 -0.31521571011E+02  0.45063139026E+02  0.12891894040E+04  0.13017658783E+04  0.17193250581E+03 0.  0.
         24    2    5    5    0    0 -0.56615040379E+02 -0.21247237984E+02  0.94198197917E+03  0.94736238767E+03  0.80676741238E+02 0.  0.
          5    1    5    5  501    0  0.25093469368E+02  0.66310377010E+02  0.34720742484E+03  0.35440349062E+03  0.47000000000E+01 0. -1.
        -11    1    6    6    0    0 -0.53492904254E+02  0.63311873275E+01  0.83833188110E+03  0.84006066305E+03  0.00000000000E+00 0.  1.
         12    1    6    6    0    0 -0.31221361253E+01 -0.27578425312E+02  0.10365009807E+03  0.10730172462E+03  0.00000000000E+00 0. -1.
         -5    1    3    3    0  503 -0.18563159650E+02  0.82318349683E+01  0.22746891719E+03  0.22842187350E+03  0.47000000000E+01 0.  1.
         13    1    4    4    0    0  0.34831745522E+02 -0.33204310427E+02  0.69095063844E+02  0.84201571094E+02  0.00000000000E+00 0. -1.
        -14    1    4    4    0    0  0.15252985139E+02 -0.20090663567E+02 -0.92416746568E+01  0.26864416403E+02  0.00000000000E+00 0.  1.
</event>
<event>
12    1  0.8251070E-002  0.3322010E+03  0.7818608E-02  0.1070210E+00
         21   -1    0    0  503  502  0.00000000000E+00  0.00000000000E+00  0.25508659817E+03  0.25508659817E+03  0.00000000000E+00 0. -1.
         21   -1    0    0  501  503 -0.00000000000E+00 -0.00000000000E+00 -0.45855975041E+03  0.45855975041E+03  0.00000000000E+00 0. -1.
          6    2    1    2  501    0 -0.27099438947E+03  0.83969740968E+02 -0.18746616537E+03  0.38144599835E+03  0.17282537422E+03 0.  0.
         24    2    3    3    0    0 -0.11950772253E+03  0.86975335721E+02 -0.46974661369E+02  0.17476460935E+03  0.80555850834E+02 0.  0.
         -6    2    1    2    0  502  0.27099438947E+03 -0.83969740968E+02 -0.16006986876E+02  0.33220035023E+03  0.17208129632E+03 0.  0.
        -24    2    5    5    0    0  0.21091046879E+03 -0.60457556708E+02  0.50975073307E+02  0.23907899544E+03  0.80137169591E+02 0.  0.
          5    1    3    3  501    0 -0.15148666695E+03 -0.30055947530E+01 -0.14049150400E+03  0.20668138900E+03  0.47000000000E+01 0. -1.
        -11    1    4    4    0    0 -0.30146432358E+02 -0.58672733840E+01 -0.33108210763E+02  0.45159560459E+02  0.00000000000E+00 0.  1.
         12    1    4    4    0    0 -0.89361290168E+02  0.92842609105E+02 -0.13866450606E+02  0.12960504889E+03  0.00000000000E+00 0. -1.
         -5    1    5    5    0  502  0.60083920680E+02 -0.23512184259E+02 -0.66982060184E+02  0.93121354797E+02  0.47000000000E+01 0.  1.
         13    1    6    6    0    0  0.12986173689E+03 -0.13541892951E+02 -0.37378979342E+01  0.13061939157E+03  0.00000000000E+00 0. -1.
        -14    1    6    6    0    0  0.81048731905E+02 -0.46915663758E+02  0.54712971242E+02  0.10845960387E+03  0.00000000000E+00 0.  1.
</event>
<event>
12    1  0.8251070E-002  0.2332203E+03  0.7818608E-02  0.1124401E+00
         21   -1    0    0  503  502  0.00000000000E+00  0.00000000000E+00  0.24494855691E+04  0.24494855691E+04  0.00000000000E+00 0. -1.
         21   -1    0    0  501  503 -0.00000000000E+00 -0.00000000000E+00 -0.64281606746E+02  0.64281606746E+02  0.00000000000E+00 0. -1.
          6    2    1    2  501    0  0.78689975648E+02  0.13606685259E+03  0.17570894990E+03  0.29200227438E+03  0.17229449361E+03 0.  0.
         24    2    3    3    0    0  0.11541618775E+02  0.11524412515E+03  0.53595041146E+02  0.15101864228E+03  0.80745182742E+02 0.  0.
         -6    2    1    2    0  502 -0.78689975648E+02 -0.13606685259E+03  0.22094950124E+04  0.22217649015E+04  0.17223462686E+03 0.  0.
        -24    2    5    5    0    0 -0.56625692441E+02 -0.16616654304E+03  0.16908641528E+04  0.17017717452E+04  0.78661938252E+02 0.  0.
          5    1    3    3  501    0  0.67148356873E+02  0.20822727442E+02  0.12211390875E+03  0.14098363210E+03  0.47000000000E+01 0. -1.
        -13    1    4    4    0    0  0.12750413924E+02  0.51787057734E+02  0.67517305386E+02  0.86041030507E+02  0.00000000000E+00 0.  1.
         14    1    4    4    0    0 -0.12087951495E+01  0.63457067411E+02 -0.13922264240E+02  0.64977611773E+02  0.00000000000E+00 0. -1.
         -5    1    5    5    0  502 -0.22064283207E+02  0.30099690455E+02  0.51863085964E+03  0.51999315623E+03  0.47000000000E+01 0.  1.
         11    1    6    6    0    0 -0.72932713774E+02 -0.98114417800E+02  0.10440838238E+04  0.10512167478E+04  0.00000000000E+00 0. -1.
        -12    1    6    6    0    0  0.16307021334E+02 -0.68052125242E+02  0.64678032901E+03  0.65055499744E+03  0.00000000000E+00 0.  1.
</event>
<event>
12    1  0.8251070E-002  0.1857989E+03  0.7818608E-02  0.1162378E+00
         21   -1    0    0  501  502  0.00000000000E+00  0.00000000000E+00  0.26433000848E+02  0.26433000848E+02  0.00000000000E+00 0. -1.
         21   -1    0    0  502  503 -0.00000000000E+00 -0.00000000000E+00 -0.13129658691E+04  0.13129658691E+04  0.00000000000E+00 0. -1.
         -6    2    1    2    0  503 -0.68721519192E+02  0.10799075047E+02 -0.69869351423E+03  0.72289555347E+03  0.17194791996E+03 0.  0.
        -24    2    3    3    0    0 -0.83538746384E+02  0.56795744619E+02 -0.60563674459E+03  0.61793415004E+03  0.69586411315E+02 0.  0.
          6    2    1    2  501    0  0.68721519192E+02 -0.10799075047E+02 -0.58783935402E+03  0.61650331648E+03  0.17228454913E+03 0.  0.
         24    2    5    5    0    0  0.13517440723E+02 -0.22677362260E+00 -0.12050357376E+03  0.14577612866E+03  0.80912272049E+02 0.  0.
          5    1    5    5  501    0  0.55204078469E+02 -0.10572301424E+02 -0.46733578026E+03  0.47072718782E+03  0.47000000000E+01 0. -1.
        -11    1    6    6    0    0 -0.12386166993E+02  0.35571649547E+02 -0.60285408619E+02  0.71085088989E+02  0.00000000000E+00 0.  1.
         12    1    6    6    0    0  0.25903607716E+02 -0.35798423169E+02 -0.60218165143E+02  0.74691039672E+02  0.00000000000E+00 0. -1.
         -5    1    3    3    0  503  0.14817227192E+02 -0.45996669572E+02 -0.93056769636E+02  0.10496140342E+03  0.47000000000E+01 0.  1.
         13    1    4    4    0    0 -0.49480120268E+02  0.14613229534E+02 -0.45350937975E+03  0.45643464625E+03  0.00000000000E+00 0. -1.
        -14    1    4    4    0    0 -0.34058626116E+02  0.42182515085E+02 -0.15212736484E+03  0.16149950380E+03  0.00000000000E+00 0.  1.
</event>
<event>
12    1  0.8251070E-002  0.2004710E+03  0.7818608E-02  0.1149719E+00
         21   -1    0    0  503  502  0.00000000000E+00  0.00000000000E+00  0.51599902100E+03  0.51599902100E+03  0.00000000000E+00 0. -1.
         21   -1    0    0  501  503 -0.00000000000E+00 -0.00000000000E+00 -0.32026187546E+03  0.32026187546E+03  0.00000000000E+00 0.  1.
          6    2    1    2  501    0 -0.10333915994E+03 -0.85012122128E+01 -0.26629484726E+03  0.33331900999E+03  0.17157320350E+03 0.  0.
         24    2    3    3    0    0  0.12655081385E+02  0.15003276997E+02 -0.10945393528E+03  0.13677820837E+03  0.79642105256E+02 0.  0.
         -6    2    1    2    0  502  0.10333915994E+03  0.85012122128E+01  0.46203199280E+03  0.50294188647E+03  0.16948665496E+03 0.  0.
        -24    2    5    5    0    0  0.13874404705E+02  0.54134592760E+02  0.22732258837E+03  0.24760496713E+03  0.80682137585E+02 0.  0.
          5    1    3    3  501    0 -0.11599424132E+03 -0.23504489210E+02 -0.15684091198E+03  0.19654080163E+03  0.47000000000E+01 0. -1.
        -13    1    4    4    0    0 -0.20543420515E+02 -0.37003166588E+01 -0.92929139451E+02  0.95244681893E+02  0.00000000000E+00 0.  1.
         14    1    4    4    0    0  0.33198501900E+02  0.18703593656E+02 -0.16524795831E+02  0.41533526473E+02  0.00000000000E+00 0. -1.
         -5    1    5    5    0  502  0.89464755235E+02 -0.45633380547E+02  0.23470940442E+03  0.25533691933E+03  0.47000000000E+01 0.  1.
         13    1    6    6    0    0  0.32912736551E+02  0.12373048876E+02  0.34009396379E+02  0.48918090803E+02  0.00000000000E+00 0. -1.
        -14    1    6    6    0    0 -0.19038331846E+02  0.41761543884E+02  0.19331319200E+03  0.19868687633E+03  0.00000000000E+00 0.  1.
</event>
<event>
12    1  0.8251070E-002  0.2053922E+03  0.7818608E-02  0.1145361E+00
         21   -1    0    0  503  502  0.00000000000E+00  0.00000000000E+00  0.97425200804E+02  0.97425200804E+02  0.00000000000E+00 0.  1.
         21   -1    0    0  501  503 -0.00000000000E+00 -0.00000000000E+00 -0.60505987066E+03  0.60505987066E+03  0.00000000000E+00 0.  1.
          6    2    1    2  501    0 -0.97359538524E+02  0.55971003131E+02 -0.44143705435E+03  0.48668867843E+03  0.17142801355E+03 0.  0.
         24    2    3    3    0    0 -0.98977884024E+02  0.66617082269E+02 -0.20574174833E+03  0.25070070136E+03  0.79288823184E+02 0.  0.
         -6    2    1    2    0  502  0.97359538524E+02 -0.55971003131E+02 -0.66197615506E+02  0.21579639303E+03  0.17197187564E+03 0.  0.
        -24    2    5    5    0    0  0.91676904156E+02 -0.65360782936E+02 -0.10402491543E+03  0.17612959434E+03  0.86739634952E+02 0.  0.
          5    1    3    3  501    0  0.16183455009E+01 -0.10646079138E+02 -0.23569530602E+03  0.23598797707E+03  0.47000000000E+01 0. -1.
        -13    1    4    4    0    0 -0.28566851301E+02  0.25506681850E+02 -0.11414423890E+02  0.39961792815E+02  0.00000000000E+00 0.  1.
         14    1    4    4    0    0 -0.70411032724E+02  0.41110400419E+02 -0.19432732444E+03  0.21073890855E+03  0.00000000000E+00 0. -1.
         -5    1    5    5    0  502  0.56826343671E+01  0.93897798055E+01  0.37827299925E+02  0.39666798683E+02  0.47000000000E+01 0.  1.
         13    1    6    6    0    0 -0.39046466568E+01  0.41094522311E+01 -0.42564892818E+02  0.42940702879E+02  0.00000000000E+00 0. -1.
        -14    1    6    6    0    0  0.95581550813E+02 -0.69470235168E+02 -0.61460022613E+02  0.13318889147E+03  0.00000000000E+00 0.  1.
</event>
<event>
12    1  0.8251070E-002  0.2534165E+03  0.7818608E-02  0.1111538E+00
         21   -1    0    0  501  502  0.00000000000E+00  0.00000000000E+00  0.90374532503E+03  0.90374532503E+03  0.00000000000E+00 0. -1.
         21   -1    0    0  502  503 -0.00000000000E+00 -0.00000000000E+00 -0.70643526740E+02  0.70643526740E+02  0.00000000000E+00 0.  1.
         -6    2    1    2    0  503 -0.14229366505E+03 -0.11917395200E+03  0.44376346287E+03  0.50984145868E+03  0.16900409481E+03 0.  0.
        -24    2    3    3    0    0 -0.10344822370E+03 -0.38693642336E+02  0.36897866157E+03  0.39321854042E+03  0.79226478504E+02 0.  0.
          6    2    1    2  501    0  0.14229366505E+03  0.11917395200E+03  0.38933833542E+03  0.46454739309E+03  0.17253991726E+03 0.  0.
         24    2    5    5    0    0  0.16339502570E+03  0.62802893472E+02  0.30042184422E+03  0.35707090231E+03  0.81266271873E+02 0.  0.
          5    1    5    5  501    0 -0.21101360654E+02  0.56371058530E+02  0.88916491201E+02  0.10747649077E+03  0.47000000000E+01 0. -1.
        -13    1    6    6    0    0  0.66025940321E+02  0.65272866509E+02  0.11669735099E+03  0.14912492624E+03  0.00000000000E+00 0.  1.
         14    1    6    6    0    0  0.97369085381E+02 -0.24699730368E+01  0.18372449322E+03  0.20794597607E+03  0.00000000000E+00 0. -1.
         -5    1    3    3    0  503 -0.38845441349E+02 -0.80480309665E+02  0.74784801302E+02  0.11662291826E+03  0.47000000000E+01 0.  1.
         13    1    4    4    0    0 -0.31624663115E+02 -0.61435668204E+01  0.23921149620E+03  0.24137108908E+03  0.00000000000E+00 0. -1.
        -14    1    4    4    0    0 -0.71823560584E+02 -0.32550075516E+02  0.12976716537E+03  0.15184745134E+03  0.00000000000E+00 0.  1.
</event>
<event>
12    1  0.8251070E-002  0.1893991E+03  0.7818608E-02  0.1159046E+00
         21   -1    0    0  501  502  0.00000000000E+00  0.00000000000E+00  0.10818946994E+03  0.10818946994E+03  0.00000000000E+00 0.  1.
         21   -1    0    0  502  503 -0.00000000000E+00 -0.00000000000E+00 -0.37634823751E+03  0.37634823751E+03  0.00000000000E+00 0.  1.
         -6    2    1    2    0  503 -0.55649586592E+02  0.53681143494E+02 -0.50266956765E+02  0.19595604581E+03  0.17289726224E+03 0.  0.
        -24    2    3    3    0    0 -0.50109551307E+02  0.13725742078E+02 -0.93213589836E+02  0.13684911402E+03  0.85671136036E+02 0.  0.
          6    2    1    2  501    0  0.55649586592E+02 -0.53681143494E+02 -0.21789181080E+03  0.28858166164E+03  0.17269624364E+03 0.  0.
         24    2    5    5    0    0  0.56091012805E+02 -0.67640260812E+02 -0.23658835100E+03  0.26477614907E+03  0.80068437494E+02 0.  0.
          5    1    5    5  501    0 -0.44142621338E+00  0.13959117318E+02  0.18696540206E+02  0.23805512578E+02  0.47000000000E+01 0. -1.
        -13    1    6    6    0    0  0.52526877461E+02 -0.47035327764E+02 -0.23315790340E+03  0.24358571968E+03  0.00000000000E+00 0.  1.
         14    1    6    6    0    0  0.35641353441E+01 -0.20604933048E+02 -0.34304475995E+01  0.21190429382E+02  0.00000000000E+00 0. -1.
         -5    1    3    3    0  503 -0.55400352844E+01  0.39955401416E+02  0.42946633071E+02  0.59106931788E+02  0.47000000000E+01 0.  1.
         11    1    4    4    0    0 -0.15008798121E-01  0.34931432782E+02 -0.81346752876E+01  0.35866114419E+02  0.00000000000E+00 0. -1.
        -12    1    4    4    0    0 -0.50094542509E+02 -0.21205690704E+02 -0.85078914548E+02  0.10098299960E+03  0.00000000000E+00 0.  1.
</event>
<event>
12    1  0.8251070E-002  0.1997796E+03  0.7818608E-02  0.1149985E+00
         21   -1    0    0  501  502  0.00000000000E+00  0.00000000000E+00  0.55403547191E+02  0.55403547191E+02  0.00000000000E+00 0.  1.
         21   -1    0    0  502  503 -0.00000000000E+00 -0.00000000000E+00 -0.29293803039E+04  0.29293803039E+04  0.00000000000E+00 0. -1.
         -6    2    1    2    0  503 -0.87055343161E+02  0.53801403581E+02 -0.27330000317E+04  0.27402713968E+04  0.17124523650E+03 0.  0.
        -24    2    3    3    0    0 -0.54919047067E+02  0.11477265569E+02 -0.73568053726E+03  0.74223953342E+03  0.80906382419E+02 0.  0.
          6    2    1    2  501    0  0.87055343161E+02 -0.53801403581E+02 -0.14097672502E+03  0.24451245431E+03  0.17157703667E+03 0.  0.
         24    2    5    5    0    0  0.10827648805E+03 -0.31335325526E+02 -0.48239991211E+02  0.14664901143E+03  0.80455797250E+02 0.  0.
          5    1    5    5  501    0 -0.21221144891E+02 -0.22466078055E+02 -0.92736733810E+02  0.97863442875E+02  0.47000000000E+01 0. -1.
        -13    1    6    6    0    0  0.52859263250E+02 -0.43219082116E+02 -0.57444630695E+02  0.89229346999E+02  0.00000000000E+00 0.  1.
         14    1    6    6    0    0  0.55417224803E+02  0.11883756590E+02  0.92046394841E+01  0.57419664433E+02  0.00000000000E+00 0. -1.
         -5    1    3    3    0  503 -0.32136296094E+02  0.42324138012E+02 -0.19973194944E+04  0.19980318633E+04  0.47000000000E+01 0.  1.
         11    1    4    4    0    0 -0.54624605113E+02  0.39242423897E+02 -0.42129121024E+03  0.42662641637E+03  0.00000000000E+00 0. -1.
        -12    1    4    4    0    0 -0.29444195420E+00 -0.27765158328E+02 -0.31438932701E+03  0.31561311705E+03  0.00000000000E+00 0.  1.
</event>
<event>
12    1  0.8251070E-002  0.2421154E+03  0.7818608E-02  0.1118412E+00
         21   -1    0    0  501  502  0.00000000000E+00  0.00000000000E+00  0.14860999707E+03  0.14860999707E+03  0.00000000000E+00 0. -1.
         21   -1    0    0  502  503 -0.00000000000E+00 -0.00000000000E+00 -0.39432261813E+03  0.39432261813E+03  0.00000000000E+00 0. -1.
         -6    2    1    2    0  503  0.59433099773E+02  0.15944620278E+03 -0.11918278575E+03  0.26974828071E+03  0.17205875042E+03 0.  0.
        -24    2    3    3    0    0  0.95525599063E+02  0.14389775514E+03 -0.12758898533E+03  0.22928623775E+03  0.80383615455E+02 0.  0.
          6    2    1    2  501    0 -0.59433099773E+02 -0.15944620278E+03 -0.12652983531E+03  0.27318433449E+03  0.17223384237E+03 0.  0.
         24    2    5    5    0    0 -0.20419780586E+02 -0.17139242021E+03 -0.13318774264E+03  0.23157701645E+03  0.78080795409E+02 0.  0.
          5    1    5    5  501    0 -0.39013319187E+02  0.11946217425E+02  0.66579073368E+01  0.41607318044E+02  0.47000000000E+01 0. -1.
        -13    1    6    6    0    0 -0.14546073482E+01  0.16600750199E+01  0.74552412305E+01  0.77751111513E+01  0.00000000000E+00 0.  1.
         14    1    6    6    0    0 -0.18965173238E+02 -0.17305249523E+03 -0.14064298387E+03  0.22380190530E+03  0.00000000000E+00 0. -1.
         -5    1    3    3    0  503 -0.36092499290E+02  0.15548447644E+02  0.84061995784E+01  0.40462042960E+02  0.47000000000E+01 0.  1.
         13    1    4    4    0    0  0.65671193568E+02  0.12952986042E+03 -0.66363350093E+02  0.15967086347E+03  0.00000000000E+00 0. -1.
        -14    1    4    4    0    0  0.29854405494E+02  0.14367894716E+02 -0.61225635233E+02  0.69615374276E+02  0.00000000000E+00 0.  1.
</event>
<event>
12    1  0.8251070E-002  0.1881536E+03  0.7818608E-02  0.1160268E+00
         21   -1    0    0  503  502  0.00000000000E+00  0.00000000000E+00  0.41712811084E+02  0.41712811084E+02  0.00000000000E+00 0.  1.
         21   -1    0    0  501  503 -0.00000000000E+00 -0.00000000000E+00 -0.84993328091E+03  0.84993328091E+03  0.00000000000E+00 0.  1.
          6    2    1    2  501    0  0.75738718760E+02 -0.61761181905E+01 -0.43333161787E+03  0.47218999182E+03  0.17150101858E+03 0.  0.
         24    2    3    3    0    0  0.80356052686E+02  0.39553351579E+02 -0.19445139099E+03  0.22888286703E+03  0.80959622888E+02 0.  0.
         -6    2    1    2    0  502 -0.75738718760E+02  0.61761181905E+01 -0.37488885196E+03  0.41945610017E+03  0.17212574095E+03 0.  0.
        -24    2    5    5    0    0 -0.94502524627E+02 -0.16819582609E+02 -0.36855518499E+03  0.38874636225E+03  0.77956297141E+02 0.  0.
          5    1    3    3  501    0 -0.46173339264E+01 -0.45729469770E+02 -0.23888022689E+03  0.24330712479E+03  0.47000000000E+01 0. -1.
        -11    1    4    4    0    0  0.92377607606E+02  0.15265035853E+02 -0.15059263188E+03  0.17732677317E+03  0.00000000000E+00 0.  1.
         12    1    4    4    0    0 -0.12021554920E+02  0.24288315726E+02 -0.43858759111E+02  0.51556093862E+02  0.00000000000E+00 0. -1.
         -5    1    5    5    0  502  0.18763805867E+02  0.22995700800E+02 -0.63336669679E+01  0.30709737921E+02  0.47000000000E+01 0.  1.
         13    1    6    6    0    0 -0.65354107942E+01  0.25113650748E+02 -0.67757726166E+02  0.72556987971E+02  0.00000000000E+00 0. -1.
        -14    1    6    6    0    0 -0.87967113833E+02 -0.41933233358E+02 -0.30079745882E+03  0.31618937428E+03  0.00000000000E+00 0.  1.
</event>
<event>
12    1  0.8251070E-002  0.2217757E+03  0.7818608E-02  0.1132619E+00
         21   -1    0    0  503  502  0.00000000000E+00  0.00000000000E+00  0.65602967137E+02  0.65602967137E+02  0.00000000000E+00 0.  1.
         21   -1    0    0  501  503 -0.00000000000E+00 -0.00000000000E+00 -0.78198374312E+03  0.78198374312E+03  0.00000000000E+00 0. -1.
          6    2    1    2  501    0  0.54953757025E+02 -0.12934015324E+03 -0.44577041669E+03  0.49789128168E+03  0.17156827600E+03 0.  0.
         24    2    3    3    0    0  0.67778053968E+02 -0.14009428702E+03 -0.44752663504E+03  0.48041878076E+03  0.79384141907E+02 0.  0.
         -6    2    1    2    0  502 -0.54953757025E+02  0.12934015324E+03 -0.27061035930E+03  0.34969542858E+03  0.17119619026E+03 0.  0.
        -24    2    5    5    0    0 -0.57640151958E+02  0.96371640093E+01 -0.15108500089E+03  0.18044879302E+03  0.79497341830E+02 0.  0.
          5    1    3    3  501    0 -0.12824296943E+02  0.10754133779E+02  0.17562183499E+01  0.17472500918E+02  0.47000000000E+01 0. -1.
        -13    1    4    4    0    0  0.78047657718E+02 -0.86392122092E+02 -0.25581345722E+03  0.28106148887E+03  0.00000000000E+00 0.  1.
         14    1    4    4    0    0 -0.10269603750E+02 -0.53702164925E+02 -0.19171317782E+03  0.19935729189E+03  0.00000000000E+00 0. -1.
         -5    1    5    5    0  502  0.26863949332E+01  0.11970298923E+03 -0.11952535841E+03  0.16924663557E+03  0.47000000000E+01 0.  1.
         13    1    6    6    0    0 -0.39769075486E+02  0.22945095810E+02 -0.15135468339E+03  0.15816541016E+03  0.00000000000E+00 0. -1.
        -14    1    6    6    0    0 -0.17871076472E+02 -0.13307931800E+02  0.26968249268E+00  0.22283382860E+02  0.00000000000E+00 0.  1.
</event>
<event>
12    1  0.8251070E-002  0.1780006E+03  0.7818608E-02  0.1169937E+00
         21   -1    0    0  501  502  0.00000000000E+00  0.00000000000E+00  0.74696045285E+02  0.74696045285E+02  0.00000000000E+00 0.  1.
         21   -1    0    0  502  503 -0.00000000000E+00 -0.00000000000E+00 -0.12912829944E+04  0.12912829944E+04  0.00000000000E+00 0.  1.
         -6    2    1    2    0  503  0.36266476562E+02  0.24241300928E+02 -0.11681293916E+04  0.11815004619E+04  0.17179688042E+03 0.  0.
        -24    2    3    3    0    0  0.23966947379E+02  0.82195814325E+02 -0.80388652354E+03  0.81244089906E+03  0.80598419834E+02 0.  0.
          6    2    1    2  501    0 -0.36266476562E+02 -0.24241300928E+02 -0.48457557554E+02  0.18447857775E+03  0.17257263043E+03 0.  0.
         24    2    5    5    0    0 -0.41103600331E+02 -0.79312253433E+02 -0.20499873377E+02  0.12235024540E+03  0.81051824391E+02 0.  0.
          5    1    5    5  501    0  0.48371237688E+01  0.55070952505E+02 -0.27957684177E+02  0.62128332351E+02  0.47000000000E+01 0. -1.
        -13    1    6    6    0    0 -0.52150231960E+02 -0.14076100162E+02 -0.40315605835E+01  0.54166749672E+02  0.00000000000E+00 0.  1.
         14    1    6    6    0    0  0.11046631629E+02 -0.65236153271E+02 -0.16468312793E+02  0.68183495732E+02  0.00000000000E+00 0. -1.
         -5    1    3    3    0  503  0.12299529183E+02 -0.57954513397E+02 -0.36424286803E+03  0.36905956288E+03  0.47000000000E+01 0.  1.
         13    1    4    4    0    0 -0.84984921708E+01 -0.65323945032E+01 -0.27315020368E+03  0.27336044029E+03  0.00000000000E+00 0. -1.
        -14    1    4    4    0    0  0.32465439550E+02  0.88728208828E+02 -0.53073631986E+03  0.53908045877E+03  0.00000000000E+00 0.  1.
</event>
<event>
12    1  0.8251070E-002  0.1936469E+03  0.7818608E-02  0.1155699E+00
         21   -1    0    0  503  502  0.00000000000E+00  0.00000000000E+00  0.11553376424E+03  0.11553376424E+03  0.00000000000E+00 0. -1.
         21   -1    0    0  501  503 -0.00000000000E+00 -0.00000000000E+00 -0.32360341022E+03  0.32360341022E+03  0.00000000000E+00 0. -1.
          6    2    1    2  501    0  0.77022277911E+02 -0.42765135629E+02 -0.84543305701E+02  0.21129764694E+03  0.17244662056E+03 0.  0.
         24    2    3    3    0    0  0.10367332326E+03 -0.56556366638E+02 -0.26181645745E+02  0.14550517303E+03  0.80867151794E+02 0.  0.
         -6    2    1    2    0  502 -0.77022277911E+02  0.42765135629E+02 -0.12352634028E+03  0.22783952751E+03  0.16997295501E+03 0.  0.
        -24    2    5    5    0    0 -0.74693462243E+02 -0.35353417493E+02 -0.48935100389E+02  0.11970130674E+03  0.71447752621E+02 0.  0.
          5    1    3    3  501    0 -0.26651045353E+02  0.13791231009E+02 -0.58361659956E+02  0.65792473916E+02  0.47000000000E+01 0. -1.
        -11    1    4    4    0    0  0.79777028068E+02 -0.51061104448E+02  0.16631447927E+02  0.96167643493E+02  0.00000000000E+00 0.  1.
         12    1    4    4    0    0  0.23896295196E+02 -0.54952621901E+01 -0.42813093672E+02  0.49337529532E+02  0.00000000000E+00 0. -1.
         -5    1    5    5    0  502 -0.23288156676E+01  0.78118553122E+02 -0.74591239890E+02  0.10813822078E+03  0.47000000000E+01 0.  1.
         13    1    6    6    0    0 -0.39416703222E+02 -0.44604762274E+02 -0.56928690311E+02  0.82365873339E+02  0.00000000000E+00 0. -1.
        -14    1    6    6    0    0 -0.35276759021E+02  0.92513447816E+01  0.79935899212E+01  0.37335433400E+02  0.00000000000E+00 0.  1.
</event>
<event>
12    1  0.8251070E-002  0.1882528E+03  0.7818608E-02  0.1160222E+00
         21   -1    0    0  503  502  0.00000000000E+00  0.00000000000E+00  0.69710942875E+03  0.69710942875E+03  0.00000000000E+00 0.  1.
         21   -1    0    0  501  503 -0.00000000000E+00 -0.00000000000E+00 -0.52143817529E+02  0.52143817529E+02  0.00000000000E+00 0.  1.
          6    2    1    2  501    0 -0.16633550222E+02  0.76028424869E+02  0.38695093401E+03  0.43031400733E+03  0.17141214423E+03 0.  0.
         24    2    3    3    0    0 -0.48038023151E+02  0.10646477171E+03  0.26445387998E+03  0.30015936709E+03  0.80730364382E+02 0.  0.
         -6    2    1    2    0  502  0.16633550222E+02 -0.76028424869E+02  0.25801467720E+03  0.31893923895E+03  0.17056866097E+03 0.  0.
        -24    2    5    5    0    0  0.15141200784E+01  0.25357652335E+02  0.12794119678E+03  0.15326204037E+03  0.80467385271E+02 0.  0.
          5    1    3    3  501    0  0.31404472929E+02 -0.30436346840E+02  0.12249705403E+03  0.13015464024E+03  0.47000000000E+01 0. -1.
        -13    1    4    4    0    0  0.13544622491E+02  0.66319085866E+02  0.11109112439E+03  0.13008810809E+03  0.00000000000E+00 0.  1.
         14    1    4    4    0    0 -0.61582645642E+02  0.40145685844E+02  0.15336275559E+03  0.17007125900E+03  0.00000000000E+00 0. -1.
         -5    1    5    5    0  502  0.15119430144E+02 -0.10138607720E+03  0.13007348042E+03  0.16567719858E+03  0.47000000000E+01 0.  1.
         13    1    6    6    0    0 -0.37332097432E+02  0.24545629971E+02  0.79156199592E+02  0.90894869950E+02  0.00000000000E+00 0. -1.
        -14    1    6    6    0    0  0.38846217511E+02  0.81202236429E+00  0.48784997188E+02  0.62367170417E+02  0.00000000000E+00 0.  1.
</event>
<event>
12    1  0.8251070E-002  0.1906089E+03  0.7818608E-02  0.1158605E+00
         21   -1    0    0  501  502  0.00000000000E+00  0.00000000000E+00  0.22724816825E+03  0.22724816825E+03  0.00000000000E+00 0.  1.
         21   -1    0    0  502  503 -0.00000000000E+00 -0.00000000000E+00 -0.22095795844E+03  0.22095795844E+03  0.00000000000E+00 0. -1.
         -6    2    1    2    0  503  0.78820678938E+02  0.23201466166E+02 -0.11713236226E+03  0.22112708934E+03  0.16860068770E+03 0.  0.
        -24    2    3    3    0    0  0.28651117917E+02 -0.77098632051E+00 -0.13733667383E+03  0.16178092235E+03  0.80561925739E+02 0.  0.
          6    2    1    2  501    0 -0.78820678938E+02 -0.23201466166E+02  0.12342257207E+03  0.22707903735E+03  0.17199055336E+03 0.  0.
         24    2    5    5    0    0 -0.66829070932E+01 -0.63239719730E+02  0.95132867491E+02  0.13973307430E+03  0.80194427346E+02 0.  0.
          5    1    5    5  501    0 -0.72137771844E+02  0.40038253564E+02  0.28289704581E+02  0.87345963046E+02  0.47000000000E+01 0. -1.
        -13    1    6    6    0    0  0.16653123197E+02  0.11501293545E+02  0.37138956882E+02  0.42295488929E+02  0.00000000000E+00 0.  1.
         14    1    6    6    0    0 -0.23336030291E+02 -0.74741013276E+02  0.57993910609E+02  0.97437585371E+02  0.00000000000E+00 0. -1.
         -5    1    3    3    0  503  0.50169561020E+02  0.23972452487E+02  0.20204311571E+02  0.59346166997E+02  0.47000000000E+01 0.  1.
         11    1    4    4    0    0  0.80154125803E+01  0.39474032236E+02 -0.64175266295E+02  0.75768798749E+02  0.00000000000E+00 0. -1.
        -12    1    4    4    0    0  0.20635705337E+02 -0.40245018556E+02 -0.73161407534E+02  0.86012123597E+02  0.00000000000E+00 0.  1.
</event>
<event>
12    1  0.8251070E-002  0.1904249E+03  0.7818608E-02  0.1159089E+00
         21   -1    0    0  501  502  0.00000000000E+00  0.00000000000E+00  0.59175683383E+03  0.59175683383E+03  0.00000000000E+00 0.  1.
         21   -1    0    0  502  503 -0.00000000000E+00 -0.00000000000E+00 -0.96927722134E+02  0.96927722134E+02  0.00000000000E+00 0. -1.
         -6    2    1    2    0  503  0.55830936301E+02 -0.56726870060E+02  0.36275683624E+02  0.19384932352E+03  0.17299307435E+03 0.  0.
        -24    2    3    3    0    0 -0.11438322407E+01  0.22090870137E+01 -0.33147589466E+02  0.86326060306E+02  0.79669552421E+02 0.  0.
          6    2    1    2  501    0 -0.55830936301E+02  0.56726870060E+02  0.45855342807E+03  0.49483523244E+03  0.16809410945E+03 0.  0.
         24    2    5    5    0    0 -0.35894781606E+02  0.50544344793E+02  0.46236952942E+03  0.47310215828E+03  0.78720418551E+02 0.  0.
          5    1    5    5  501    0 -0.19936154695E+02  0.61825252674E+01 -0.38161013518E+01  0.21733074155E+02  0.47000000000E+01 0. -1.
        -13    1    6    6    0    0 -0.19430583207E+02 -0.18056523551E+02  0.80116403820E+02  0.84393268497E+02  0.00000000000E+00 0.  1.
         14    1    6    6    0    0 -0.16464198399E+02  0.68600868343E+02  0.38225312560E+03  0.38870888978E+03  0.00000000000E+00 0. -1.
         -5    1    3    3    0  503  0.56974768541E+02 -0.58935957074E+02  0.69423273091E+02  0.10752326322E+03  0.47000000000E+01 0.  1.
         13    1    4    4    0    0 -0.11071602271E+02  0.21172953203E+02  0.18630396856E+02  0.30297953911E+02  0.00000000000E+00 0. -1.
        -14    1    4    4    0    0  0.99277700300E+01 -0.18963866190E+02 -0.51777986322E+02  0.56028106395E+02  0.00000000000E+00 0.  1.
</event>
<event>
12    1  0.8251070E-002  0.1908893E+03  0.7818608E-02  0.1157783E+00
         21   -1    0    0  503  502  0.00000000000E+00  0.00000000000E+00  0.12574791157E+03  0.12574791157E+03  0.00000000000E+00 0.  1.
         21   -1    0    0  501  503 -0.00000000000E+00 -0.00000000000E+00 -0.53464883554E+03  0.53464883554E+03  0.00000000000E+00 0.  1.
          6    2    1    2  501    0  0.18388326380E+02  0.76643009200E+02 -0.42844584992E+03  0.46904645477E+03  0.17385755378E+03 0.  0.
         24    2    3    3    0    0  0.28723546121E+02  0.73876118144E+02 -0.43902357843E+03  0.45328413281E+03  0.80262567261E+02 0.  0.
         -6    2    1    2    0  502 -0.18388326380E+02 -0.76643009200E+02  0.19544925947E+02  0.19135029234E+03  0.17326467858E+03 0.  0.
        -24    2    5    5    0    0 -0.75401801357E+02 -0.34017179124E+02  0.30282903703E+02  0.11920535569E+03  0.80313525914E+02 0.  0.
          5    1    3    3  501    0 -0.10335219740E+02  0.27668910555E+01  0.10577728508E+02  0.15762321960E+02  0.47000000000E+01 0. -1.
        -13    1    4    4    0    0  0.10156940630E+02  0.57012429187E+02 -0.11965276856E+03  0.13292992721E+03  0.00000000000E+00 0.  1.
         14    1    4    4    0    0  0.18566605491E+02  0.16863688957E+02 -0.31937080987E+03  0.32035420560E+03  0.00000000000E+00 0. -1.
         -5    1    5    5    0  502  0.57013474977E+02 -0.42625830076E+02 -0.10737977756E+02  0.72144936655E+02  0.47000000000E+01 0.  1.
         11    1    6    6    0    0  0.11782647052E+01  0.18499267674E+02 -0.60409278471E+01  0.19496256601E+02  0.00000000000E+00 0. -1.
        -12    1    6    6    0    0 -0.76580066063E+02 -0.52516446798E+02  0.36323831550E+02  0.99709099088E+02  0.00000000000E+00 0.  1.
</event>
<event>
12    1  0.8251070E-002  0.2398825E+03  0.7818608E-02  0.1119937E+00
         21   -1    0    0  501  502  0.00000000000E+00  0.00000000000E+00  0.87260158868E+03  0.87260158868E+03  0.00000000000E+00 0.  1.
         21   -1    0    0  502  503 -0.00000000000E+00 -0.00000000000E+00 -0.30903472162E+03  0.30903472162E+03  0.00000000000E+00 0. -1.
         -6    2    1    2    0  503 -0.16687247834E+03 -0.12448559158E+02 -0.24228706725E+03  0.34094963069E+03  0.17187855322E+03 0.  0.
        -24    2    3    3    0    0 -0.91437630794E+02 -0.16062388783E+02 -0.23474501164E+03  0.26490721758E+03  0.80322928085E+02 0.  0.
          6    2    1    2  501    0  0.16687247834E+03  0.12448559158E+02  0.80585393431E+03  0.84068667962E+03  0.17132466022E+03 0.  0.
         24    2    5    5    0    0  0.38751565064E+02  0.51313293419E+02  0.29287553871E+03  0.31050335251E+03  0.80631959382E+02 0.  0.
          5    1    5    5  501    0  0.12812091327E+03 -0.38864734260E+02  0.51297839560E+03  0.53018332710E+03  0.47000000000E+01 0. -1.
        -11    1    6    6    0    0  0.34498967180E+02  0.38687614820E+02  0.29262270670E+03  0.29717832820E+03  0.00000000000E+00 0.  1.
         12    1    6    6    0    0  0.42525978841E+01  0.12625678598E+02  0.25283200457E+00  0.13325024310E+02  0.00000000000E+00 0. -1.
         -5    1    3    3    0  503 -0.75434847543E+02  0.36138296246E+01 -0.75420556056E+01  0.76042413107E+02  0.47000000000E+01 0.  1.
         13    1    4    4    0    0 -0.34428312593E+02 -0.42885288240E+02 -0.14647182731E+03  0.15645591344E+03  0.00000000000E+00 0. -1.
        -14    1    4    4    0    0 -0.57009318201E+02  0.26822899457E+02 -0.88273184338E+02  0.10845130414E+03  0.00000000000E+00 0.  1.
</event>
<event>
12    1  0.8251070E-002  0.2559258E+03  0.7818608E-02  0.1110567E+00
         21   -1    0    0  503  502  0.00000000000E+00  0.00000000000E+00  0.10338272149E+03  0.10338272149E+03  0.00000000000E+00 0.  1.
         21   -1    0    0  501  503 -0.00000000000E+00 -0.00000000000E+00 -0.81653611790E+03  0.81653611790E+03  0.00000000000E+00 0.  1.
          6    2    1    2  501    0 -0.14094030921E+03 -0.12249820113E+03 -0.58635931284E+03  0.63977749405E+03  0.17500862294E+03 0.  0.
         24    2    3    3    0    0  0.25494612582E+01 -0.53071043887E+02 -0.24401724618E+03  0.26211411882E+03  0.79601252481E+02 0.  0.
         -6    2    1    2    0  502  0.14094030921E+03  0.12249820113E+03 -0.12679408357E+03  0.28014134535E+03  0.16592906227E+03 0.  0.
        -24    2    5    5    0    0  0.32007840086E+02  0.54267368409E+00 -0.49469324782E+02  0.99197592138E+02  0.79800700936E+02 0.  0.
          5    1    3    3  501    0 -0.14348977046E+03 -0.69427157243E+02 -0.34234206666E+03  0.37766337523E+03  0.47000000000E+01 0. -1.
        -11    1    4    4    0    0  0.19736048283E+02  0.14227814703E+02 -0.42617605613E+02  0.49073441098E+02  0.00000000000E+00 0.  1.
         12    1    4    4    0    0 -0.17186587024E+02 -0.67298858591E+02 -0.20139964057E+03  0.21304067772E+03  0.00000000000E+00 0. -1.
         -5    1    5    5    0  502  0.10893246912E+03  0.12195552745E+03 -0.77324758790E+02  0.18094375321E+03  0.47000000000E+01 0.  1.
         13    1    6    6    0    0  0.38530461516E+02  0.32826335907E+02 -0.41131997925E+02  0.65222741793E+02  0.00000000000E+00 0. -1.
        -14    1    6    6    0    0 -0.65226214294E+01 -0.32283662223E+02 -0.83373268574E+01  0.33974850345E+02  0.00000000000E+00 0.  1.
</event>
<event>
12    1  0.8251070E-002  0.2849891E+03  0.7818608E-02  0.1093534E+00
         21   -1    0    0  501  502  0.00000000000E+00  0.00000000000E+00  0.66701411478E+03  0.66701411478E+03  0.00000000000E+00 0. -1.
         21   -1    0    0  502  503 -0.00000000000E+00 -0.00000000000E+00 -0.43231307349E+03  0.43231307349E+03  0.00000000000E+00 0.  1.
         -6    2    1    2    0  503 -0.22162203191E+03  0.17561966561E+02 -0.34956117268E+03  0.45101195675E+03  0.17830878831E+03 0.  0.
        -24    2    3    3    0    0 -0.22417647086E+03  0.12979724304E+02 -0.23151828180E+03  0.33275910820E+03  0.81880070540E+02 0.  0.
          6    2    1    2  501    0  0.22162203191E+03 -0.17561966561E+02  0.58426221397E+03  0.64831523152E+03  0.17183002369E+03 0.  0.
         24    2    5    5    0    0  0.16735529613E+03 -0.69031691404E+02  0.48777072745E+03  0.52614032346E+03  0.78295516163E+02 0.  0.
          5    1    5    5  501    0  0.54266735781E+02  0.51469724842E+02  0.96491486521E+02  0.12217490806E+03  0.47000000000E+01 0. -1.
        -11    1    6    6    0    0  0.67860386839E+02  0.33385297986E+01  0.11476972310E+03  0.13337266296E+03  0.00000000000E+00 0.  1.
         12    1    6    6    0    0  0.99494909288E+02 -0.72370221202E+02  0.37300100435E+03  0.39276766050E+03  0.00000000000E+00 0. -1.
         -5    1    3    3    0  503  0.25544389531E+01  0.45822422575E+01 -0.11804289089E+03  0.11825284856E+03  0.47000000000E+01 0.  1.
         11    1    4    4    0    0 -0.10442895895E+03  0.42337599825E+02 -0.84278685291E+02  0.14071523237E+03  0.00000000000E+00 0. -1.
        -12    1    4    4    0    0 -0.11974751191E+03 -0.29357875522E+02 -0.14723959650E+03  0.19204387583E+03  0.00000000000E+00 0.  1.
</event>
<event>
12    1  0.8251070E-002  0.2109298E+03  0.7818608E-02  0.1141371E+00
         21   -1    0    0  503  502  0.00000000000E+00  0.00000000000E+00  0.10941116277E+03  0.10941116277E+03  0.00000000000E+00 0. -1.
         21   -1    0    0  501  503 -0.00000000000E+00 -0.00000000000E+00 -0.50253716180E+03  0.50253716180E+03  0.00000000000E+00 0. -1.
          6    2    1    2  501    0 -0.60038168055E+02  0.10192910860E+03 -0.58293931477E+02  0.21621623093E+03  0.17133928699E+03 0.  0.
         24    2    3    3    0    0 -0.75464085712E+02  0.56265626535E+01 -0.28797131544E+02  0.11421480693E+03  0.80555948868E+02 0.  0.
         -6    2    1    2    0  502  0.60038168055E+02 -0.10192910860E+03 -0.33483206755E+03  0.39573209364E+03  0.17463462334E+03 0.  0.
        -24    2    5    5    0    0 -0.11640116803E+02 -0.52081289818E+01 -0.93477804051E+02  0.12597906783E+03  0.83486578297E+02 0.  0.
          5    1    3    3  501    0  0.15425917657E+02  0.96302545946E+02 -0.29496799933E+02  0.10200142400E+03  0.47000000000E+01 0. -1.
        -13    1    4    4    0    0 -0.46236048034E+02  0.27473812455E+02 -0.48781515809E+02  0.72610046091E+02  0.00000000000E+00 0.  1.
         14    1    4    4    0    0 -0.29228037678E+02 -0.21847249801E+02  0.19984384265E+02  0.41604760843E+02  0.00000000000E+00 0. -1.
         -5    1    5    5    0  502  0.71678284858E+02 -0.96720979618E+02 -0.24135426350E+03  0.26975302580E+03  0.47000000000E+01 0.  1.
         11    1    6    6    0    0  0.89481497638E+01 -0.40807785122E+02 -0.59118086777E+02  0.72389867350E+02  0.00000000000E+00 0. -1.
        -12    1    6    6    0    0 -0.20588266567E+02  0.35599656140E+02 -0.34359717274E+02  0.53589200485E+02  0.00000000000E+00 0.  1.
</event>
<event>
12    1  0.8251070E-002  0.2458309E+03  0.7818608E-02  0.1115991E+00
         21   -1    0    0  503  502  0.00000000000E+00  0.00000000000E+00  0.41014084347E+03  0.41014084347E+03  0.00000000000E+00 0. -1.
         21   -1    0    0  501  503 -0.00000000000E+00 -0.00000000000E+00 -0.26321397865E+03  0.26321397865E+03  0.00000000000E+00 0.  1.
          6    2    1    2  501    0  0.12520138225E+03  0.12210649513E+03 -0.15000607512E+03  0.28786552901E+03  0.17256696657E+03 0.  0.
         24    2    3    3    0    0  0.15362269251E+03  0.74609949000E+02 -0.99287738606E+02  0.21264497045E+03  0.78697218987E+02 0.  0.
         -6    2    1    2    0  502 -0.12520138225E+03 -0.12210649513E+03  0.29693293995E+03  0.38548929311E+03  0.17276412245E+03 0.  0.
        -24    2    5    5    0    0 -0.48430489977E+02 -0.21863475388E+02  0.22003995081E+03  0.23758035259E+03  0.72134042371E+02 0.  0.
          5    1    3    3  501    0 -0.28421310266E+02  0.47496546129E+02 -0.50718336515E+02  0.75220558561E+02  0.47000000000E+01 0. -1.
        -11    1    4    4    0    0  0.10056871175E+03  0.63725760162E+02 -0.10426207303E+03  0.15825807456E+03  0.00000000000E+00 0.  1.
         12    1    4    4    0    0  0.53053980762E+02  0.10884188838E+02  0.49743344272E+01  0.54386895888E+02  0.00000000000E+00 0. -1.
         -5    1    5    5    0  502 -0.76770892268E+02 -0.10024301974E+03  0.76892989135E+02  0.14790894052E+03  0.47000000000E+01 0.  1.
         11    1    6    6    0    0 -0.53361425870E+02 -0.38997874391E+02  0.20057417654E+03  0.21118303974E+03  0.00000000000E+00 0. -1.
        -12    1    6    6    0    0  0.49309358931E+01  0.17134399002E+02  0.19465774273E+02  0.26397312856E+02  0.00000000000E+00 0.  1.
</event>
<event>
12    1  0.8251070E-002  0.4890695E+03  0.7818608E-02  0.1016682E+00
         21   -1    0    0  503  502  0.00000000000E+00  0.00000000000E+00  0.12192089902E+03  0.12192089902E+03  0.00000000000E+00 0. -1.
         21   -1    0    0  501  503 -0.00000000000E+00 -0.00000000000E+00 -0.24338525180E+04  0.24338525180E+04  0.00000000000E+00 0.  1.
          6    2    1    2  501    0 -0.44018062927E+02 -0.45583183927E+03 -0.59269778206E+03  0.76832999286E+03  0.17123101794E+03 0.  0.
         24    2    3    3    0    0 -0.77534847153E+02 -0.36637946804E+03 -0.52942804008E+03  0.65365544558E+03  0.82011125983E+02 0.  0.
         -6    2    1    2    0  502  0.44018062927E+02  0.45583183927E+03 -0.17192338369E+04  0.17874434242E+04  0.17166465285E+03 0.  0.
        -24    2    5    5    0    0 -0.29523660342E+02  0.19441979291E+03 -0.62567194389E+03  0.66065846380E+03  0.79583428017E+02 0.  0.
          5    1    3    3  501    0  0.33516784226E+02 -0.89452371227E+02 -0.63269741982E+02  0.11467454728E+03  0.47000000000E+01 0. -1.
        -11    1    4    4    0    0  0.11467345300E+01 -0.19263524564E+03 -0.26586634234E+03  0.32832082610E+03  0.00000000000E+00 0.  1.
         12    1    4    4    0    0 -0.78681581683E+02 -0.17374422241E+03 -0.26356169774E+03  0.32533461948E+03  0.00000000000E+00 0. -1.
         -5    1    5    5    0  502  0.73541723270E+02  0.26141204636E+03 -0.10935618930E+04  0.11267849604E+04  0.47000000000E+01 0.  1.
         11    1    6    6    0    0 -0.41161962642E+02  0.95851840852E+02 -0.41293222234E+03  0.42590480487E+03  0.00000000000E+00 0. -1.
        -12    1    6    6    0    0  0.11638302300E+02  0.98567952057E+02 -0.21273972155E+03  0.23475365893E+03  0.00000000000E+00 0.  1.
</event>
<event>
12    1  0.8251070E-002  0.1882247E+03  0.7818608E-02  0.1160443E+00
         21   -1    0    0  503  502  0.00000000000E+00  0.00000000000E+00  0.33528106624E+03  0.33528106624E+03  0.00000000000E+00 0. -1.
         21   -1    0    0  501  503 -0.00000000000E+00 -0.00000000000E+00 -0.11508308533E+03  0.11508308533E+03  0.00000000000E+00 0. -1.
          6    2    1    2  501    0 -0.28713946291E+02  0.70920737950E+02  0.43094962503E+02  0.19309506193E+03  0.17197175746E+03 0.  0.
         24    2    3    3    0    0 -0.83008392828E+02  0.51764799496E+02  0.46449537814E+02  0.13523160128E+03  0.80994065674E+02 0.  0.
         -6    2    1    2    0  502  0.28713946291E+02 -0.70920737950E+02  0.17710301840E+03  0.25726908964E+03  0.17019889417E+03 0.  0.
        -24    2    5    5    0    0  0.12179998644E+02  0.19351505870E+02  0.27874086711E+02  0.82015520544E+02  0.73666462883E+02 0.  0.
          5    1    3    3  501    0  0.54294446537E+02  0.19155938454E+02 -0.33545753110E+01  0.57863460650E+02  0.47000000000E+01 0. -1.
        -13    1    4    4    0    0 -0.62743546733E+02  0.92507731098E+01 -0.72155586983E+01  0.63830977958E+02  0.00000000000E+00 0.  1.
         14    1    4    4    0    0 -0.20264846095E+02  0.42514026386E+02  0.53665096512E+02  0.71400623320E+02  0.00000000000E+00 0. -1.
         -5    1    5    5    0  502  0.16533947647E+02 -0.90272243820E+02  0.14922893169E+03  0.17525356910E+03  0.47000000000E+01 0.  1.
         11    1    6    6    0    0 -0.13446358722E+02 -0.23481448843E+02  0.12345339436E+02  0.29742064630E+02  0.00000000000E+00 0. -1.
        -12    1    6    6    0    0  0.25626357366E+02  0.42832954713E+02  0.15528747275E+02  0.52273455914E+02  0.00000000000E+00 0.  1.
</event>
<event>
12    1  0.8251070E-002  0.2042701E+03  0.7818608E-02  0.1148676E+00
         21   -1    0    0  503  502  0.00000000000E+00  0.00000000000E+00  0.95165852103E+02  0.95165852103E+02  0.00000000000E+00 0. -1.
         21   -1    0    0  501  503 -0.00000000000E+00 -0.00000000000E+00 -0.14420794198E+04  0.14420794198E+04  0.00000000000E+00 0. -1.
          6    2    1    2  501    0  0.85164539608E+02  0.28052193547E+02 -0.13167638118E+04  0.13307621340E+04  0.17035550202E+03 0.  0.
         24    2    3    3    0    0 -0.60229703032E+01  0.51611041759E+02 -0.54162302141E+03  0.54990650324E+03  0.79634723451E+02 0.  0.
         -6    2    1    2    0  502 -0.85164539608E+02 -0.28052193547E+02 -0.30149755916E+02  0.20648313784E+03  0.18353842666E+03 0.  0.
        -24    2    5    5    0    0 -0.67692340981E+02  0.44507126136E+02  0.20109916758E+02  0.11638176552E+03  0.81099749001E+02 0.  0.
          5    1    3    3  501    0  0.91187509911E+02 -0.23558848212E+02 -0.77514079034E+03  0.78085563079E+03  0.47000000000E+01 0. -1.
        -13    1    4    4    0    0 -0.76258341449E+01  0.13418170076E+02 -0.45454998650E+03  0.45481192911E+03  0.00000000000E+00 0.  1.
         14    1    4    4    0    0  0.16028638417E+01  0.38192871683E+02 -0.87073034910E+02  0.95094574126E+02  0.00000000000E+00 0. -1.
         -5    1    5    5    0  502 -0.17472198627E+02 -0.72559319683E+02 -0.50259672674E+02  0.90101372326E+02  0.47000000000E+01 0.  1.
         11    1    6    6    0    0 -0.62799874013E+01 -0.13194005905E+02  0.28165927193E+02  0.31730734126E+02  0.00000000000E+00 0. -1.
        -12    1    6    6    0    0 -0.61412353579E+02  0.57701132042E+02 -0.80560104350E+01  0.84651031389E+02  0.00000000000E+00 0.  1.
</event>
<event>
12    1  0.8251070E-002  0.3096651E+03  0.7818608E-02  0.1080529E+00
         21   -1    0    0  501  502  0.00000000000E+00  0.00000000000E+00  0.19824069659E+03  0.19824069659E+03  0.00000000000E+00 0.  1.
         21   -1    0    0  502  503 -0.00000000000E+00 -0.00000000000E+00 -0.61481534410E+03  0.61481534410E+03  0.00000000000E+00 0.  1.
         -6    2    1    2    0  503 -0.11604162956E+03  0.22956277959E+03 -0.20404942424E+02  0.31033661850E+03  0.17241730058E+03 0.  0.
        -24    2    3    3    0    0 -0.87681100330E+02  0.17199680608E+03 -0.78936866070E+02  0.22335249920E+03  0.79902649618E+02 0.  0.
          6    2    1    2  501    0  0.11604162956E+03 -0.22956277959E+03 -0.39616970508E+03  0.50271942219E+03  0.17208036685E+03 0.  0.
         24    2    5    5    0    0  0.67857251022E+02 -0.37606867283E+02 -0.16272595906E+03  0.19663629759E+03  0.78531603803E+02 0.  0.
          5    1    5    5  501    0  0.48184378539E+02 -0.19195591231E+03 -0.23344374602E+03  0.30608312460E+03  0.47000000000E+01 0. -1.
        -13    1    6    6    0    0  0.30759519720E+02 -0.39510807037E+02 -0.14874320250E+03  0.15694518857E+03  0.00000000000E+00 0.  1.
         14    1    6    6    0    0  0.37097731302E+02  0.19039397539E+01 -0.13982756562E+02  0.39691109022E+02  0.00000000000E+00 0. -1.
         -5    1    3    3    0  503 -0.28360529231E+02  0.57565973511E+02  0.58531923646E+02  0.86984119299E+02  0.47000000000E+01 0.  1.
         11    1    4    4    0    0 -0.87023967081E+01  0.10091851823E+03 -0.25670801653E+02  0.10449530653E+03  0.00000000000E+00 0. -1.
        -12    1    4    4    0    0 -0.78978703622E+02  0.71078287852E+02 -0.53266064417E+02  0.11885719267E+03  0.00000000000E+00 0.  1.
</event>
<event>
12    1  0.8251070E-002  0.2819372E+03  0.7818608E-02  0.1094910E+00
         21   -1    0    0  501  502  0.00000000000E+00  0.00000000000E+00  0.11857491226E+03  0.11857491226E+03  0.00000000000E+00 0.  1.
         21   -1    0    0  502  503 -0.00000000000E+00 -0.00000000000E+00 -0.82093531479E+03  0.82093531479E+03  0.00000000000E+00 0.  1.
         -6    2    1    2    0  503  0.21177661448E+03  0.63046685449E+02 -0.55451627249E+03  0.62116062603E+03  0.17183715513E+03 0.  0.
        -24    2    3    3    0    0  0.10794602609E+03  0.45664970683E+01 -0.37742450104E+03  0.40765580399E+03  0.10982168772E+03 0.  0.
          6    2    1    2  501    0 -0.21177661448E+03 -0.63046685449E+02 -0.14784413005E+03  0.31834960102E+03  0.17511242872E+03 0.  0.
         24    2    5    5    0    0 -0.11382809634E+03 -0.10278520832E+03 -0.51552462250E+02  0.17528584707E+03  0.67422824426E+02 0.  0.
          5    1    5    5  501    0 -0.97948518147E+02  0.39738522873E+02 -0.96291667796E+02  0.14306375395E+03  0.47000000000E+01 0. -1.
        -13    1    6    6    0    0 -0.44942884232E+02 -0.17323294714E+02 -0.44034790028E+02  0.65261183836E+02  0.00000000000E+00 0.  1.
         14    1    6    6    0    0 -0.68885212106E+02 -0.85461913607E+02 -0.75176722225E+01  0.11002466323E+03  0.00000000000E+00 0. -1.
         -5    1    3    3    0  503  0.10383058839E+03  0.58480188380E+02 -0.17709177145E+03  0.21350482204E+03  0.47000000000E+01 0.  1.
         11    1    4    4    0    0 -0.12700317693E+02  0.28191377552E+02 -0.84483882166E+02  0.89964316168E+02  0.00000000000E+00 0. -1.
        -12    1    4    4    0    0  0.12064634378E+03 -0.23624880483E+02 -0.29294061887E+03  0.31769148782E+03  0.00000000000E+00 0.  1.
</event>
<event>
12    1  0.8251070E-002  0.1938876E+03  0.7818608E-02  0.1155579E+00
         21   -1    0    0  503  502  0.00000000000E+00  0.00000000000E+00  0.23048643444E+03  0.23048643444E+03  0.00000000000E+00 0. -1.
         21   -1    0    0  501  503 -0.00000000000E+00 -0.00000000000E+00 -0.21015073872E+03  0.21015073872E+03  0.00000000000E+00 0. -1.
          6    2    1    2  501    0 -0.59417398245E+02 -0.55989418108E+02 -0.96424317243E+02  0.21654109092E+03  0.17586117521E+03 0.  0.
         24    2    3    3    0    0 -0.10512305804E+03 -0.21750735305E+02 -0.89813429987E+02  0.15886017061E+03  0.75140866253E+02 0.  0.
         -6    2    1    2    0  502  0.59417398245E+02  0.55989418108E+02  0.11676001295E+03  0.22409608224E+03  0.17297662066E+03 0.  0.
        -24    2    5    5    0    0 -0.70184387544E+01  0.80992887972E+02  0.10163945302E+03  0.15136634090E+03  0.77279262175E+02 0.  0.
          5    1    3    3  501    0  0.45705659797E+02 -0.34238682803E+02 -0.66108872559E+01  0.57680920311E+02  0.47000000000E+01 0. -1.
        -13    1    4    4    0    0 -0.80989893985E+02 -0.21731258561E+02 -0.21727706776E+02  0.86623921454E+02  0.00000000000E+00 0.  1.
         14    1    4    4    0    0 -0.24133164058E+02 -0.19476743560E-01 -0.68085723211E+02  0.72236249155E+02  0.00000000000E+00 0. -1.
         -5    1    5    5    0  502  0.66435836999E+02 -0.25003469864E+02  0.15120559937E+02  0.72729741343E+02  0.47000000000E+01 0.  1.
         13    1    6    6    0    0  0.21191014373E+02  0.46714446561E+02  0.92899354521E+02  0.10612063267E+03  0.00000000000E+00 0. -1.
        -14    1    6    6    0    0 -0.28209453128E+02  0.34278441412E+02  0.87400984965E+01  0.45245708228E+02  0.00000000000E+00 0.  1.
</event>
<event>
12    1  0.8251070E-002  0.2182462E+03  0.7818608E-02  0.1135277E+00
         21   -1    0    0  503  502  0.00000000000E+00  0.00000000000E+00  0.18860061305E+03  0.18860061305E+03  0.00000000000E+00 0.  1.
         21   -1    0    0  501  503 -0.00000000000E+00 -0.00000000000E+00 -0.28281815490E+03  0.28281815490E+03  0.00000000000E+00 0.  1.
          6    2    1    2  501    0 -0.12991519883E+03 -0.32788846075E+02 -0.12487760110E+03  0.25144741718E+03  0.17227397086E+03 0.  0.
         24    2    3    3    0    0 -0.67725735460E+02 -0.66964649607E+02 -0.13037973156E+03  0.18011805197E+03  0.79828558196E+02 0.  0.
         -6    2    1    2    0  502  0.12991519883E+03  0.32788846075E+02  0.30660059256E+02  0.21997135077E+03  0.17173901307E+03 0.  0.
        -24    2    5    5    0    0 -0.45860926289E+01  0.18942607513E+01  0.63396583291E+01  0.79762061817E+02  0.79354740048E+02 0.  0.
          5    1    3    3  501    0 -0.62189463371E+02  0.34175803532E+02  0.55021304600E+01  0.71329365208E+02  0.47000000000E+01 0. -1.
        -13    1    4    4    0    0 -0.35956613213E+02  0.12938988732E+02 -0.37333125190E+02  0.53423381582E+02  0.00000000000E+00 0.  1.
         14    1    4    4    0    0 -0.31769122247E+02 -0.79903638339E+02 -0.93046606374E+02  0.12669467039E+03  0.00000000000E+00 0. -1.
         -5    1    5    5    0  502  0.13450129146E+03  0.30894585324E+02  0.24320400927E+02  0.14020928895E+03  0.47000000000E+01 0.  1.
         11    1    6    6    0    0 -0.10282140980E+02  0.21155062042E+02 -0.30071820262E+02  0.38178180247E+02  0.00000000000E+00 0. -1.
        -12    1    6    6    0    0  0.56960483516E+01 -0.19260801290E+02  0.36411478591E+02  0.41583881569E+02  0.00000000000E+00 0.  1.
</event>
<event>
12    1  0.8251070E-002  0.1800668E+03  0.7818608E-02  0.1168886E+00
         21   -1    0    0  501  502  0.00000000000E+00  0.00000000000E+00  0.79334279377E+03  0.79334279377E+03  0.00000000000E+00 0.  1.
         21   -1    0    0  502  503 -0.00000000000E+00 -0.00000000000E+00 -0.73226883377E+02  0.73226883377E+02  0.00000000000E+00 0.  1.
         -6    2    1    2    0  503  0.47834369226E+01  0.10412321424E+01  0.64815331538E+02  0.18697942041E+03  0.17531774303E+03 0.  0.
        -24    2    3    3    0    0  0.18289221367E+02  0.80132341463E+01 -0.32470804568E+02  0.88401038889E+02  0.79760159150E+02 0.  0.
          6    2    1    2  501    0 -0.47834369226E+01 -0.10412321424E+01  0.65530057886E+03  0.67959025674E+03  0.18000028602E+03 0.  0.
         24    2    5    5    0    0 -0.40929197923E+01  0.44771566912E+02  0.59686173186E+03  0.60518274227E+03  0.89336327344E+02 0.  0.
          5    1    5    5  501    0 -0.69051713027E+00 -0.45812799054E+02  0.58438846996E+02  0.74407514468E+02  0.47000000000E+01 0. -1.
        -11    1    6    6    0    0  0.37554913027E+02  0.31782189335E+02  0.42631811374E+03  0.42914754241E+03  0.00000000000E+00 0.  1.
         12    1    6    6    0    0 -0.41647832819E+02  0.12989377577E+02  0.17054361812E+03  0.17603519986E+03  0.00000000000E+00 0. -1.
         -5    1    3    3    0  503 -0.13505784444E+02 -0.69720020039E+01  0.97286136106E+02  0.98578381523E+02  0.47000000000E+01 0.  1.
         13    1    4    4    0    0  0.45580513012E+02  0.14644549582E+02 -0.34253008282E+01  0.47997694577E+02  0.00000000000E+00 0. -1.
        -14    1    4    4    0    0 -0.27291291646E+02 -0.66313154361E+01 -0.29045503740E+02  0.40403344312E+02  0.00000000000E+00 0.  1.
</event>
<event>
12    1  0.8251070E-002  0.1952016E+03  0.7818608E-02  0.1154079E+00
         21   -1    0    0  501  502  0.00000000000E+00  0.00000000000E+00  0.88866061937E+03  0.88866061937E+03  0.00000000000E+00 0.  1.
         21   -1    0    0  502  503 -0.00000000000E+00 -0.00000000000E+00 -0.43800538973E+02  0.43800538973E+02  0.00000000000E+00 0.  1.
         -6    2    1    2    0  503  0.16430765698E+02 -0.90350361923E+02  0.49913285584E+03  0.53594521666E+03  0.17225129757E+03 0.  0.
        -24    2    3    3    0    0 -0.36133867399E+02 -0.36747271293E+01  0.29650899418E+03  0.30933050920E+03  0.80303301927E+02 0.  0.
          6    2    1    2  501    0 -0.16430765698E+02  0.90350361923E+02  0.34572722456E+03  0.39651594169E+03  0.17106846657E+03 0.  0.
         24    2    5    5    0    0 -0.62269893735E+02  0.10302718295E+03  0.28311724378E+03  0.31775029471E+03  0.79484186930E+02 0.  0.
          5    1    5    5  501    0  0.45839128037E+02 -0.12676821032E+02  0.62609980777E+02  0.78765646976E+02  0.47000000000E+01 0. -1.
        -11    1    6    6    0    0 -0.13553288243E+01  0.69237545092E+02  0.98319504507E+02  0.12025971700E+03  0.00000000000E+00 0.  1.
         12    1    6    6    0    0 -0.60914564910E+02  0.33789637862E+02  0.18479773927E+03  0.19749057771E+03  0.00000000000E+00 0. -1.
         -5    1    3    3    0  503  0.52564633097E+02 -0.86675634794E+02  0.20262386166E+03  0.22661470745E+03  0.47000000000E+01 0.  1.
         11    1    4    4    0    0  0.13569486034E+02  0.26322890657E+02  0.85630141619E+02  0.90606548756E+02  0.00000000000E+00 0. -1.
        -12    1    4    4    0    0 -0.49703353434E+02 -0.29997617787E+02  0.21087885256E+03  0.21872396044E+03  0.00000000000E+00 0.  1.
</event>
<event>
12    1  0.8251070E-002  0.1894406E+03  0.7818608E-02  0.1159124E+00
         21   -1    0    0  503  502  0.00000000000E+00  0.00000000000E+00  0.44028704764E+03  0.44028704764E+03  0.00000000000E+00 0. -1.
         21   -1    0    0  501  503 -0.00000000000E+00 -0.00000000000E+00 -0.88769609652E+02  0.88769609652E+02  0.00000000000E+00 0.  1.
          6    2    1    2  501    0  0.66860025373E-01  0.79513821736E+02  0.98871723549E+02  0.21368982771E+03  0.17194555077E+03 0.  0.
         24    2    3    3    0    0  0.41854761323E+02  0.10221469485E+03  0.47922281357E+02  0.14383645273E+03  0.78693806591E+02 0.  0.
         -6    2    1    2    0  502 -0.66860025373E-01 -0.79513821736E+02  0.25264571444E+03  0.31536682958E+03  0.17118390070E+03 0.  0.
        -24    2    5    5    0    0  0.16825211741E+01  0.22173441310E+02  0.14755625111E+03  0.16904784550E+03  0.79434466387E+02 0.  0.
          5    1    3    3  501    0 -0.41787901297E+02 -0.22700873117E+02  0.50949442192E+02  0.69853374970E+02  0.47000000000E+01 0. -1.
        -13    1    4    4    0    0  0.42641175480E+02  0.31182879546E+02  0.50046165649E+02  0.72768540725E+02  0.00000000000E+00 0.  1.
         14    1    4    4    0    0 -0.78641415772E+00  0.71031815306E+02 -0.21238842922E+01  0.71067912010E+02  0.00000000000E+00 0. -1.
         -5    1    5    5    0  502 -0.17493811994E+01 -0.10168726305E+03  0.10508946333E+03  0.14631898408E+03  0.47000000000E+01 0.  1.
         11    1    6    6    0    0  0.63406412186E+01 -0.27198263639E+02  0.27688645389E+02  0.39326967332E+02  0.00000000000E+00 0. -1.
        -12    1    6    6    0    0 -0.46581200445E+01  0.49371704949E+02  0.11986760572E+03  0.12972087817E+03  0.00000000000E+00 0.  1.
</event>
<event>
12    1  0.8251070E-002  0.1832600E+03  0.7818608E-02  0.1165605E+00
         21   -1    0    0  501  502  0.00000000000E+00  0.00000000000E+00  0.34017927067E+04  0.34017927067E+04  0.00000000000E+00 0. -1.
         21   -1    0    0  502  503 -0.00000000000E+00 -0.00000000000E+00 -0.11324145268E+02  0.11324145268E+02  0.00000000000E+00 0. -1.
         -6    2    1    2    0  503 -0.94193204588E+01 -0.53052302516E+02  0.10269469867E+04  0.10425012233E+04  0.17112982445E+03 0.  0.
        -24    2    3    3    0    0 -0.62681178994E+02 -0.25039547281E+02  0.82914870543E+03  0.83569747556E+03  0.79666717104E+02 0.  0.
          6    2    1    2  501    0  0.94193204588E+01  0.53052302516E+02  0.23635215748E+04  0.23706156286E+04  0.17515979554E+03 0.  0.
         24    2    5    5    0    0 -0.17659562140E+01  0.45475063713E+00  0.50076296208E+03  0.50707508655E+03  0.79738784853E+02 0.  0.
          5    1    5    5  501    0  0.11185276673E+02  0.52597551879E+02  0.18627586127E+04  0.18635405421E+04  0.47000000000E+01 0. -1.
        -11    1    6    6    0    0 -0.20802495175E+02  0.14554253960E+02  0.45347579478E+03  0.45418593832E+03  0.00000000000E+00 0.  1.
         12    1    6    6    0    0  0.19036538961E+02 -0.14099503323E+02  0.47287167297E+02  0.52889148230E+02  0.00000000000E+00 0. -1.
         -5    1    3    3    0  503  0.53261858535E+02 -0.28012755235E+02  0.19779828126E+03  0.20680374779E+03  0.47000000000E+01 0.  1.
         13    1    4    4    0    0  0.18651167903E+01 -0.80228175686E+01  0.48854211621E+03  0.48861154671E+03  0.00000000000E+00 0. -1.
        -14    1    4    4    0    0 -0.64546295784E+02 -0.17016729713E+02  0.34060658922E+03  0.34708592885E+03  0.00000000000E+00 0.  1.
</event>
<event>
12    1  0.8251070E-002  0.3240477E+03  0.7818608E-02  0.1074003E+00
         21   -1    0    0  503  502  0.00000000000E+00  0.00000000000E+00  0.40609298227E+03  0.40609298227E+03  0.00000000000E+00 0.  1.
         21   -1    0    0  501  503 -0.00000000000E+00 -0.00000000000E+00 -0.47556335492E+03  0.47556335492E+03  0.00000000000E+00 0. -1.
          6    2    1    2  501    0 -0.57626588796E+02 -0.26873603544E+03 -0.33341969903E+03  0.46371354833E+03  0.16829045939E+03 0.  0.
         24    2    3    3    0    0 -0.35886961337E+02 -0.27624025889E+03 -0.26951014589E+03  0.39562944038E+03  0.79311920519E+02 0.  0.
         -6    2    1    2    0  502  0.57626588796E+02  0.26873603544E+03  0.26394932638E+03  0.41794278886E+03  0.17165968479E+03 0.  0.
        -24    2    5    5    0    0  0.25227592007E+02  0.12762300126E+03  0.50369641113E+02  0.15987117987E+03  0.78087332889E+02 0.  0.
          5    1    3    3  501    0 -0.21739627459E+02  0.75042234485E+01 -0.63909553144E+02  0.68084107945E+02  0.47000000000E+01 0. -1.
        -13    1    4    4    0    0 -0.30807027097E+01 -0.48822216698E+02 -0.11723044196E+02  0.50304366984E+02  0.00000000000E+00 0.  1.
         14    1    4    4    0    0 -0.32806258627E+02 -0.22741804219E+03 -0.25778710169E+03  0.34532507340E+03  0.00000000000E+00 0. -1.
         -5    1    5    5    0  502  0.32398996789E+02  0.14111303418E+03  0.21357968527E+03  0.25807160899E+03  0.47000000000E+01 0.  1.
         13    1    6    6    0    0 -0.22314384274E+02  0.57318989909E+02  0.65574657141E+00  0.61512830802E+02  0.00000000000E+00 0. -1.
        -14    1    6    6    0    0  0.47541976280E+02  0.70304011353E+02  0.49713894542E+02  0.98358349068E+02  0.00000000000E+00 0.  1.
</event>
<event>
12    1  0.8251070E-002  0.2783128E+03  0.7818608E-02  0.1096653E+00
         21   -1    0    0  503  502  0.00000000000E+00  0.00000000000E+00  0.10916911299E+03  0.10916911299E+03  0.00000000000E+00 0. -1.
         21   -1    0    0  501  503 -0.00000000000E+00 -0.00000000000E+00 -0.71979863095E+03  0.71979863095E+03  0.00000000000E+00 0.  1.
          6    2    1    2  501    0 -0.17787063681E+03 -0.12826647593E+03 -0.35671485333E+03  0.45244171605E+03  0.17137026449E+03 0.  0.
         24    2    3    3    0    0 -0.14028532438E+03 -0.95832547509E+02 -0.15080685237E+03  0.24058136043E+03  0.79201230205E+02 0.  0.
         -6    2    1    2    0  502  0.17787063681E+03  0.12826647593E+03 -0.25391466463E+03  0.37652602789E+03  0.17090623301E+03 0.  0.
        -24    2    5    5    0    0  0.45554074853E+02  0.12221336609E+03 -0.12529827714E+03  0.19184095043E+03  0.63968831651E+02 0.  0.
          5    1    3    3  501    0 -0.37585312429E+02 -0.32433928423E+02 -0.20590800097E+03  0.21186035563E+03  0.47000000000E+01 0. -1.
        -13    1    4    4    0    0 -0.14595986363E+02  0.99743547043E+01 -0.16685538865E+00  0.17679321548E+02  0.00000000000E+00 0.  1.
         14    1    4    4    0    0 -0.12568933802E+03 -0.10580690221E+03 -0.15063999698E+03  0.22290203888E+03  0.00000000000E+00 0. -1.
         -5    1    5    5    0  502  0.13231656196E+03  0.60531098464E+01 -0.12861638749E+03  0.18468507746E+03  0.47000000000E+01 0.  1.
         13    1    6    6    0    0 -0.75418712016E+01  0.14248164992E+02  0.25055491743E+01  0.16314649967E+02  0.00000000000E+00 0. -1.
        -14    1    6    6    0    0  0.53095946054E+02  0.10796520109E+03 -0.12780382631E+03  0.17552630046E+03  0.00000000000E+00 0.  1.
</event>
<event>
12    1  0.8251070E-002  0.2335654E+03  0.7818608E-02  0.1124397E+00
         21   -1    0    0  503  502  0.00000000000E+00  0.00000000000E+00  0.11184977796E+03  0.11184977796E+03  0.00000000000E+00 0. -1.
         21   -1    0    0  501  503 -0.00000000000E+00 -0.00000000000E+00 -0.51924738410E+03  0.51924738410E+03  0.00000000000E+00 0.  1.
          6    2    1    2  501    0  0.10928272866E+03 -0.11139375879E+03 -0.28438630891E+03  0.36711876253E+03  0.17189918215E+03 0.  0.
         24    2    3    3    0    0 -0.10438146725E+02 -0.62348025058E+02 -0.11729265228E+03  0.15574006898E+03  0.80629843553E+02 0.  0.
         -6    2    1    2    0  502 -0.10928272866E+03  0.11139375879E+03 -0.12301129723E+03  0.26397839954E+03  0.17378587945E+03 0.  0.
        -24    2    5    5    0    0 -0.27042587245E+02  0.21653468722E+02 -0.11172155979E+03  0.14164153391E+03  0.79877675065E+02 0.  0.
          5    1    3    3  501    0  0.11972087538E+03 -0.49045733727E+02 -0.16709365663E+03  0.21137869355E+03  0.47000000000E+01 0. -1.
        -11    1    4    4    0    0 -0.13166892940E+02 -0.57494817725E+02 -0.26306446564E+02  0.64583668723E+02  0.00000000000E+00 0.  1.
         12    1    4    4    0    0  0.27287462152E+01 -0.48532073332E+01 -0.90986205715E+02  0.91156400256E+02  0.00000000000E+00 0. -1.
         -5    1    5    5    0  502 -0.82240141414E+02  0.89740290063E+02 -0.11289737441E+02  0.12233686563E+03  0.47000000000E+01 0.  1.
         13    1    6    6    0    0 -0.55137725673E+02  0.11976057004E+02 -0.62997065752E+02  0.84570828464E+02  0.00000000000E+00 0. -1.
        -14    1    6    6    0    0  0.28095138428E+02  0.96774117181E+01 -0.48724494038E+02  0.57070705446E+02  0.00000000000E+00 0.  1.
</event>
<event>
12    1  0.8251070E-002  0.2588706E+03  0.7818608E-02  0.1108331E+00
         21   -1    0    0  503  502  0.00000000000E+00  0.00000000000E+00  0.21652547153E+04  0.21652547153E+04  0.00000000000E+00 0. -1.
         21   -1    0    0  501  503 -0.00000000000E+00 -0.00000000000E+00 -0.30624507058E+02  0.30624507058E+02  0.00000000000E+00 0.  1.
          6    2    1    2  501    0  0.11357743686E+03 -0.15197156060E+03  0.10070341486E+04  0.10389493037E+04  0.17118028479E+03 0.  0.
         24    2    3    3    0    0  0.12740245939E+03 -0.14845823123E+03  0.10003463261E+04  0.10225087532E+04  0.80994723675E+02 0.  0.
         -6    2    1    2    0  502 -0.11357743686E+03  0.15197156060E+03  0.11275960596E+04  0.11569299186E+04  0.17612147362E+03 0.  0.
        -24    2    5    5    0    0 -0.14202786026E+03  0.13175778592E+03  0.10614513169E+04  0.10819950117E+04  0.80636716188E+02 0.  0.
          5    1    3    3  501    0 -0.13825022525E+02 -0.35133293715E+01  0.66878225305E+01  0.16440550516E+02  0.47000000000E+01 0. -1.
        -11    1    4    4    0    0  0.30972139623E+02 -0.79168860079E+02  0.28623524049E+03  0.29859269037E+03  0.00000000000E+00 0.  1.
         12    1    4    4    0    0  0.96430319766E+02 -0.69289371153E+02  0.71411108558E+03  0.72391606286E+03  0.00000000000E+00 0. -1.
         -5    1    5    5    0  502  0.28450423394E+02  0.20213774680E+02  0.66144742686E+02  0.74934906840E+02  0.47000000000E+01 0.  1.
         13    1    6    6    0    0 -0.53360011444E+02  0.20033623740E+02  0.47688795241E+03  0.48028195475E+03  0.00000000000E+00 0. -1.
        -14    1    6    6    0    0 -0.88667848815E+02  0.11172416218E+03  0.58456336452E+03  0.60171305700E+03  0.00000000000E+00 0.  1.
</event>
<event>
12    1  0.8251070E-002  0.1807145E+03  0.7818608E-02  0.1167181E+00
         21   -1    0    0  501  502  0.00000000000E+00  0.00000000000E+00  0.81428837604E+02  0.81428837604E+02  0.00000000000E+00 0. -1.
         21   -1    0    0  502  503 -0.00000000000E+00 -0.00000000000E+00 -0.58504355312E+03  0.58504355312E+03  0.00000000000E+00 0. -1.
         -6    2    1    2    0  503  0.52397043567E+02 -0.15796378914E+02 -0.43912972314E+03  0.47486066148E+03  0.17222879641E+03 0.  0.
        -24    2    3    3    0    0  0.90980348735E+02 -0.47125245599E+02 -0.29804986007E+03  0.32520844101E+03  0.80178540721E+02 0.  0.
          6    2    1    2  501    0 -0.52397043567E+02  0.15796378914E+02 -0.64484992374E+02  0.19161172924E+03  0.17193535058E+03 0.  0.
         24    2    5    5    0    0 -0.66285153721E+02 -0.46170374764E+02 -0.25599175725E+02  0.11699970004E+03  0.80673334517E+02 0.  0.
          5    1    5    5  501    0  0.13888110154E+02  0.61966753678E+02 -0.38885816649E+02  0.74612029201E+02  0.47000000000E+01 0. -1.
        -11    1    6    6    0    0  0.29354352887E+01 -0.18509643677E+02 -0.37109812967E+02  0.41573572228E+02  0.00000000000E+00 0.  1.
         12    1    6    6    0    0 -0.69220589010E+02 -0.27660731088E+02  0.11510637241E+02  0.75426127813E+02  0.00000000000E+00 0. -1.
         -5    1    3    3    0  503 -0.38583305168E+02  0.31328866685E+02 -0.14107986307E+03  0.14965222047E+03  0.47000000000E+01 0.  1.
         13    1    4    4    0    0  0.82747081425E+02 -0.16238579878E+02 -0.26937901103E+03  0.28226906055E+03  0.00000000000E+00 0. -1.
        -14    1    4    4    0    0  0.82332673108E+01 -0.30886665721E+02 -0.28670849032E+02  0.42939380459E+02  0.00000000000E+00 0.  1.
</event>
<event>
12    1  0.8251070E-002  0.1846444E+03  0.7818608E-02  0.1163417E+00
         21   -1    0    0  503  502  0.00000000000E+00  0.00000000000E+00  0.72441520318E+02  0.72441520318E+02  0.00000000000E+00 0. -1.
         21   -1    0    0  501  503 -0.00000000000E+00 -0.00000000000E+00 -0.98989373555E+03  0.98989373555E+03  0.00000000000E+00 0. -1.
          6    2    1    2  501    0 -0.40157925485E+01 -0.66419157854E+02 -0.84348381709E+03  0.86342607853E+03  0.17208141174E+03 0.  0.
         24    2    3    3    0    0 -0.59260094856E+02 -0.42733359263E+01 -0.52458571441E+03  0.53383219810E+03  0.79098822527E+02 0.  0.
         -6    2    1    2    0  502  0.40157925485E+01  0.66419157854E+02 -0.73968398141E+02  0.19890917734E+03  0.17223793365E+03 0.  0.
        -24    2    5    5    0    0 -0.84437119286E+01  0.83751280658E+02 -0.10768198060E+03  0.15873035985E+03  0.80711491799E+02 0.  0.
          5    1    3    3  501    0  0.55244302307E+02 -0.62145821928E+02 -0.31889810268E+03  0.32959388043E+03  0.47000000000E+01 0. -1.
        -11    1    4    4    0    0 -0.24375373945E+02  0.26786220576E+02 -0.94247147124E+02  0.10096625777E+03  0.00000000000E+00 0.  1.
         12    1    4    4    0    0 -0.34884720911E+02 -0.31059556502E+02 -0.43033856729E+03  0.43286594033E+03  0.00000000000E+00 0. -1.
         -5    1    5    5    0  502  0.12459504477E+02 -0.17332122804E+02  0.33713582461E+02  0.40178817492E+02  0.47000000000E+01 0.  1.
         13    1    6    6    0    0  0.29357840014E+02  0.61135163811E+01 -0.23072970613E+02  0.37836752315E+02  0.00000000000E+00 0. -1.
        -14    1    6    6    0    0 -0.37801551943E+02  0.77637764277E+02 -0.84609009989E+02  0.12089360753E+03  0.00000000000E+00 0.  1.
</event>
<event>
12    1  0.8251070E-002  0.1889362E+03  0.7818608E-02  0.1159766E+00
         21   -1    0    0  503  502  0.00000000000E+00  0.00000000000E+00  0.66253078359E+02  0.66253078359E+02  0.00000000000E+00 0.  1.
         21   -1    0    0  501  503 -0.00000000000E+00 -0.00000000000E+00 -0.79480293255E+03  0.79480293255E+03  0.00000000000E+00 0.  1.
          6    2    1    2  501    0  0.69065611278E+02  0.33159044659E+02 -0.60966656505E+03  0.63782940245E+03  0.17106561663E+03 0.  0.
         24    2    3    3    0    0  0.11259526551E+03  0.10812570351E+02 -0.52059657956E+03  0.53609569110E+03  0.59859718276E+02 0.  0.
         -6    2    1    2    0  502 -0.69065611278E+02 -0.33159044659E+02 -0.11888328914E+03  0.22322660845E+03  0.17270582324E+03 0.  0.
        -24    2    5    5    0    0 -0.11460094820E+03 -0.18493515714E+02 -0.10199821625E+03  0.17227819990E+03  0.76162685013E+02 0.  0.
          5    1    3    3  501    0 -0.43529654230E+02  0.22346474308E+02 -0.89069985483E+02  0.10173371135E+03  0.47000000000E+01 0. -1.
        -11    1    4    4    0    0  0.87847487522E+02 -0.87649100133E+00 -0.47385974170E+03  0.48193464713E+03  0.00000000000E+00 0.  1.
         12    1    4    4    0    0  0.24747777985E+02  0.11689061353E+02 -0.46736837858E+02  0.54161043966E+02  0.00000000000E+00 0. -1.
         -5    1    5    5    0  502  0.45535336925E+02 -0.14665528945E+02 -0.16885072892E+02  0.50948408559E+02  0.47000000000E+01 0.  1.
         11    1    6    6    0    0  0.64623432081E+01 -0.14279797292E+02 -0.22366101220E+02  0.27311480630E+02  0.00000000000E+00 0. -1.
        -12    1    6    6    0    0 -0.12106329141E+03 -0.42137184221E+01 -0.79632115032E+02  0.14496671927E+03  0.00000000000E+00 0.  1.
</event>
<event>
12    1  0.8251070E-002  0.2534454E+03  0.7818608E-02  0.1111336E+00
         21   -1    0    0  501  502  0.00000000000E+00  0.00000000000E+00  0.44128768577E+03  0.44128768577E+03  0.00000000000E+00 0. -1.
         21   -1    0    0  502  503 -0.00000000000E+00 -0.00000000000E+00 -0.14859526672E+03  0.14859526672E+03  0.00000000000E+00 0.  1.
         -6    2    1    2    0  503  0.21774367710E+02 -0.18401565752E+03  0.99262970247E+02  0.27105772199E+03  0.17112354042E+03 0.  0.
        -24    2    3    3    0    0 -0.26573917626E+01 -0.10677296964E+03  0.12798339292E+03  0.18497464363E+03  0.80176936493E+02 0.  0.
          6    2    1    2  501    0 -0.21774367710E+02  0.18401565752E+03  0.19342944880E+03  0.31882523050E+03  0.17291237849E+03 0.  0.
         24    2    5    5    0    0 -0.36028529013E+02  0.19589680522E+03  0.20484512661E+03  0.29653733053E+03  0.79367810232E+02 0.  0.
          5    1    5    5  501    0  0.14254161303E+02 -0.11881147703E+02 -0.11415677810E+02  0.22287899969E+02  0.47000000000E+01 0. -1.
        -13    1    6    6    0    0 -0.19811511579E+02  0.10240583653E+03  0.51787302713E+02  0.11645332141E+03  0.00000000000E+00 0.  1.
         14    1    6    6    0    0 -0.16217017434E+02  0.93490968696E+02  0.15305782390E+03  0.18008400912E+03  0.00000000000E+00 0. -1.
         -5    1    3    3    0  503  0.24431759473E+02 -0.77242687884E+02 -0.28720422673E+02  0.86083078366E+02  0.47000000000E+01 0.  1.
         13    1    4    4    0    0 -0.41366193002E+02 -0.51890773412E+02  0.65571016307E+02  0.93291867107E+02  0.00000000000E+00 0. -1.
        -14    1    4    4    0    0  0.38708801239E+02 -0.54882196226E+02  0.62412376613E+02  0.91682776520E+02  0.00000000000E+00 0.  1.
</event>
<event>
12    1  0.8251070E-002  0.1939585E+03  0.7818608E-02  0.1156297E+00
         21   -1    0    0  503  502  0.00000000000E+00  0.00000000000E+00  0.32717962239E+03  0.32717962239E+03  0.00000000000E+00 0. -1.
         21   -1    0    0  501  503 -0.00000000000E+00 -0.00000000000E+00 -0.28479614736E+03  0.28479614736E+03  0.00000000000E+00 0. -1.
          6    2    1    2  501    0  0.89880362621E+02  0.10211455248E+02 -0.21768248692E+03  0.28754674456E+03  0.16466545417E+03 0.  0.
         24    2    3    3    0    0  0.59814165718E+02 -0.57636302323E+02 -0.11945582411E+03  0.16434827992E+03  0.76426339921E+02 0.  0.
         -6    2    1    2    0  502 -0.89880362621E+02 -0.10211455248E+02  0.26006596195E+03  0.32442902519E+03  0.17157253398E+03 0.  0.
        -24    2    5    5    0    0 -0.70079837043E+02  0.38864035649E+02  0.24053453682E+03  0.26782486291E+03  0.86323212184E+02 0.  0.
          5    1    3    3  501    0  0.30066196903E+02  0.67847757572E+02 -0.98226662809E+02  0.12319846464E+03  0.47000000000E+01 0. -1.
        -11    1    4    4    0    0 -0.11615251161E+02 -0.31479386034E+02 -0.19737362881E+02  0.38928515231E+02  0.00000000000E+00 0.  1.
         12    1    4    4    0    0  0.71429416878E+02 -0.26156916289E+02 -0.99718461229E+02  0.12541976469E+03  0.00000000000E+00 0. -1.
         -5    1    5    5    0  502 -0.19800525578E+02 -0.49075490897E+02  0.19531425131E+02  0.56604162281E+02  0.47000000000E+01 0.  1.
         11    1    6    6    0    0 -0.65597688051E+02  0.61716732775E+02  0.15591959831E+03  0.18006369128E+03  0.00000000000E+00 0. -1.
        -12    1    6    6    0    0 -0.44821489920E+01 -0.22852697127E+02  0.84614938515E+02  0.87761171628E+02  0.00000000000E+00 0.  1.
</event>
<event>
12    1  0.8251070E-002  0.1930133E+03  0.7818608E-02  0.1156215E+00
         21   -1    0    0  503  502  0.00000000000E+00  0.00000000000E+00  0.16968639165E+03  0.16968639165E+03  0.00000000000E+00 0.  1.
         21   -1    0    0  501  503 -0.00000000000E+00 -0.00000000000E+00 -0.22983472236E+03  0.22983472236E+03  0.00000000000E+00 0.  1.
          6    2    1    2  501    0  0.85383820085E+02 -0.19168368776E+02 -0.76912429817E+02  0.20777304233E+03  0.17203572932E+03 0.  0.
         24    2    3    3    0    0 -0.13876889383E+02 -0.42881938919E+02 -0.41102058718E+02  0.99516428066E+02  0.78630219889E+02 0.  0.
         -6    2    1    2    0  502 -0.85383820085E+02  0.19168368776E+02  0.16764099107E+02  0.19174807168E+03  0.16978947223E+03 0.  0.
        -24    2    5    5    0    0 -0.96190450234E+02  0.66643566362E+02  0.18556039038E+02  0.14279933635E+03  0.79707943295E+02 0.  0.
          5    1    3    3  501    0  0.99260709468E+02  0.23713570144E+02 -0.35810371099E+02  0.10825661426E+03  0.47000000000E+01 0. -1.
        -11    1    4    4    0    0  0.31674907138E+02 -0.28925081672E+02 -0.21751902016E+02  0.48094753698E+02  0.00000000000E+00 0.  1.
         12    1    4    4    0    0 -0.45551796521E+02 -0.13956857247E+02 -0.19350156702E+02  0.51421674369E+02  0.00000000000E+00 0. -1.
         -5    1    5    5    0  502  0.10806630149E+02 -0.47475197586E+02 -0.17919399313E+01  0.48948735323E+02  0.47000000000E+01 0.  1.
         13    1    6    6    0    0  0.99741200097E+01  0.26045699752E+02  0.23749731003E+01  0.27991106494E+02  0.00000000000E+00 0. -1.
        -14    1    6    6    0    0 -0.10616457024E+03  0.40597866610E+02  0.16181065938E+02  0.11480822986E+03  0.00000000000E+00 0.  1.
</event>
<event>
12    1  0.8251070E-002  0.2578446E+03  0.7818608E-02  0.1108569E+00
         21   -1    0    0  503  502  0.00000000000E+00  0.00000000000E+00  0.49455009976E+03  0.49455009976E+03  0.00000000000E+00 0.  1.
         21   -1    0    0  501  503 -0.00000000000E+00 -0.00000000000E+00 -0.13687042575E+03  0.13687042575E+03  0.00000000000E+00 0.  1.
          6    2    1    2  501    0  0.18408807862E+03 -0.52401226289E+02  0.22478101545E+03  0.34206776300E+03  0.17277019525E+03 0.  0.
         24    2    3    3    0    0  0.16103451008E+03 -0.29885948849E+02  0.89305623088E+02  0.20273335706E+03  0.79372768471E+02 0.  0.
         -6    2    1    2    0  502 -0.18408807862E+03  0.52401226289E+02  0.13289865856E+03  0.28935276252E+03  0.17154783159E+03 0.  0.
        -24    2    5    5    0    0 -0.89444485141E+02 -0.41216510254E+02  0.64699841262E+02  0.13970364270E+03  0.75046130371E+02 0.  0.
          5    1    3    3  501    0  0.23053568535E+02 -0.22515277440E+02  0.13547539236E+03  0.13933440593E+03  0.47000000000E+01 0. -1.
        -13    1    4    4    0    0  0.13187105228E+03  0.53285877877E+01  0.84607435305E+02  0.15676985165E+03  0.00000000000E+00 0.  1.
         14    1    4    4    0    0  0.29163457805E+02 -0.35214536636E+02  0.46981877834E+01  0.45963505416E+02  0.00000000000E+00 0. -1.
         -5    1    5    5    0  502 -0.94643593478E+02  0.93617736543E+02  0.68198817298E+02  0.14964911982E+03  0.47000000000E+01 0.  1.
         11    1    6    6    0    0 -0.97004748462E+01 -0.14894530101E+02 -0.15499509559E+02  0.23583490746E+02  0.00000000000E+00 0. -1.
        -12    1    6    6    0    0 -0.79744010295E+02 -0.26321980153E+02  0.80199350821E+02  0.11612015195E+03  0.00000000000E+00 0.  1.
</event>
<event>
12    1  0.8251070E-002  0.3055574E+03  0.7818608E-02  0.1082692E+00
         21   -1    0    0  501  502  0.00000000000E+00  0.00000000000E+00  0.55064089213E+03  0.55064089213E+03  0.00000000000E+00 0. -1.
         21   -1    0    0  502  503 -0.00000000000E+00 -0.00000000000E+00 -0.17834637084E+03  0.17834637084E+03  0.00000000000E+00 0. -1.
         -6    2    1    2    0  503 -0.24911111845E+03  0.23795965056E+02  0.27153057870E+03  0.40877156376E+03  0.17533607409E+03 0.  0.
        -24    2    3    3    0    0 -0.19861541653E+03  0.36092329547E+01  0.11397073474E+03  0.24202470623E+03  0.78265700029E+02 0.  0.
          6    2    1    2  501    0  0.24911111845E+03 -0.23795965056E+02  0.10076394258E+03  0.32021569922E+03  0.17251702701E+03 0.  0.
         24    2    5    5    0    0  0.19647952058E+03  0.31306271941E+02  0.58063536940E+02  0.23274138151E+03  0.10589094236E+03 0.  0.
          5    1    5    5  501    0  0.52631597874E+02 -0.55102236997E+02  0.42700405644E+02  0.87474317711E+02  0.47000000000E+01 0. -1.
        -11    1    6    6    0    0 -0.16708336548E+01  0.23539336946E+02  0.19747604441E+02  0.30771089518E+02  0.00000000000E+00 0.  1.
         12    1    6    6    0    0  0.19815035424E+03  0.77669349945E+01  0.38315932499E+02  0.20197029199E+03  0.00000000000E+00 0. -1.
         -5    1    3    3    0  503 -0.50495701920E+02  0.20186732102E+02  0.15755984396E+03  0.16674685753E+03  0.47000000000E+01 0.  1.
         11    1    4    4    0    0 -0.15946869075E+03  0.33985223273E+02  0.96606125259E+02  0.18952045316E+03  0.00000000000E+00 0. -1.
        -12    1    4    4    0    0 -0.39146725786E+02 -0.30375990318E+02  0.17364609478E+02  0.52504253065E+02  0.00000000000E+00 0.  1.
</event>
<event>
12    1  0.8251070E-002  0.2546325E+03  0.7818608E-02  0.1110515E+00
         21   -1    0    0  503  502  0.00000000000E+00  0.00000000000E+00  0.77480741273E+02  0.77480741273E+02  0.00000000000E+00 0.  1.
         21   -1    0    0  501  503 -0.00000000000E+00 -0.00000000000E+00 -0.84757670343E+03  0.84757670343E+03  0.00000000000E+00 0.  1.
          6    2    1    2  501    0  0.42363021096E+01 -0.18728201918E+03 -0.44171368881E+03  0.50951847363E+03  0.17148058527E+03 0.  0.
         24    2    3    3    0    0  0.69841139489E+02 -0.10771974170E+03 -0.24810148259E+03  0.29010578694E+03  0.78266815652E+02 0.  0.
         -6    2    1    2    0  502 -0.42363021096E+01  0.18728201918E+03 -0.32838227335E+03  0.41553897108E+03  0.17246802042E+03 0.  0.
        -24    2    5    5    0    0  0.54214485823E+02  0.77363518272E+02 -0.21624931199E+03  0.24792494280E+03  0.76017681446E+02 0.  0.
          5    1    3    3  501    0 -0.65604837380E+02 -0.79562277481E+02 -0.19361220621E+03  0.21941268669E+03  0.47000000000E+01 0. -1.
        -13    1    4    4    0    0  0.14262670955E+01 -0.59068079750E+02 -0.14863104648E+03  0.15994455371E+03  0.00000000000E+00 0.  1.
         14    1    4    4    0    0  0.68414872394E+02 -0.48651661950E+02 -0.99470436115E+02  0.13016123323E+03  0.00000000000E+00 0. -1.
         -5    1    5    5    0  502 -0.58450787933E+02  0.10991850091E+03 -0.11213296136E+03  0.16761402828E+03  0.47000000000E+01 0.  1.
         13    1    6    6    0    0 -0.14724867427E+02  0.53106688943E+01 -0.64282655489E+02  0.66161051394E+02  0.00000000000E+00 0. -1.
        -14    1    6    6    0    0  0.68939353250E+02  0.72052849377E+02 -0.15196665650E+03  0.18176389141E+03  0.00000000000E+00 0.  1.
</event>
<event>
12    1  0.8251070E-002  0.1879533E+03  0.7818608E-02  0.1160976E+00
         21   -1    0    0  501  502  0.00000000000E+00  0.00000000000E+00  0.46221437250E+03  0.46221437250E+03  0.00000000000E+00 0.  1.
         21   -1    0    0  502  503 -0.00000000000E+00 -0.00000000000E+00 -0.77722933928E+02  0.77722933928E+02  0.00000000000E+00 0.  1.
         -6    2    1    2    0  503 -0.28699993890E+02  0.71373092475E+02  0.14576880771E+03  0.23785495181E+03  0.17148943063E+03 0.  0.
        -24    2    3    3    0    0 -0.84403078914E+02  0.52090194993E+02  0.98546595857E+02  0.16218004772E+03  0.82180704419E+02 0.  0.
          6    2    1    2  501    0  0.28699993890E+02 -0.71373092475E+02  0.23872263086E+03  0.30208235462E+03  0.16836699947E+03 0.  0.
         24    2    5    5    0    0 -0.36651512411E+02 -0.12097849768E+02  0.94121207765E+02  0.13262429097E+03  0.85092358493E+02 0.  0.
          5    1    5    5  501    0  0.65351506301E+02 -0.59275242707E+02  0.14460142310E+03  0.16945806365E+03  0.47000000000E+01 0. -1.
        -13    1    6    6    0    0 -0.41015960335E+02 -0.43957334525E+02  0.70902819974E+02  0.92961100150E+02  0.00000000000E+00 0.  1.
         14    1    6    6    0    0  0.43644479248E+01  0.31859484757E+02  0.23218387791E+02  0.39663190823E+02  0.00000000000E+00 0. -1.
         -5    1    3    3    0  503  0.55703085023E+02  0.19282897482E+02  0.47222211853E+02  0.75674904088E+02  0.47000000000E+01 0.  1.
         11    1    4    4    0    0 -0.14610216192E+01  0.39207215929E+02  0.55168548291E+02  0.67697186690E+02  0.00000000000E+00 0. -1.
        -12    1    4    4    0    0 -0.82942057294E+02  0.12882979064E+02  0.43378047566E+02  0.94482861030E+02  0.00000000000E+00 0.  1.
</event>
<event>
12    1  0.8251070E-002  0.2260238E+03  0.7818608E-02  0.1129681E+00
         21   -1    0    0  501  502  0.00000000000E+00  0.00000000000E+00  0.36332471530E+03  0.36332471530E+03  0.00000000000E+00 0. -1.
         21   -1    0    0  502  503 -0.00000000000E+00 -0.00000000000E+00 -0.14020090718E+03  0.14020090718E+03  0.00000000000E+00 0. -1.
         -6    2    1    2    0  503  0.14587676163E+03  0.26469732254E+01  0.12385519483E+03  0.25773413939E+03  0.17262601562E+03 0.  0.
        -24    2    3    3    0    0  0.33110379369E+02 -0.27898443863E+02  0.10488556413E+03  0.13928070397E+03  0.80768264462E+02 0.  0.
          6    2    1    2  501    0 -0.14587676163E+03 -0.26469732254E+01  0.99268613283E+02  0.24579148309E+03  0.17109108547E+03 0.  0.
         24    2    5    5    0    0 -0.33773224068E+02  0.33554620840E+02  0.82287810315E+02  0.12667726809E+03  0.83721581926E+02 0.  0.
          5    1    5    5  501    0 -0.11210353756E+03 -0.36201594066E+02  0.16980802968E+02  0.11911421500E+03  0.47000000000E+01 0. -1.
        -13    1    6    6    0    0 -0.44197779249E+01 -0.25221810263E+02  0.43233107806E+02  0.50247146789E+02  0.00000000000E+00 0.  1.
         14    1    6    6    0    0 -0.29353446143E+02  0.58776431104E+02  0.39054702509E+02  0.76430121300E+02  0.00000000000E+00 0. -1.
         -5    1    3    3    0  503  0.11276638226E+03  0.30545417088E+02  0.18969630704E+02  0.11845343542E+03  0.47000000000E+01 0.  1.
         13    1    4    4    0    0  0.44780327708E+02 -0.11249407996E+02  0.17204037269E+02  0.49272769643E+02  0.00000000000E+00 0. -1.
        -14    1    4    4    0    0 -0.11669948339E+02 -0.16649035867E+02  0.87681526862E+02  0.90007934331E+02  0.00000000000E+00 0.  1.
</event>
<event>
12    1  0.8251070E-002  0.1753836E+03  0.7818608E-02  0.1172376E+00
         21   -1    0    0  503  502  0.00000000000E+00  0.00000000000E+00  0.96388122517E+02  0.96388122517E+02  0.00000000000E+00 0.  1.
         21   -1    0    0  501  503 -0.00000000000E+00 -0.00000000000E+00 -0.46552509676E+03  0.46552509676E+03  0.00000000000E+00 0.  1.
          6    2    1    2  501    0 -0.10444599774E+02 -0.30025013904E+02 -0.34228524121E+03  0.38460187220E+03  0.17247847005E+03 0.  0.
         24    2    3    3    0    0  0.37769650759E+02  0.69293507781E+00 -0.28449061688E+03  0.30317389823E+03  0.97736762777E+02 0.  0.
         -6    2    1    2    0  502  0.10444599774E+02  0.30025013904E+02 -0.26851733042E+02  0.17731134708E+03  0.17235923854E+03 0.  0.
        -24    2    5    5    0    0 -0.59516531145E+02  0.13654661289E+02 -0.33781325616E+02  0.10497423670E+03  0.78420310870E+02 0.  0.
          5    1    3    3  501    0 -0.48214250534E+02 -0.30717948982E+02 -0.57794624329E+02  0.81427973974E+02  0.47000000000E+01 0. -1.
        -11    1    4    4    0    0  0.31828426579E+02  0.38216524758E+02 -0.73215541441E+02  0.88510265007E+02  0.00000000000E+00 0.  1.
         12    1    4    4    0    0  0.59412241796E+01 -0.37523589680E+02 -0.21127507544E+03  0.21466363322E+03  0.00000000000E+00 0. -1.
         -5    1    5    5    0  502  0.69961130919E+02  0.16370352615E+02  0.69295925741E+01  0.72337110375E+02  0.47000000000E+01 0.  1.
         11    1    6    6    0    0 -0.70375192591E+02  0.29983896185E+02 -0.15266849340E+02  0.78004989914E+02  0.00000000000E+00 0. -1.
        -12    1    6    6    0    0  0.10858661446E+02 -0.16329234896E+02 -0.18514476276E+02  0.26969246791E+02  0.00000000000E+00 0.  1.
</event>
<event>
12    1  0.8251070E-002  0.1728340E+03  0.7818608E-02  0.1176521E+00
         21   -1    0    0  501  502  0.00000000000E+00  0.00000000000E+00  0.23195358640E+03  0.23195358640E+03  0.00000000000E+00 0.  1.
         21   -1    0    0  502  503 -0.00000000000E+00 -0.00000000000E+00 -0.20928092144E+03  0.20928092144E+03  0.00000000000E+00 0.  1.
         -6    2    1    2    0  503  0.14468595547E+02  0.10501357700E+02 -0.12939769697E+03  0.21102374007E+03  0.16573363002E+03 0.  0.
        -24    2    3    3    0    0  0.36829568035E+02 -0.96747758521E+00 -0.15246400069E+03  0.17658986663E+03  0.81125559440E+02 0.  0.
          6    2    1    2  501    0 -0.14468595547E+02 -0.10501357700E+02  0.15207036193E+03  0.23021076777E+03  0.17190690461E+03 0.  0.
         24    2    5    5    0    0 -0.48447017213E+02 -0.58499443084E+02  0.11523716255E+03  0.16066133272E+03  0.82238445278E+02 0.  0.
          5    1    5    5  501    0  0.33978421666E+02  0.47998085383E+02  0.36833199379E+02  0.69549435051E+02  0.47000000000E+01 0. -1.
        -13    1    6    6    0    0  0.19935553431E+02 -0.13105959805E+02  0.70786135609E+01  0.24885723678E+02  0.00000000000E+00 0.  1.
         14    1    6    6    0    0 -0.68382570645E+02 -0.45393483278E+02  0.10815854899E+03  0.13577560904E+03  0.00000000000E+00 0. -1.
         -5    1    3    3    0  503 -0.22360972488E+02  0.11468835286E+02  0.23066303713E+02  0.34433873445E+02  0.47000000000E+01 0.  1.
         11    1    4    4    0    0  0.26466115923E+02  0.39373136728E+02 -0.82319951605E+02  0.95011965668E+02  0.00000000000E+00 0. -1.
        -12    1    4    4    0    0  0.10363452112E+02 -0.40340614313E+02 -0.70144049083E+02  0.81577900957E+02  0.00000000000E+00 0.  1.
</event>
<event>
12    1  0.8251070E-002  0.1812344E+03  0.7818608E-02  0.1167309E+00
         21   -1    0    0  501  502  0.00000000000E+00  0.00000000000E+00  0.61817364234E+03  0.61817364234E+03  0.00000000000E+00 0. -1.
         21   -1    0    0  502  503 -0.00000000000E+00 -0.00000000000E+00 -0.53131277217E+02  0.53131277217E+02  0.00000000000E+00 0. -1.
         -6    2    1    2    0  503 -0.37980770327E+02 -0.39917205536E+02  0.24261915901E+03  0.30283652764E+03  0.17265568029E+03 0.  0.
        -24    2    3    3    0    0 -0.48775575633E+02 -0.50458051510E+02  0.25897518502E+03  0.28009346623E+03  0.80368722970E+02 0.  0.
          6    2    1    2  501    0  0.37980770327E+02  0.39917205536E+02  0.32242320611E+03  0.36846839192E+03  0.16963581519E+03 0.  0.
         24    2    5    5    0    0  0.34442442754E+02 -0.40092020319E+02  0.20238213524E+03  0.22408714425E+03  0.80391962267E+02 0.  0.
          5    1    5    5  501    0  0.35383275732E+01  0.80009225856E+02  0.12004107087E+03  0.14438124767E+03  0.47000000000E+01 0. -1.
        -13    1    6    6    0    0  0.25302829070E+01  0.19970339886E+02  0.16098290130E+02  0.25775409829E+02  0.00000000000E+00 0.  1.
         14    1    6    6    0    0  0.31912159847E+02 -0.60062360205E+02  0.18628384511E+03  0.19831173442E+03  0.00000000000E+00 0. -1.
         -5    1    3    3    0  503  0.10794805305E+02  0.10540845974E+02 -0.16356026001E+02  0.22743061403E+02  0.47000000000E+01 0.  1.
         13    1    4    4    0    0 -0.12254335749E+02  0.96371284214E+01  0.14729247813E+03  0.14811521563E+03  0.00000000000E+00 0. -1.
        -14    1    4    4    0    0 -0.36521239884E+02 -0.60095179932E+02  0.11168270689E+03  0.13197825060E+03  0.00000000000E+00 0.  1.
</event>
<event>
12    1  0.8251070E-002  0.1755485E+03  0.7818608E-02  0.1172220E+00
         21   -1    0    0  501  502  0.00000000000E+00  0.00000000000E+00  0.69312407226E+02  0.69312407226E+02  0.00000000000E+00 0.  1.
         21   -1    0    0  502  503 -0.00000000000E+00 -0.00000000000E+00 -0.65773135309E+03  0.65773135309E+03  0.00000000000E+00 0.  1.
         -6    2    1    2    0  503 -0.30485811989E+02 -0.19123793080E+02 -0.50123727002E+03  0.53103882613E+03  0.17166342012E+03 0.  0.
        -24    2    3    3    0    0 -0.85907399349E+02 -0.73827911652E+01 -0.36778055419E+03  0.38597956765E+03  0.79266031394E+02 0.  0.
          6    2    1    2  501    0  0.30485811989E+02  0.19123793080E+02 -0.87181675846E+02  0.19600493419E+03  0.17182021251E+03 0.  0.
         24    2    5    5    0    0 -0.40367579534E+02  0.34153110755E+02 -0.20630280896E+02  0.97530259017E+02  0.79313091495E+02 0.  0.
          5    1    5    5  501    0  0.70853391522E+02 -0.15029317675E+02 -0.66551394950E+02  0.98474675170E+02  0.47000000000E+01 0. -1.
        -11    1    6    6    0    0 -0.50891202229E+02  0.45350777192E+02  0.42376261545E+01  0.68297620249E+02  0.00000000000E+00 0.  1.
         12    1    6    6    0    0  0.10523622695E+02 -0.11197666438E+02 -0.24867907051E+02  0.29232638768E+02  0.00000000000E+00 0. -1.
         -5    1    3    3    0  503  0.55421587360E+02 -0.11741001915E+02 -0.13345671583E+03  0.14505925849E+03  0.47000000000E+01 0.  1.
         13    1    4    4    0    0 -0.57439340070E+02  0.14726532437E+02 -0.10374907100E+03  0.11949903045E+03  0.00000000000E+00 0. -1.
        -14    1    4    4    0    0 -0.28468059278E+02 -0.22109323602E+02 -0.26403148319E+03  0.26648053719E+03  0.00000000000E+00 0.  1.
</event>
<event>
12    1  0.8251070E-002  0.1863055E+03  0.7818608E-02  0.1162036E+00
         21   -1    0    0  501  502  0.00000000000E+00  0.00000000000E+00  0.19801792350E+03  0.19801792350E+03  0.00000000000E+00 0. -1.
         21   -1    0    0  502  503 -0.00000000000E+00 -0.00000000000E+00 -0.39548390324E+03  0.39548390324E+03  0.00000000000E+00 0. -1.
         -6    2    1    2    0  503  0.72296189618E+02 -0.26760365392E+01 -0.32046654687E+03  0.37025560412E+03  0.17075275845E+03 0.  0.
        -24    2    3    3    0    0  0.48282649814E+02  0.48858091937E+02 -0.26687595215E+03  0.29198390851E+03  0.96506484608E+02 0.  0.
          6    2    1    2  501    0 -0.72296189618E+02  0.26760365392E+01  0.12300056713E+03  0.22324622262E+03  0.17168528241E+03 0.  0.
         24    2    5    5    0    0 -0.10120347913E+03 -0.29107498573E+02  0.12221063586E+03  0.18001962800E+03  0.79888899646E+02 0.  0.
          5    1    5    5  501    0  0.28907289509E+02  0.31783535112E+02  0.78993126250E+00  0.43226594620E+02  0.47000000000E+01 0. -1.
        -11    1    6    6    0    0 -0.22474230834E+02 -0.28109049251E+02  0.86256521850E+02  0.93463347164E+02  0.00000000000E+00 0.  1.
         12    1    6    6    0    0 -0.78729248292E+02 -0.99844932210E+00  0.35954114013E+02  0.86556280836E+02  0.00000000000E+00 0. -1.
         -5    1    3    3    0  503  0.24013539804E+02 -0.51534128476E+02 -0.53590594717E+02  0.78271695611E+02  0.47000000000E+01 0.  1.
         11    1    4    4    0    0  0.24396971834E+02 -0.10570261592E+02 -0.19032207424E+03  0.19217032708E+03  0.00000000000E+00 0. -1.
        -12    1    4    4    0    0  0.23885677979E+02  0.59428353529E+02 -0.76553877908E+02  0.99813581433E+02  0.00000000000E+00 0.  1.
</event>
<event>
12    1  0.8251070E-002  0.2290339E+03  0.7818608E-02  0.1127664E+00
         21   -1    0    0  503  502  0.00000000000E+00  0.00000000000E+00  0.52009270946E+02  0.52009270946E+02  0.00000000000E+00 0.  1.
         21   -1    0    0  501  503 -0.00000000000E+00 -0.00000000000E+00 -0.10062101153E+04  0.10062101153E+04  0.00000000000E+00 0.  1.
          6    2    1    2  501    0 -0.99884742233E+02  0.11018064792E+03 -0.51625296250E+03  0.56399788195E+03  0.17163843582E+03 0.  0.
         24    2    3    3    0    0 -0.33155019142E+02  0.29539874231E+01 -0.11789745568E+03  0.14607490762E+03  0.79561845397E+02 0.  0.
         -6    2    1    2    0  502  0.99884742233E+02 -0.11018064792E+03 -0.43794788190E+03  0.49422150434E+03  0.17418326895E+03 0.  0.
        -24    2    5    5    0    0  0.84972310395E+02 -0.46959144878E+02 -0.39922849691E+03  0.41845462606E+03  0.79343723784E+02 0.  0.
          5    1    3    3  501    0 -0.66729723091E+02  0.10722666050E+03 -0.39835550682E+03  0.41792297433E+03  0.47000000000E+01 0. -1.
        -11    1    4    4    0    0 -0.12608559156E+02  0.39864328089E+02 -0.75013981432E+02  0.85879204865E+02  0.00000000000E+00 0.  1.
         12    1    4    4    0    0 -0.20546459986E+02 -0.36910340666E+02 -0.42883474248E+02  0.60195702750E+02  0.00000000000E+00 0. -1.
         -5    1    5    5    0  502  0.14912431839E+02 -0.63221503047E+02 -0.38719384999E+02  0.75766878289E+02  0.47000000000E+01 0.  1.
         13    1    6    6    0    0  0.56576943225E+02  0.13867186725E+02 -0.18391297902E+03  0.19291768510E+03  0.00000000000E+00 0. -1.
        -14    1    6    6    0    0  0.28395367170E+02 -0.60826331603E+02 -0.21531551789E+03  0.22553694096E+03  0.00000000000E+00 0.  1.
</event>
<event>
12    1  0.8251070E-002  0.2531081E+03  0.7818608E-02  0.1111705E+00
         21   -1    0    0  503  502  0.00000000000E+00  0.00000000000E+00  0.49708211426E+03  0.49708211426E+03  0.00000000000E+00 0. -1.
         21   -1    0    0  501  503 -0.00000000000E+00 -0.00000000000E+00 -0.13066009791E+03  0.13066009791E+03  0.00000000000E+00 0.  1.
          6    2    1    2  501    0  0.44060077966E+02 -0.17729802882E+03  0.13711665963E+03  0.28786230524E+03  0.17517947065E+03 0.  0.
         24    2    3    3    0    0  0.66628566932E+02 -0.12761086745E+03  0.15926121426E+03  0.22878081915E+03  0.79073569658E+02 0.  0.
         -6    2    1    2    0  502 -0.44060077966E+02  0.17729802882E+03  0.22930535672E+03  0.33987990694E+03  0.17193464754E+03 0.  0.
        -24    2    5    5    0    0 -0.53059745112E+02  0.59471307167E+02  0.17806767648E+03  0.21099422030E+03  0.80363490860E+02 0.  0.
          5    1    3    3  501    0 -0.22568488965E+02 -0.49687161365E+02 -0.22144554634E+02  0.59081486090E+02  0.47000000000E+01 0. -1.
        -11    1    4    4    0    0  0.58338565149E+02 -0.28798712820E+02  0.61094007991E+02  0.89248147634E+02  0.00000000000E+00 0.  1.
         12    1    4    4    0    0  0.82900017829E+01 -0.98812154634E+02  0.98167206270E+02  0.13953267151E+03  0.00000000000E+00 0. -1.
         -5    1    5    5    0  502  0.89996671455E+01  0.11782672165E+03  0.51237680237E+02  0.12888568664E+03  0.47000000000E+01 0.  1.
         13    1    6    6    0    0  0.68403292915E+01  0.95004352617E+01  0.99824025613E+02  0.10050813134E+03  0.00000000000E+00 0. -1.
        -14    1    6    6    0    0 -0.59900074403E+02  0.49970871905E+02  0.78243650870E+02  0.11048608896E+03  0.00000000000E+00 0.  1.
</event>
<event>
12    1  0.8251070E-002  0.1873772E+03  0.7818608E-02  0.1161046E+00
         21   -1    0    0  503  502  0.00000000000E+00  0.00000000000E+00  0.12505590582E+03  0.12505590582E+03  0.00000000000E+00 0.  1.
         21   -1    0    0  501  503 -0.00000000000E+00 -0.00000000000E+00 -0.33111317614E+03  0.33111317614E+03  0.00000000000E+00 0. -1.
          6    2    1    2  501    0  0.71435696431E+02  0.10990986164E+02 -0.19290460315E+03  0.26833080822E+03  0.17194585259E+03 0.  0.
         24    2    3    3    0    0  0.74421414715E+02  0.67708086886E+02 -0.12030078141E+03  0.17603157226E+03  0.79949386653E+02 0.  0.
         -6    2    1    2    0  502 -0.71435696431E+02 -0.10990986164E+02 -0.13152667171E+02  0.18783827373E+03  0.17287673043E+03 0.  0.
        -24    2    5    5    0    0 -0.40116253354E+02 -0.30806409079E+02  0.55490656122E+02  0.10968743028E+03  0.79961058153E+02 0.  0.
          5    1    3    3  501    0 -0.29857182837E+01 -0.56717100722E+02 -0.72603821746E+02  0.92299235967E+02  0.47000000000E+01 0. -1.
        -13    1    4    4    0    0  0.88232821480E+02  0.39731018888E+02 -0.97666381183E+02  0.13748565984E+03  0.00000000000E+00 0.  1.
         14    1    4    4    0    0 -0.13811406765E+02  0.27977067998E+02 -0.22634400223E+02  0.38545912416E+02  0.00000000000E+00 0. -1.
         -5    1    5    5    0  502 -0.31319443077E+02  0.19815422916E+02 -0.68643323293E+02  0.78150843455E+02  0.47000000000E+01 0.  1.
         11    1    6    6    0    0 -0.32669534370E+02 -0.56638160147E+02  0.49844782001E+02  0.82217285004E+02  0.00000000000E+00 0. -1.
        -12    1    6    6    0    0 -0.74467189845E+01  0.25831751068E+02  0.56458741216E+01  0.27470145275E+02  0.00000000000E+00 0.  1.
</event>
<event>
12    1  0.8251070E-002  0.1909197E+03  0.7818608E-02  0.1157967E+00
         21   -1    0    0  501  502  0.00000000000E+00  0.00000000000E+00  0.11111810361E+03  0.11111810361E+03  0.00000000000E+00 0. -1.
         21   -1    0    0  502  503 -0.00000000000E+00 -0.00000000000E+00 -0.18889193383E+04  0.18889193383E+04  0.00000000000E+00 0. -1.
         -6    2    1    2    0  503 -0.39620224567E+02  0.73494853930E+02 -0.17992827653E+04  0.18093835394E+04  0.17169469198E+03 0.  0.
        -24    2    3    3    0    0  0.43676868584E+02  0.39084309285E+02 -0.81745950375E+03  0.82342131989E+03  0.79670431723E+02 0.  0.
          6    2    1    2  501    0  0.39620224567E+02 -0.73494853930E+02  0.21481530611E+02  0.19065390256E+03  0.17004763643E+03 0.  0.
         24    2    5    5    0    0  0.17150772791E+02 -0.28422381746E+02 -0.52731984727E+02  0.10084221139E+03  0.79287505907E+02 0.  0.
          5    1    5    5  501    0  0.22469451776E+02 -0.45072472184E+02  0.74213515338E+02  0.89811691170E+02  0.47000000000E+01 0. -1.
        -11    1    6    6    0    0  0.30692435802E+02  0.12603339427E+02 -0.46601784790E+02  0.57206609110E+02  0.00000000000E+00 0.  1.
         12    1    6    6    0    0 -0.13541663011E+02 -0.41025721173E+02 -0.61301999363E+01  0.43635602278E+02  0.00000000000E+00 0. -1.
         -5    1    3    3    0  503 -0.83297093151E+02  0.34410544645E+02 -0.98182326154E+03  0.98596221947E+03  0.47000000000E+01 0.  1.
         11    1    4    4    0    0  0.61082650710E+02  0.18922194052E+02 -0.70304971059E+03  0.70595186466E+03  0.00000000000E+00 0. -1.
        -12    1    4    4    0    0 -0.17405782126E+02  0.20162115233E+02 -0.11440979316E+03  0.11746945523E+03  0.00000000000E+00 0.  1.
</event>
<event>
12    1  0.8251070E-002  0.2408985E+03  0.7818608E-02  0.1121005E+00
         21   -1    0    0  503  502  0.00000000000E+00  0.00000000000E+00  0.45249269010E+03  0.45249269010E+03  0.00000000000E+00 0.  1.
         21   -1    0    0  501  503 -0.00000000000E+00 -0.00000000000E+00 -0.12264570433E+03  0.12264570433E+03  0.00000000000E+00 0.  1.
          6    2    1    2  501    0 -0.16747781641E+03 -0.12880913694E+02  0.16343215122E+03  0.28234840944E+03  0.15746688330E+03 0.  0.
         24    2    3    3    0    0 -0.90918401748E+02 -0.68881587972E+02  0.11158123738E+03  0.17414477383E+03  0.69750991250E+02 0.  0.
         -6    2    1    2    0  502  0.16747781641E+03  0.12880913694E+02  0.16641483456E+03  0.29278998499E+03  0.17267698521E+03 0.  0.
        -24    2    5    5    0    0  0.88760846620E+02  0.42753448593E+02  0.26414863446E+02  0.12935555904E+03  0.79553569268E+02 0.  0.
          5    1    3    3  501    0 -0.76559414663E+02  0.56000674278E+02  0.51850913836E+02  0.10820363561E+03  0.47000000000E+01 0. -1.
        -13    1    4    4    0    0 -0.82698458615E+02 -0.35281359005E+02  0.48388716950E+02  0.10210424711E+03  0.00000000000E+00 0.  1.
         14    1    4    4    0    0 -0.82199431325E+01 -0.33600228967E+02  0.63192520432E+02  0.72040526721E+02  0.00000000000E+00 0. -1.
         -5    1    5    5    0  502  0.78716969791E+02 -0.29872534899E+02  0.13999997111E+03  0.16343442595E+03  0.47000000000E+01 0.  1.
         11    1    6    6    0    0 -0.12517137245E+02 -0.47743464730E+01 -0.28915902164E+01  0.13705269170E+02  0.00000000000E+00 0. -1.
        -12    1    6    6    0    0  0.10127798387E+03  0.47527795066E+02  0.29306453662E+02  0.11565028987E+03  0.00000000000E+00 0.  1.
</event>
<event>
12    1  0.8251070E-002  0.2390198E+03  0.7818608E-02  0.1120960E+00
         21   -1    0    0  501  502  0.00000000000E+00  0.00000000000E+00  0.44521944235E+03  0.44521944235E+03  0.00000000000E+00 0. -1.
         21   -1    0    0  502  503 -0.00000000000E+00 -0.00000000000E+00 -0.13939485245E+03  0.13939485245E+03  0.00000000000E+00 0.  1.
         -6    2    1    2    0  503 -0.14266372439E+03  0.79745162415E+02  0.65563075933E+02  0.24784875528E+03  0.17440831225E+03 0.  0.
        -24    2    3    3    0    0 -0.35694455159E+01  0.36632897084E+02  0.52326377375E+02  0.10155047769E+03  0.78865326093E+02 0.  0.
          6    2    1    2  501    0  0.14266372439E+03 -0.79745162415E+02  0.24026151397E+03  0.33676553952E+03  0.17021517067E+03 0.  0.
         24    2    5    5    0    0  0.15008973052E+02 -0.17460640752E+01  0.11921499594E+03  0.14427152816E+03  0.79835709860E+02 0.  0.
          5    1    5    5  501    0  0.12765475134E+03 -0.77999098340E+02  0.12104651803E+03  0.19249401136E+03  0.47000000000E+01 0. -1.
        -11    1    6    6    0    0  0.16087596298E+02 -0.69640943971E+01 -0.63116367295E+01  0.18631857761E+02  0.00000000000E+00 0.  1.
         12    1    6    6    0    0 -0.10786232462E+01  0.52180303220E+01  0.12552663267E+03  0.12563967040E+03  0.00000000000E+00 0. -1.
         -5    1    3    3    0  503 -0.13909427888E+03  0.43112265331E+02  0.13236698559E+02  0.14629827759E+03  0.47000000000E+01 0.  1.
         13    1    4    4    0    0 -0.18907608110E+02  0.38884198079E+02  0.67303291015E+02  0.79995071637E+02  0.00000000000E+00 0. -1.
        -14    1    4    4    0    0  0.15338162594E+02 -0.22513009951E+01 -0.14976913640E+02  0.21555406053E+02  0.00000000000E+00 0.  1.
</event>
<event>
12    1  0.8251070E-002  0.2091445E+03  0.7818608E-02  0.1142329E+00
         21   -1    0    0  503  502  0.00000000000E+00  0.00000000000E+00  0.13957074071E+03  0.13957074071E+03  0.00000000000E+00 0.  1.
         21   -1    0    0  501  503 -0.00000000000E+00 -0.00000000000E+00 -0.45652380611E+03  0.45652380611E+03  0.00000000000E+00 0. -1.
          6    2    1    2  501    0  0.87348972438E+02 -0.81528554898E+02 -0.32561615448E+03  0.38677071266E+03  0.17114016439E+03 0.  0.
         24    2    3    3    0    0  0.61775367922E+02  0.30459972569E+02 -0.11951848447E+03  0.15077541798E+03  0.60865035319E+02 0.  0.
         -6    2    1    2    0  502 -0.87348972438E+02  0.81528554898E+02  0.86630890753E+01  0.20932383416E+03  0.17165276050E+03 0.  0.
        -24    2    5    5    0    0 -0.88540865249E+02  0.56250043652E+02 -0.53619412040E+02  0.14193226433E+03  0.79159169281E+02 0.  0.
          5    1    3    3  501    0  0.25573604515E+02 -0.11198852747E+03 -0.20609767000E+03  0.23599529468E+03  0.47000000000E+01 0. -1.
        -11    1    4    4    0    0 -0.11685972522E+02  0.10649672191E+02 -0.19399288201E+02  0.25026183374E+02  0.00000000000E+00 0.  1.
         12    1    4    4    0    0  0.73461340444E+02  0.19810300378E+02 -0.10011919627E+03  0.12574923460E+03  0.00000000000E+00 0. -1.
         -5    1    5    5    0  502  0.11918928113E+01  0.25278511246E+02  0.62282501115E+02  0.67391569832E+02  0.47000000000E+01 0.  1.
         11    1    6    6    0    0 -0.13817387630E+02 -0.19222042954E+02 -0.18587304706E+02  0.30098090180E+02  0.00000000000E+00 0. -1.
        -12    1    6    6    0    0 -0.74723477619E+02  0.75472086606E+02 -0.35032107334E+02  0.11183417415E+03  0.00000000000E+00 0.  1.
</event>
<event>
12    1  0.8251070E-002  0.1959394E+03  0.7818608E-02  0.1153216E+00
         21   -1    0    0  503  502  0.00000000000E+00  0.00000000000E+00  0.37876570160E+03  0.37876570160E+03  0.00000000000E+00 0. -1.
         21   -1    0    0  501  503 -0.00000000000E+00 -0.00000000000E+00 -0.13101745357E+03  0.13101745357E+03  0.00000000000E+00 0. -1.
          6    2    1    2  501    0  0.59471795475E+02 -0.75174577671E+02  0.25871421734E+01  0.19595649377E+03  0.17089219573E+03 0.  0.
         24    2    3    3    0    0  0.92239213961E+02 -0.87997920151E+02  0.26605413859E+02  0.15309498188E+03  0.80489247038E+02 0.  0.
         -6    2    1    2    0  502 -0.59471795475E+02  0.75174577671E+02  0.24516110585E+03  0.31382666140E+03  0.17086571920E+03 0.  0.
        -24    2    5    5    0    0 -0.21588844765E+02 -0.12406930911E+02  0.17671861479E+03  0.19630175687E+03  0.81761242570E+02 0.  0.
          5    1    3    3  501    0 -0.32767418485E+02  0.12823342479E+02 -0.24018271686E+02  0.42861511888E+02  0.47000000000E+01 0. -1.
        -13    1    4    4    0    0  0.77412477614E+02 -0.67194540897E+02  0.53812825751E+02  0.11577399635E+03  0.00000000000E+00 0.  1.
         14    1    4    4    0    0  0.14826736347E+02 -0.20803379254E+02 -0.27207411892E+02  0.37320985530E+02  0.00000000000E+00 0. -1.
         -5    1    5    5    0  502 -0.37882950710E+02  0.87581508583E+02  0.68442491062E+02  0.11752490452E+03  0.47000000000E+01 0.  1.
         11    1    6    6    0    0 -0.37186499732E+02 -0.17800628495E+02  0.36342667727E+02  0.54958963188E+02  0.00000000000E+00 0. -1.
        -12    1    6    6    0    0  0.15597654967E+02  0.53936975837E+01  0.14037594706E+03  0.14134279369E+03  0.00000000000E+00 0.  1.
</event>
<event>
12    1  0.8251070E-002  0.2402579E+03  0.7818608E-02  0.1119758E+00
         21   -1    0    0  501  502  0.00000000000E+00  0.00000000000E+00  0.67856281423E+03  0.67856281423E+03  0.00000000000E+00 0.  1.
         21   -1    0    0  502  503 -0.00000000000E+00 -0.00000000000E+00 -0.11178378256E+03  0.11178378256E+03  0.00000000000E+00 0.  1.
         -6    2    1    2    0  503 -0.92020688387E+02 -0.13741828541E+03  0.89520850296E+02  0.25639391994E+03  0.17427641060E+03 0.  0.
        -24    2    3    3    0    0 -0.10156479087E+03 -0.84735678484E+02  0.21835524505E+01  0.15384422195E+03  0.78534927087E+02 0.  0.
          6    2    1    2  501    0  0.92020688387E+02  0.13741828541E+03  0.47725818138E+03  0.53395267685E+03  0.17314299627E+03 0.  0.
         24    2    5    5    0    0  0.10600570868E+03  0.14331139459E+03  0.32831382506E+03  0.38416342219E+03  0.89533240389E+02 0.  0.
          5    1    5    5  501    0 -0.13985020294E+02 -0.58931091813E+01  0.14894435632E+03  0.14978925465E+03  0.47000000000E+01 0. -1.
        -13    1    6    6    0    0  0.90334263109E+02  0.83412711800E+02  0.27940192609E+03  0.30525955495E+03  0.00000000000E+00 0.  1.
         14    1    6    6    0    0  0.15671445572E+02  0.59898682790E+02  0.48911898967E+02  0.78903867249E+02  0.00000000000E+00 0. -1.
         -5    1    3    3    0  503  0.95441024809E+01 -0.52682606925E+02  0.87337297845E+02  0.10254969800E+03  0.47000000000E+01 0.  1.
         13    1    4    4    0    0 -0.12120575793E+02 -0.56444337570E+02 -0.12003364668E+02  0.58965688028E+02  0.00000000000E+00 0. -1.
        -14    1    4    4    0    0 -0.89444215075E+02 -0.28291340915E+02  0.14186917119E+02  0.94878533918E+02  0.00000000000E+00 0.  1.
</event>
<event>
12    1  0.8251070E-002  0.2452545E+03  0.7818608E-02  0.1116545E+00
         21   -1    0    0  501  502  0.00000000000E+00  0.00000000000E+00  0.86385597836E+02  0.86385597836E+02  0.00000000000E+00 0.  1.
         21   -1    0    0  502  503 -0.00000000000E+00 -0.00000000000E+00 -0.70071851448E+03  0.70071851448E+03  0.00000000000E+00 0. -1.
         -6    2    1    2    0  503  0.77107874225E+02  0.15618096010E+03 -0.34837719499E+03  0.42532761525E+03  0.17087654531E+03 0.  0.
        -24    2    3    3    0    0  0.11523146398E+03  0.10875072651E+03 -0.27643421781E+03  0.33098294333E+03  0.89603689598E+02 0.  0.
          6    2    1    2  501    0 -0.77107874225E+02 -0.15618096010E+03 -0.26595572165E+03  0.36177649707E+03  0.17266056697E+03 0.  0.
         24    2    5    5    0    0  0.15969902973E+02 -0.12113596585E+03 -0.16860300731E+03  0.22252397386E+03  0.78491941275E+02 0.  0.
          5    1    5    5  501    0 -0.93077777198E+02 -0.35044994250E+02 -0.97352714336E+02  0.13925252320E+03  0.47000000000E+01 0. -1.
        -11    1    6    6    0    0  0.36793888318E+01 -0.88827228669E+02 -0.56799962250E+02  0.10549905292E+03  0.00000000000E+00 0.  1.
         12    1    6    6    0    0  0.12290514141E+02 -0.32308737177E+02 -0.11180304507E+03  0.11702492094E+03  0.00000000000E+00 0. -1.
         -5    1    3    3    0  503 -0.38123589758E+02  0.47430233585E+02 -0.71942977181E+02  0.94344671920E+02  0.47000000000E+01 0.  1.
         11    1    4    4    0    0  0.86069831669E+02  0.10701062126E+03 -0.26706316820E+03  0.30030322142E+03  0.00000000000E+00 0. -1.
        -12    1    4    4    0    0  0.29161632314E+02  0.17401052489E+01 -0.93710496088E+01  0.30679721907E+02  0.00000000000E+00 0.  1.
</event>
<event>
12    1  0.8251070E-002  0.1780346E+03  0.7818608E-02  0.1170526E+00
         21   -1    0    0  503  502  0.00000000000E+00  0.00000000000E+00  0.46382330632E+03  0.46382330632E+03  0.00000000000E+00 0. -1.
         21   -1    0    0  501  503 -0.00000000000E+00 -0.00000000000E+00 -0.14331043135E+03  0.14331043135E+03  0.00000000000E+00 0. -1.
          6    2    1    2  501    0  0.44742397882E+02 -0.89219526532E+01 -0.61813939892E+02  0.18538724374E+03  0.16871865210E+03 0.  0.
         24    2    3    3    0    0  0.66562381318E+02  0.33655088186E+00 -0.97208103507E+02  0.14253087451E+03  0.80218270544E+02 0.  0.
         -6    2    1    2    0  502 -0.44742397882E+02  0.89219526532E+01  0.38232681487E+03  0.42174649394E+03  0.17208959402E+03 0.  0.
        -24    2    5    5    0    0  0.31465842531E+02  0.14808156551E+02  0.12182145591E+03  0.15021845606E+03  0.80720113203E+02 0.  0.
          5    1    3    3  501    0 -0.21819983436E+02 -0.92585035351E+01  0.35394163615E+02  0.42856369222E+02  0.47000000000E+01 0. -1.
        -13    1    4    4    0    0 -0.17536168251E+02  0.86813478957E+01 -0.15286644693E+02  0.24830716948E+02  0.00000000000E+00 0.  1.
         14    1    4    4    0    0  0.84098549569E+02 -0.83447970138E+01 -0.81921458814E+02  0.11770015757E+03  0.00000000000E+00 0. -1.
         -5    1    5    5    0  502 -0.76208240413E+02 -0.58862038982E+01  0.26050535896E+03  0.27152803787E+03  0.47000000000E+01 0.  1.
         13    1    6    6    0    0 -0.20604055796E+02  0.24586574400E+01  0.44487019121E+01  0.21221759125E+02  0.00000000000E+00 0. -1.
        -14    1    6    6    0    0  0.52069898327E+02  0.12349499111E+02  0.11737275400E+03  0.12899669694E+03  0.00000000000E+00 0.  1.
</event>
<event>
12    1  0.8251070E-002  0.2532142E+03  0.7818608E-02  0.1111571E+00
         21   -1    0    0  501  502  0.00000000000E+00  0.00000000000E+00  0.16632303241E+03  0.16632303241E+03  0.00000000000E+00 0. -1.
         21   -1    0    0  502  503 -0.00000000000E+00 -0.00000000000E+00 -0.41798462068E+03  0.41798462068E+03  0.00000000000E+00 0. -1.
         -6    2    1    2    0  503 -0.29195308328E+02 -0.18057068915E+03 -0.40617494577E+02  0.25467598840E+03  0.17248750215E+03 0.  0.
        -24    2    3    3    0    0 -0.11826360680E+02 -0.14531358646E+03 -0.91764966154E+02  0.19000066482E+03  0.80147004945E+02 0.  0.
          6    2    1    2  501    0  0.29195308328E+02  0.18057068915E+03 -0.21104409369E+03  0.32963166469E+03  0.17509792995E+03 0.  0.
         24    2    5    5    0    0 -0.19818228197E+02  0.11468879709E+03 -0.20009133109E+03  0.24665694883E+03  0.85187013566E+02 0.  0.
          5    1    5    5  501    0  0.49013536525E+02  0.65881892052E+02 -0.10952762603E+02  0.82974715858E+02  0.47000000000E+01 0. -1.
        -13    1    6    6    0    0 -0.43768166760E+02  0.27314914781E+02 -0.93290808040E+02  0.10660643440E+03  0.00000000000E+00 0.  1.
         14    1    6    6    0    0  0.23949938563E+02  0.87373882312E+02 -0.10680052305E+03  0.14005051443E+03  0.00000000000E+00 0. -1.
         -5    1    3    3    0  503 -0.17368947648E+02 -0.35257102686E+02  0.51147471577E+02  0.64675323586E+02  0.47000000000E+01 0.  1.
         11    1    4    4    0    0  0.12892856499E+02 -0.95309212899E+02 -0.18537068183E+02  0.97947407872E+02  0.00000000000E+00 0. -1.
        -12    1    4    4    0    0 -0.24719217179E+02 -0.50004373561E+02 -0.73227897971E+02  0.92053256947E+02  0.00000000000E+00 0.  1.
</event>
<event>
12    1  0.8251070E-002  0.1807776E+03  0.7818608E-02  0.1167067E+00
         21   -1    0    0  503  502  0.00000000000E+00  0.00000000000E+00  0.15270454319E+03  0.15270454319E+03  0.00000000000E+00 0.  1.
         21   -1    0    0  501  503 -0.00000000000E+00 -0.00000000000E+00 -0.21655381792E+03  0.21655381792E+03  0.00000000000E+00 0. -1.
          6    2    1    2  501    0 -0.23464276803E+02  0.43711045017E+02 -0.52201445884E+02  0.18810590400E+03  0.17377460236E+03 0.  0.
         24    2    3    3    0    0 -0.48014755636E+02  0.80163686643E+02 -0.34673683620E+01  0.12231364454E+03  0.78847774748E+02 0.  0.
         -6    2    1    2    0  502  0.23464276803E+02 -0.43711045017E+02 -0.11647828853E+02  0.18115245711E+03  0.17383703017E+03 0.  0.
        -24    2    5    5    0    0  0.64929488379E+02 -0.30563873202E+02  0.39692676354E+02  0.11369766208E+03  0.78750625395E+02 0.  0.
          5    1    3    3  501    0  0.24550478833E+02 -0.36452641626E+02 -0.48734077522E+02  0.65792259456E+02  0.47000000000E+01 0. -1.
        -13    1    4    4    0    0  0.11731284083E+02  0.18897667593E+02 -0.25609404440E+02  0.33920295731E+02  0.00000000000E+00 0.  1.
         14    1    4    4    0    0 -0.59746039719E+02  0.61266019050E+02  0.22142036078E+02  0.88393348811E+02  0.00000000000E+00 0. -1.
         -5    1    5    5    0  502 -0.41465211577E+02 -0.13147171815E+02 -0.51340505208E+02  0.67454795032E+02  0.47000000000E+01 0.  1.
         11    1    6    6    0    0  0.68299736875E+02 -0.17754644102E+02 -0.13377208444E+01  0.70582369905E+02  0.00000000000E+00 0. -1.
        -12    1    6    6    0    0 -0.33702484957E+01 -0.12809229100E+02  0.41030397199E+02  0.43115292175E+02  0.00000000000E+00 0.  1.
</event>
<event>
12    1  0.8251070E-002  0.1751059E+03  0.7818608E-02  0.1173273E+00
         21   -1    0    0  501  502  0.00000000000E+00  0.00000000000E+00  0.33279203329E+03  0.33279203329E+03  0.00000000000E+00 0.  1.
         21   -1    0    0  502  503 -0.00000000000E+00 -0.00000000000E+00 -0.97812962875E+02  0.97812962875E+02  0.00000000000E+00 0.  1.
         -6    2    1    2    0  503 -0.70911225638E-01  0.11901737268E+02  0.60616565682E+02  0.18530091159E+03  0.17470089703E+03 0.  0.
        -24    2    3    3    0    0 -0.38190442496E+02  0.24612433407E+01 -0.24172121200E+02  0.91741128499E+02  0.79797090160E+02 0.  0.
          6    2    1    2  501    0  0.70911225638E-01 -0.11901737268E+02  0.17436250473E+03  0.24530408457E+03  0.17213411769E+03 0.  0.
         24    2    5    5    0    0 -0.51635869103E+02  0.27040691019E+02  0.13720227854E+03  0.17051721230E+03  0.82790050772E+02 0.  0.
          5    1    5    5  501    0  0.51706780328E+02 -0.38942428286E+02  0.37160226197E+02  0.74786872269E+02  0.47000000000E+01 0. -1.
        -13    1    6    6    0    0  0.18883229692E+01 -0.25024634227E+02  0.48188209525E+02  0.54331405458E+02  0.00000000000E+00 0.  1.
         14    1    6    6    0    0 -0.53524192072E+02  0.52065325246E+02  0.89014069011E+02  0.11618580684E+03  0.00000000000E+00 0. -1.
         -5    1    3    3    0  503  0.38119531271E+02  0.94404939269E+01  0.84788686881E+02  0.93559783096E+02  0.47000000000E+01 0.  1.
         13    1    4    4    0    0 -0.99070618529E+01 -0.23766549514E+02  0.20360419253E+02  0.32825987000E+02  0.00000000000E+00 0. -1.
        -14    1    4    4    0    0 -0.28283380643E+02  0.26227792855E+02 -0.44532540452E+02  0.58915141499E+02  0.00000000000E+00 0.  1.
</event>
<event>
12    1  0.8251070E-002  0.1740292E+03  0.7818608E-02  0.1174041E+00
         21   -1    0    0  503  502  0.00000000000E+00  0.00000000000E+00  0.37208781016E+02  0.37208781016E+02  0.00000000000E+00 0.  1.
         21   -1    0    0  501  503 -0.00000000000E+00 -0.00000000000E+00 -0.89205533979E+03  0.89205533979E+03  0.00000000000E+00 0.  1.
          6    2    1    2  501    0  0.17041087738E+02 -0.28129840108E+02 -0.57161502450E+03  0.59751978559E+03  0.17089315772E+03 0.  0.
         24    2    3    3    0    0  0.65038129318E+02  0.20708275360E+02 -0.32073843657E+03  0.33742359205E+03  0.79515689274E+02 0.  0.
         -6    2    1    2    0  502 -0.17041087738E+02  0.28129840108E+02 -0.28323153427E+03  0.33174433522E+03  0.16956566683E+03 0.  0.
        -24    2    5    5    0    0  0.28164667370E+02 -0.36160241419E+02 -0.14768753393E+03  0.17499280921E+03  0.81914980615E+02 0.  0.
          5    1    3    3  501    0 -0.47997041580E+02 -0.48838115468E+02 -0.25087658793E+03  0.26009619354E+03  0.47000000000E+01 0. -1.
        -13    1    4    4    0    0  0.52066543972E+02 -0.11471022642E+02 -0.94178716484E+02  0.10822264089E+03  0.00000000000E+00 0.  1.
         14    1    4    4    0    0  0.12971585345E+02  0.32179298002E+02 -0.22655972009E+03  0.22920095116E+03  0.00000000000E+00 0. -1.
         -5    1    5    5    0  502 -0.45205755108E+02  0.64290081527E+02 -0.13554400035E+03  0.15675152602E+03  0.47000000000E+01 0.  1.
         13    1    6    6    0    0  0.49019055883E+02 -0.44825656527E+02 -0.13111677025E+03  0.14698236208E+03  0.00000000000E+00 0. -1.
        -14    1    6    6    0    0 -0.20854388512E+02  0.86654151081E+01 -0.16570763674E+02  0.28010447121E+02  0.00000000000E+00 0.  1.
</event>
<event>
12    1  0.8251070E-002  0.2590431E+03  0.7818608E-02  0.1108935E+00
         21   -1    0    0  501  502  0.00000000000E+00  0.00000000000E+00  0.95764701883E+03  0.95764701883E+03  0.00000000000E+00 0. -1.
         21   -1    0    0  502  503 -0.00000000000E+00 -0.00000000000E+00 -0.79686467679E+02  0.79686467679E+02  0.00000000000E+00 0. -1.
         -6    2    1    2    0  503 -0.55763695218E+02 -0.17518631836E+03  0.64387067902E+03  0.69402648342E+03  0.18249239039E+03 0.  0.
        -24    2    3    3    0    0 -0.14868206886E+02 -0.10431859771E+03  0.56457369410E+03  0.57998799600E+03  0.80865233788E+02 0.  0.
          6    2    1    2  501    0  0.55763695218E+02  0.17518631836E+03  0.23408987213E+03  0.34330700309E+03  0.17106079120E+03 0.  0.
         24    2    5    5    0    0 -0.11818143078E+02  0.43358805138E+02  0.13811228217E+03  0.16672958130E+03  0.81878546062E+02 0.  0.
          5    1    5    5  501    0  0.67581838296E+02  0.13182751322E+03  0.95977589968E+02  0.17657742179E+03  0.47000000000E+01 0. -1.
        -13    1    6    6    0    0  0.24421185474E+02 -0.11862821985E+02  0.45315830779E+02  0.52826559272E+02  0.00000000000E+00 0.  1.
         14    1    6    6    0    0 -0.36239328552E+02  0.55221627123E+02  0.92796451388E+02  0.11390302202E+03  0.00000000000E+00 0. -1.
         -5    1    3    3    0  503 -0.40895488331E+02 -0.70867720649E+02  0.79296984920E+02  0.11403848742E+03  0.47000000000E+01 0.  1.
         11    1    4    4    0    0  0.16281910380E+02 -0.35235726344E+02  0.73676212107E+02  0.83275694215E+02  0.00000000000E+00 0. -1.
        -12    1    4    4    0    0 -0.31150117267E+02 -0.69082871367E+02  0.49089748199E+03  0.49671230179E+03  0.00000000000E+00 0.  1.
</event>
<event>
12    1  0.8251070E-002  0.1821323E+03  0.7818608E-02  0.1166348E+00
         21   -1    0    0  503  502  0.00000000000E+00  0.00000000000E+00  0.24494958805E+04  0.24494958805E+04  0.00000000000E+00 0.  1.
         21   -1    0    0  501  503 -0.00000000000E+00 -0.00000000000E+00 -0.13364170519E+02  0.13364170519E+02  0.00000000000E+00 0.  1.
          6    2    1    2  501    0  0.46735988042E+02 -0.35637592095E+02  0.11868387203E+04  0.12003604929E+04  0.16977889863E+03 0.  0.
         24    2    3    3    0    0 -0.65106748107E+01  0.16453961968E+01  0.98877453987E+03  0.99184973087E+03  0.77754110673E+02 0.  0.
         -6    2    1    2    0  502 -0.46735988042E+02  0.35637592095E+02  0.12492929897E+04  0.12624995581E+04  0.17238871651E+03 0.  0.
        -24    2    5    5    0    0  0.15002860749E+02 -0.26321026951E+02  0.41149733967E+03  0.42013728621E+03  0.79166889643E+02 0.  0.
          5    1    3    3  501    0  0.53246662852E+02 -0.37282988292E+02  0.19806418043E+03  0.20851076205E+03  0.47000000000E+01 0. -1.
        -13    1    4    4    0    0  0.33454935942E+02 -0.65738429455E+01  0.59249984950E+03  0.59348000792E+03  0.00000000000E+00 0.  1.
         14    1    4    4    0    0 -0.39965610752E+02  0.82192391424E+01  0.39627469037E+03  0.39836972295E+03  0.00000000000E+00 0. -1.
         -5    1    5    5    0  502 -0.61738848790E+02  0.61958619046E+02  0.83779565006E+03  0.84236227194E+03  0.47000000000E+01 0.  1.
         13    1    6    6    0    0  0.21990978369E+02 -0.44193897418E+02  0.38044145568E+03  0.38363055783E+03  0.00000000000E+00 0. -1.
        -14    1    6    6    0    0 -0.69881176205E+01  0.17872870467E+02  0.31055883986E+02  0.36506728376E+02  0.00000000000E+00 0.  1.
</event>
<event>
12    1  0.8251070E-002  0.1848048E+03  0.7818608E-02  0.1166053E+00
         21   -1    0    0  503  502  0.00000000000E+00  0.00000000000E+00  0.76068862167E+03  0.76068862167E+03  0.00000000000E+00 0. -1.
         21   -1    0    0  501  503 -0.00000000000E+00 -0.00000000000E+00 -0.54294784264E+02  0.54294784264E+02  0.00000000000E+00 0. -1.
          6    2    1    2  501    0  0.60705007699E+02 -0.30698695017E+02  0.15132706961E+03  0.22996038398E+03  0.15923061379E+03 0.  0.
         24    2    3    3    0    0  0.79772582882E+02 -0.67306767619E+02  0.11776957654E+03  0.17655702505E+03  0.80055255863E+02 0.  0.
         -6    2    1    2    0  502 -0.60705007699E+02  0.30698695017E+02  0.55506676779E+03  0.58502302196E+03  0.17182930970E+03 0.  0.
        -24    2    5    5    0    0 -0.92905788275E+02  0.60531258363E+02  0.46971069295E+03  0.48892608330E+03  0.78262769757E+02 0.  0.
          5    1    3    3  501    0 -0.19067575183E+02  0.36608072602E+02  0.33557493075E+02  0.53403358925E+02  0.47000000000E+01 0. -1.
        -13    1    4    4    0    0  0.60824471551E+02 -0.57661227069E+01  0.83936307627E+02  0.10381795725E+03  0.00000000000E+00 0.  1.
         14    1    4    4    0    0  0.18948111332E+02 -0.61540644912E+02  0.33833268910E+02  0.72739067800E+02  0.00000000000E+00 0. -1.
         -5    1    5    5    0  502  0.32200780576E+02 -0.29832563345E+02  0.85356074848E+02  0.96096938655E+02  0.47000000000E+01 0.  1.
         13    1    6    6    0    0  0.94812954362E+01  0.24125635781E+02  0.11786296373E+03  0.12067982219E+03  0.00000000000E+00 0. -1.
        -14    1    6    6    0    0 -0.10238708371E+03  0.36405622582E+02  0.35184772922E+03  0.36824626111E+03  0.00000000000E+00 0.  1.
</event>
<event>
12    1  0.8251070E-002  0.1990183E+03  0.7818608E-02  0.1151296E+00
         21   -1    0    0  501  502  0.00000000000E+00  0.00000000000E+00  0.16321438773E+03  0.16321438773E+03  0.00000000000E+00 0.  1.
         21   -1    0    0  502  503 -0.00000000000E+00 -0.00000000000E+00 -0.24566084233E+03  0.24566084233E+03  0.00000000000E+00 0.  1.
         -6    2    1    2    0  503  0.39577741938E+02 -0.83444752274E+02 -0.76318357382E+02  0.21314960839E+03  0.17629191571E+03 0.  0.
        -24    2    3    3    0    0  0.48605128280E+02  0.90779433957E+01 -0.71785030552E+02  0.11995849309E+03  0.82414088012E+02 0.  0.
          6    2    1    2  501    0 -0.39577741938E+02  0.83444752274E+02 -0.61280972162E+01  0.19572562167E+03  0.17245736013E+03 0.  0.
         24    2    5    5    0    0  0.36485320803E+02  0.49864803992E+02  0.28744002225E+02  0.10544076269E+03  0.80460297429E+02 0.  0.
          5    1    5    5  501    0 -0.76063062742E+02  0.33579948282E+02 -0.34872099442E+02  0.90284858973E+02  0.47000000000E+01 0. -1.
        -13    1    6    6    0    0  0.26071426927E+02  0.71767180284E+02  0.27498475048E+02  0.81156722444E+02  0.00000000000E+00 0.  1.
         14    1    6    6    0    0  0.10413893876E+02 -0.21902376292E+02  0.12455271773E+01  0.24284040250E+02  0.00000000000E+00 0. -1.
         -5    1    3    3    0  503 -0.90273863413E+01 -0.92522695670E+02 -0.45333268301E+01  0.93191115297E+02  0.47000000000E+01 0.  1.
         11    1    4    4    0    0  0.32673902552E+02 -0.43864425464E+01  0.10869417499E+02  0.34712663727E+02  0.00000000000E+00 0. -1.
        -12    1    4    4    0    0  0.15931225727E+02  0.13464385942E+02 -0.82654448052E+02  0.85245829368E+02  0.00000000000E+00 0.  1.
</event>
<event>
12    1  0.8251070E-002  0.1690150E+03  0.7818608E-02  0.1181858E+00
         21   -1    0    0  501  502  0.00000000000E+00  0.00000000000E+00  0.50956756772E+03  0.50956756772E+03  0.00000000000E+00 0.  1.
         21   -1    0    0  502  503 -0.00000000000E+00 -0.00000000000E+00 -0.40077603477E+03  0.40077603477E+03  0.00000000000E+00 0.  1.
         -6    2    1    2    0  503 -0.10121944066E+02  0.17677799622E+02 -0.36965439811E+03  0.40646087834E+03  0.16778293484E+03 0.  0.
        -24    2    3    3    0    0  0.55459664854E+02  0.27846934791E+02 -0.25334459435E+03  0.27246677701E+03  0.78761887274E+02 0.  0.
          6    2    1    2  501    0  0.10121944066E+02 -0.17677799622E+02  0.47844593106E+03  0.50388272415E+03  0.15675564552E+03 0.  0.
         24    2    5    5    0    0  0.33184671519E+02  0.32132688372E+02  0.37888098205E+03  0.39009237666E+03  0.80545215140E+02 0.  0.
          5    1    5    5  501    0 -0.23062727453E+02 -0.49810487994E+02  0.99564949012E+02  0.11379034750E+03  0.47000000000E+01 0. -1.
        -13    1    6    6    0    0  0.21335174726E+02 -0.51302961244E+01  0.31085990219E+03  0.31163341991E+03  0.00000000000E+00 0.  1.
         14    1    6    6    0    0  0.11849496793E+02  0.37262984496E+02  0.68021079861E+02  0.78458956744E+02  0.00000000000E+00 0. -1.
         -5    1    3    3    0  503 -0.65581608920E+02 -0.10169135169E+02 -0.11630980377E+03  0.13399410133E+03  0.47000000000E+01 0.  1.
         11    1    4    4    0    0  0.22553221335E+02 -0.55056579009E+01 -0.11099819807E+02  0.25732587535E+02  0.00000000000E+00 0. -1.
        -12    1    4    4    0    0  0.32906443519E+02  0.33352592692E+02 -0.24224477454E+03  0.24673418947E+03  0.00000000000E+00 0.  1.
</event>
<event>
12    1  0.8251070E-002  0.1935686E+03  0.7818608E-02  0.1155628E+00
         21   -1    0    0  501  502  0.00000000000E+00  0.00000000000E+00  0.13797513898E+03  0.13797513898E+03  0.00000000000E+00 0.  1.
         21   -1    0    0  502  503 -0.00000000000E+00 -0.00000000000E+00 -0.31902610933E+03  0.31902610933E+03  0.00000000000E+00 0.  1.
         -6    2    1    2    0  503 -0.45295309045E+02  0.72625342586E+02 -0.18098900495E+03  0.26500151733E+03  0.17361647061E+03 0.  0.
        -24    2    3    3    0    0  0.37569444370E+02  0.16600673909E+02 -0.11008759462E+03  0.14230501842E+03  0.80276984575E+02 0.  0.
          6    2    1    2  501    0  0.45295309045E+02 -0.72625342586E+02 -0.61965397562E-01  0.19199973098E+03  0.17186560869E+03 0.  0.
         24    2    5    5    0    0  0.64473173842E+02 -0.10049553048E+03 -0.30448885700E+02  0.14628329196E+03  0.78838601422E+02 0.  0.
          5    1    5    5  501    0 -0.19177864797E+02  0.27870187894E+02  0.30386920302E+02  0.45716439022E+02  0.47000000000E+01 0. -1.
        -13    1    6    6    0    0  0.71035945727E+02 -0.96326192565E+02 -0.51287502539E+01  0.11979626471E+03  0.00000000000E+00 0.  1.
         14    1    6    6    0    0 -0.65627718848E+01 -0.41693379149E+01 -0.25320135446E+02  0.26487027248E+02  0.00000000000E+00 0. -1.
         -5    1    3    3    0  503 -0.82864753415E+02  0.56024668677E+02 -0.70901410325E+02  0.12269649891E+03  0.47000000000E+01 0.  1.
         11    1    4    4    0    0  0.75482767312E+01  0.43256166357E+02 -0.82923284772E+02  0.93831463630E+02  0.00000000000E+00 0. -1.
        -12    1    4    4    0    0  0.30021167639E+02 -0.26655492448E+02 -0.27164309849E+02  0.48473554786E+02  0.00000000000E+00 0.  1.
</event>
<event>
12    1  0.8251070E-002  0.1854090E+03  0.7818608E-02  0.1162786E+00
         21   -1    0    0  501  502  0.00000000000E+00  0.00000000000E+00  0.29290260403E+03  0.29290260403E+03  0.00000000000E+00 0. -1.
         21   -1    0    0  502  503 -0.00000000000E+00 -0.00000000000E+00 -0.22271611491E+03  0.22271611491E+03  0.00000000000E+00 0. -1.
         -6    2    1    2    0  503  0.59495300737E+02  0.32712615867E+02 -0.14251321195E+03  0.23345271780E+03  0.17198938870E+03 0.  0.
        -24    2    3    3    0    0  0.39180310639E+02  0.81948070501E+02 -0.59758026302E+02  0.13492688583E+03  0.79897808552E+02 0.  0.
          6    2    1    2  501    0 -0.59495300737E+02 -0.32712615867E+02  0.21269970107E+03  0.28216600113E+03  0.17253023884E+03 0.  0.
         24    2    5    5    0    0 -0.45091206523E+02  0.20740598289E+02  0.20595765397E+03  0.22619932147E+03  0.79272873531E+02 0.  0.
          5    1    5    5  501    0 -0.14404094214E+02 -0.53453214156E+02  0.67420470919E+01  0.55966679665E+02  0.47000000000E+01 0. -1.
        -13    1    6    6    0    0  0.12542244556E+02  0.31031529122E+02  0.56297068939E+02  0.65495218675E+02  0.00000000000E+00 0.  1.
         14    1    6    6    0    0 -0.57633451079E+02 -0.10290930834E+02  0.14966058504E+03  0.16070410279E+03  0.00000000000E+00 0. -1.
         -5    1    3    3    0  503  0.20314990099E+02 -0.49235454633E+02 -0.82755185644E+02  0.98525831976E+02  0.47000000000E+01 0.  1.
         13    1    4    4    0    0  0.59513502826E+02  0.36384821288E+02 -0.24915355623E+02  0.74070825462E+02  0.00000000000E+00 0. -1.
        -14    1    4    4    0    0 -0.20333192187E+02  0.45563249213E+02 -0.34842670679E+02  0.60856060367E+02  0.00000000000E+00 0.  1.
</event>
<event>
12    1  0.8251070E-002  0.1784228E+03  0.7818608E-02  0.1169371E+00
         21   -1    0    0  503  502  0.00000000000E+00  0.00000000000E+00  0.68157096360E+02  0.68157096360E+02  0.00000000000E+00 0.  1.
         21   -1    0    0  501  503 -0.00000000000E+00 -0.00000000000E+00 -0.74666550258E+03  0.74666550258E+03  0.00000000000E+00 0.  1.
          6    2    1    2  501    0 -0.42305896602E+02 -0.23260477008E+02 -0.89873815135E+02  0.19977991395E+03  0.17176691385E+03 0.  0.
         24    2    3    3    0    0 -0.49964725268E+02  0.43746963326E+02 -0.43600720590E+02  0.11785345916E+03  0.87052538321E+02 0.  0.
         -6    2    1    2    0  502  0.42305896602E+02  0.23260477008E+02 -0.58863459108E+03  0.61504268498E+03  0.17162745659E+03 0.  0.
        -24    2    5    5    0    0 -0.21383322351E+02  0.39954633369E+02 -0.18794393914E+03  0.20895143905E+03  0.79272696562E+02 0.  0.
          5    1    3    3  501    0  0.76588286659E+01 -0.67007440335E+02 -0.46273094545E+02  0.81926454796E+02  0.47000000000E+01 0. -1.
        -11    1    4    4    0    0 -0.30798525581E+02  0.52392757859E+02 -0.64210395418E+02  0.88411114312E+02  0.00000000000E+00 0.  1.
         12    1    4    4    0    0 -0.19166199687E+02 -0.86457945330E+01  0.20609674828E+02  0.29442344846E+02  0.00000000000E+00 0. -1.
         -5    1    5    5    0  502  0.63689218953E+02 -0.16694156361E+02 -0.40069065194E+03  0.40609124593E+03  0.47000000000E+01 0.  1.
         11    1    6    6    0    0 -0.29648279109E+02 -0.16534228908E+02 -0.62400723710E+02  0.71036972763E+02  0.00000000000E+00 0. -1.
        -12    1    6    6    0    0  0.82649567587E+01  0.56488862277E+02 -0.12554321543E+03  0.13791446629E+03  0.00000000000E+00 0.  1.
</event>
<event>
12    1  0.8251070E-002  0.1722206E+03  0.7818608E-02  0.1176929E+00
         21   -1    0    0  503  502  0.00000000000E+00  0.00000000000E+00  0.13889200936E+03  0.13889200936E+03  0.00000000000E+00 0. -1.
         21   -1    0    0  501  503 -0.00000000000E+00 -0.00000000000E+00 -0.20801611902E+03  0.20801611902E+03  0.00000000000E+00 0. -1.
          6    2    1    2  501    0 -0.76420140925E+01  0.55478856879E+01 -0.46936517175E+02  0.17850199837E+03  0.17196147057E+03 0.  0.
         24    2    3    3    0    0  0.32527596833E+02  0.56841199056E+02 -0.52534439651E+02  0.11294264835E+03  0.75546065427E+02 0.  0.
         -6    2    1    2    0  502  0.76420140925E+01 -0.55478856879E+01 -0.22187592490E+02  0.16840613002E+03  0.16667080114E+03 0.  0.
        -24    2    5    5    0    0  0.62414696617E+02 -0.43064127610E+00  0.73571276651E+01  0.10578653700E+03  0.85093385620E+02 0.  0.
          5    1    3    3  501    0 -0.40169610925E+02 -0.51293313368E+02  0.55979224768E+01  0.65559350014E+02  0.47000000000E+01 0. -1.
        -11    1    4    4    0    0  0.41011345496E+02  0.57420605132E+02 -0.66260346205E+02  0.96796125089E+02  0.00000000000E+00 0.  1.
         12    1    4    4    0    0 -0.84837486634E+01 -0.57940607585E+00  0.13725906553E+02  0.16146523263E+02  0.00000000000E+00 0. -1.
         -5    1    5    5    0  502 -0.54772682524E+02 -0.51172444118E+01 -0.29544720156E+02  0.62619593023E+02  0.47000000000E+01 0.  1.
         13    1    6    6    0    0  0.54314583618E+02  0.42752269337E+01 -0.33440861814E+02  0.63926855060E+02  0.00000000000E+00 0. -1.
        -14    1    6    6    0    0  0.81001129986E+01 -0.47058682098E+01  0.40797989479E+02  0.41859681936E+02  0.00000000000E+00 0.  1.
</event>
<event>
12    1  0.8251070E-002  0.1786038E+03  0.7818608E-02  0.1169225E+00
         21   -1    0    0  503  502  0.00000000000E+00  0.00000000000E+00  0.53421025257E+02  0.53421025257E+02  0.00000000000E+00 0. -1.
         21   -1    0    0  501  503 -0.00000000000E+00 -0.00000000000E+00 -0.72477963987E+03  0.72477963987E+03  0.00000000000E+00 0. -1.
          6    2    1    2  501    0 -0.18297757419E+01  0.47638354086E+02 -0.49973227946E+03  0.53068979053E+03  0.17212362352E+03 0.  0.
         24    2    3    3    0    0  0.57856104884E+02 -0.30316986969E+01 -0.30049474170E+03  0.31656939204E+03  0.81009691497E+02 0.  0.
         -6    2    1    2    0  502  0.18297757419E+01 -0.47638354086E+02 -0.17162633515E+03  0.24751087460E+03  0.17185247530E+03 0.  0.
        -24    2    5    5    0    0 -0.34346694042E+02 -0.65436688779E+02 -0.17636906630E+03  0.20664400314E+03  0.78320117824E+02 0.  0.
          5    1    3    3  501    0 -0.59685880626E+02  0.50670052783E+02 -0.19923753776E+03  0.21412039849E+03  0.47000000000E+01 0. -1.
        -11    1    4    4    0    0 -0.91895867093E+01 -0.25651464829E+02 -0.60328813990E+02  0.66196766909E+02  0.00000000000E+00 0.  1.
         12    1    4    4    0    0  0.67045691594E+02  0.22619766132E+02 -0.24016592771E+03  0.25037262513E+03  0.00000000000E+00 0. -1.
         -5    1    5    5    0  502  0.36176469784E+02  0.17798334693E+02  0.47427311540E+01  0.40866871457E+02  0.47000000000E+01 0.  1.
         11    1    6    6    0    0  0.62163486284E+01 -0.20798869475E+02 -0.12659663149E+03  0.12844431894E+03  0.00000000000E+00 0. -1.
        -12    1    6    6    0    0 -0.40563042670E+02 -0.44637819304E+02 -0.49772434810E+02  0.78199684205E+02  0.00000000000E+00 0.  1.
</event>
<event>
12    1  0.8251070E-002  0.2059272E+03  0.7818608E-02  0.1145003E+00
         21   -1    0    0  503  502  0.00000000000E+00  0.00000000000E+00  0.47240439274E+03  0.47240439274E+03  0.00000000000E+00 0.  1.
         21   -1    0    0  501  503 -0.00000000000E+00 -0.00000000000E+00 -0.10242931868E+03  0.10242931868E+03  0.00000000000E+00 0. -1.
          6    2    1    2  501    0  0.11281784589E+03 -0.80237641422E+01  0.82156573762E+02  0.22093331997E+03  0.17108355303E+03 0.  0.
         24    2    3    3    0    0  0.32797279560E+02  0.55072982945E+02  0.33905187449E+02  0.10808485161E+03  0.80150348816E+02 0.  0.
         -6    2    1    2    0  502 -0.11281784589E+03  0.80237641422E+01  0.28781850031E+03  0.35390039145E+03  0.17208646317E+03 0.  0.
        -24    2    5    5    0    0 -0.23618887235E+02 -0.52515696084E+02  0.14727741727E+03  0.17671301466E+03  0.78873961132E+02 0.  0.
          5    1    3    3  501    0  0.80020566335E+02 -0.63096747087E+02  0.48251386313E+02  0.11284846836E+03  0.47000000000E+01 0. -1.
        -11    1    4    4    0    0 -0.65797559136E+01  0.15257646820E+02  0.47616507968E+02  0.50432338885E+02  0.00000000000E+00 0.  1.
         12    1    4    4    0    0  0.39377035474E+02  0.39815336125E+02 -0.13711320519E+02  0.57652512728E+02  0.00000000000E+00 0. -1.
         -5    1    5    5    0  502 -0.89198958660E+02  0.60539460226E+02  0.14054108304E+03  0.17718737679E+03  0.47000000000E+01 0.  1.
         11    1    6    6    0    0  0.24272241936E+02 -0.34492833868E+02  0.93004837250E+02  0.10212148192E+03  0.00000000000E+00 0. -1.
        -12    1    6    6    0    0 -0.47891129170E+02 -0.18022862216E+02  0.54272580016E+02  0.74591532745E+02  0.00000000000E+00 0.  1.
</event>
<event>
12    1  0.8251070E-002  0.1846147E+03  0.7818608E-02  0.1164497E+00
         21   -1    0    0  503  502  0.00000000000E+00  0.00000000000E+00  0.77715775702E+03  0.77715775702E+03  0.00000000000E+00 0.  1.
         21   -1    0    0  501  503 -0.00000000000E+00 -0.00000000000E+00 -0.45834872185E+02  0.45834872185E+02  0.00000000000E+00 0.  1.
          6    2    1    2  501    0 -0.52654055137E+02  0.24626701625E+02  0.25503575898E+03  0.31217756474E+03  0.17038975795E+03 0.  0.
         24    2    3    3    0    0 -0.60193163080E+02 -0.45502178178E+02  0.16891925603E+03  0.20076374149E+03  0.77966016569E+02 0.  0.
         -6    2    1    2    0  502  0.52654055137E+02 -0.24626701625E+02  0.47628712585E+03  0.51081506446E+03  0.17522465543E+03 0.  0.
        -24    2    5    5    0    0  0.55497511036E+02 -0.57597938530E+02  0.18174694504E+03  0.21438430388E+03  0.80815725355E+02 0.  0.
          5    1    3    3  501    0  0.75391079434E+01  0.70128879804E+02  0.86116502946E+02  0.11141382325E+03  0.47000000000E+01 0. -1.
        -11    1    4    4    0    0  0.84837887176E+00  0.14289482912E+02  0.37441676686E+01  0.14796211006E+02  0.00000000000E+00 0.  1.
         12    1    4    4    0    0 -0.61041541952E+02 -0.59791661090E+02  0.16517508836E+03  0.18596753049E+03  0.00000000000E+00 0. -1.
         -5    1    5    5    0  502 -0.28434558996E+01  0.32971236904E+02  0.29454018081E+03  0.29643076058E+03  0.47000000000E+01 0.  1.
         13    1    6    6    0    0  0.14437680095E+01 -0.59471676253E+02  0.90089134587E+02  0.10795840362E+03  0.00000000000E+00 0. -1.
        -14    1    6    6    0    0  0.54053743027E+02  0.18737377232E+01  0.91657810453E+02  0.10642590026E+03  0.00000000000E+00 0.  1.
</event>
<event>
12    1  0.8251070E-002  0.1777070E+03  0.7818608E-02  0.1171542E+00
         21   -1    0    0  501  502  0.00000000000E+00  0.00000000000E+00  0.76930673728E+03  0.76930673728E+03  0.00000000000E+00 0. -1.
         21   -1    0    0  502  503 -0.00000000000E+00 -0.00000000000E+00 -0.52212526066E+02  0.52212526066E+02  0.00000000000E+00 0. -1.
         -6    2    1    2    0  503 -0.27386151559E+02 -0.29712466613E+02  0.15263534002E+03  0.22974769264E+03  0.16689404806E+03 0.  0.
        -24    2    3    3    0    0 -0.33367903353E+02 -0.62346292434E+02  0.36363759144E+02  0.10874389740E+03  0.74178400417E+02 0.  0.
          6    2    1    2  501    0  0.27386151559E+02  0.29712466613E+02  0.56445887120E+03  0.59177157071E+03  0.17305184963E+03 0.  0.
         24    2    5    5    0    0 -0.10130244441E+02  0.31234037781E+02  0.53909770589E+03  0.54621859218E+03  0.81548923818E+02 0.  0.
          5    1    5    5  501    0  0.37516396001E+02 -0.15215711683E+01  0.25361165309E+02  0.45552978536E+02  0.47000000000E+01 0. -1.
        -13    1    6    6    0    0 -0.36179111044E+01  0.26968750345E+02  0.48913803335E+02  0.55972876758E+02  0.00000000000E+00 0.  1.
         14    1    6    6    0    0 -0.65123333367E+01  0.42652874359E+01  0.49018390256E+03  0.49024571542E+03  0.00000000000E+00 0. -1.
         -5    1    3    3    0  503  0.59817517937E+01  0.32633825821E+02  0.11627158087E+03  0.12100379524E+03  0.47000000000E+01 0.  1.
         11    1    4    4    0    0  0.19734717024E+02 -0.12768239476E+02 -0.65066846179E+01  0.24389012691E+02  0.00000000000E+00 0. -1.
        -12    1    4    4    0    0 -0.53102620377E+02 -0.49578052957E+02  0.42870443762E+02  0.84354884709E+02  0.00000000000E+00 0.  1.
</event>
<event>
12    1  0.8251070E-002  0.2058498E+03  0.7818608E-02  0.1144923E+00
         21   -1    0    0  503  502  0.00000000000E+00  0.00000000000E+00  0.36073457907E+03  0.36073457907E+03  0.00000000000E+00 0. -1.
         21   -1    0    0  501  503 -0.00000000000E+00 -0.00000000000E+00 -0.23516018505E+03  0.23516018505E+03  0.00000000000E+00 0. -1.
          6    2    1    2  501    0  0.12552357564E+02  0.11213200424E+03 -0.14805434763E+03  0.25356304951E+03  0.17217137442E+03 0.  0.
         24    2    3    3    0    0  0.13560643742E+02  0.14725101706E+02 -0.13039725399E+03  0.15445208010E+03  0.80319870009E+02 0.  0.
         -6    2    1    2    0  502 -0.12552357564E+02 -0.11213200424E+03  0.27362874165E+03  0.34233171461E+03  0.17200920474E+03 0.  0.
        -24    2    5    5    0    0 -0.21367375498E+02 -0.13818375713E+02  0.54805581473E+02  0.10222977891E+03  0.82460679677E+02 0.  0.
          5    1    3    3  501    0 -0.10082861780E+01  0.97406902531E+02 -0.17657093638E+02  0.99110969411E+02  0.47000000000E+01 0. -1.
        -11    1    4    4    0    0 -0.26852558671E+02  0.28936396238E+02 -0.70701020802E+02  0.80975362160E+02  0.00000000000E+00 0.  1.
         12    1    4    4    0    0  0.40413202414E+02 -0.14211294532E+02 -0.59696233190E+02  0.73476717936E+02  0.00000000000E+00 0. -1.
         -5    1    5    5    0  502  0.88150179337E+01 -0.98313628525E+02  0.21882316018E+03  0.24010193570E+03  0.47000000000E+01 0.  1.
         11    1    6    6    0    0  0.22098242273E+02  0.17563288785E+01  0.51347892214E+02  0.55928731771E+02  0.00000000000E+00 0. -1.
        -12    1    6    6    0    0 -0.43465617771E+02 -0.15574704591E+02  0.34576892596E+01  0.46301047141E+02  0.00000000000E+00 0.  1.
</event>
<event>
12    1  0.8251070E-002  0.3086230E+03  0.7818608E-02  0.1081039E+00
         21   -1    0    0  501  502  0.00000000000E+00  0.00000000000E+00  0.28483659638E+03  0.28483659638E+03  0.00000000000E+00 0.  1.
         21   -1    0    0  502  503 -0.00000000000E+00 -0.00000000000E+00 -0.37393030110E+03  0.37393030110E+03  0.00000000000E+00 0.  1.
         -6    2    1    2    0  503  0.69575592511E+02  0.24632273048E+03 -0.15204749731E+03  0.34404449249E+03  0.17243120585E+03 0.  0.
        -24    2    3    3    0    0 -0.28033765638E+02  0.13809514847E+03 -0.66173195673E+02  0.17481895663E+03  0.79540013361E+02 0.  0.
          6    2    1    2  501    0 -0.69575592511E+02 -0.24632273048E+03  0.62953792593E+02  0.31472240499E+03  0.17196325647E+03 0.  0.
         24    2    5    5    0    0 -0.20840842735E+02 -0.15546523818E+03 -0.32239761824E+02  0.17431562971E+03  0.68867666648E+02 0.  0.
          5    1    5    5  501    0 -0.48734749776E+02 -0.90857492292E+02  0.95193554416E+02  0.14040677528E+03  0.47000000000E+01 0. -1.
        -13    1    6    6    0    0  0.19252084699E+02 -0.60731666341E+02  0.72640230322E+01  0.64122882752E+02  0.00000000000E+00 0.  1.
         14    1    6    6    0    0 -0.40092927434E+02 -0.94733571842E+02 -0.39503784856E+02  0.11019274696E+03  0.00000000000E+00 0. -1.
         -5    1    3    3    0  503  0.97609358149E+02  0.10822758201E+03 -0.85874301639E+02  0.16922553586E+03  0.47000000000E+01 0.  1.
         13    1    4    4    0    0  0.22594581428E+02  0.62851734274E+02 -0.84633760317E+01  0.67323727949E+02  0.00000000000E+00 0. -1.
        -14    1    4    4    0    0 -0.50628347065E+02  0.75243414195E+02 -0.57709819641E+02  0.10749522868E+03  0.00000000000E+00 0.  1.
</event>
<event>
12    1  0.8251070E-002  0.1945369E+03  0.7818608E-02  0.1154748E+00
         21   -1    0    0  503  502  0.00000000000E+00  0.00000000000E+00  0.66793573738E+02  0.66793573738E+02  0.00000000000E+00 0.  1.
         21   -1    0    0  501  503 -0.00000000000E+00 -0.00000000000E+00 -0.58721007762E+03  0.58721007762E+03  0.00000000000E+00 0. -1.
          6    2    1    2  501    0 -0.60303846645E+02  0.66367376355E+02 -0.19393057514E+03  0.27468833725E+03  0.17263670548E+03 0.  0.
         24    2    3    3    0    0 -0.61166720235E+02 -0.19467564667E+02 -0.71393186781E+02  0.12500238868E+03  0.80051585364E+02 0.  0.
         -6    2    1    2    0  502  0.60303846645E+02 -0.66367376355E+02 -0.32648592874E+03  0.37931531411E+03  0.17101421955E+03 0.  0.
        -24    2    5    5    0    0  0.34681984767E+02  0.25008336620E+02 -0.20551278394E+03  0.22548881285E+03  0.82349519667E+02 0.  0.
          5    1    3    3  501    0  0.86287359055E+00  0.85834941022E+02 -0.12253738836E+03  0.14968594856E+03  0.47000000000E+01 0. -1.
        -13    1    4    4    0    0 -0.42617077415E+01  0.23552442026E+02  0.19987256455E+00  0.23935739539E+02  0.00000000000E+00 0.  1.
         14    1    4    4    0    0 -0.56905012494E+02 -0.43020006692E+02 -0.71593059346E+02  0.10106664914E+03  0.00000000000E+00 0. -1.
         -5    1    5    5    0  502  0.25621861878E+02 -0.91375712976E+02 -0.12097314480E+03  0.15382650126E+03  0.47000000000E+01 0.  1.
         13    1    6    6    0    0 -0.13981554304E+02 -0.16696047610E+02 -0.97423947701E+02  0.99828189667E+02  0.00000000000E+00 0. -1.
        -14    1    6    6    0    0  0.48663539071E+02  0.41704384230E+02 -0.10808883624E+03  0.12566062318E+03  0.00000000000E+00 0.  1.
</event>
<event>
12    1  0.8251070E-002  0.3791941E+03  0.7818608E-02  0.1051334E+00
         21   -1    0    0  503  502  0.00000000000E+00  0.00000000000E+00  0.90980425686E+03  0.90980425686E+03  0.00000000000E+00 0. -1.
         21   -1    0    0  501  503 -0.00000000000E+00 -0.00000000000E+00 -0.25671953664E+03  0.25671953664E+03  0.00000000000E+00 0. -1.
          6    2    1    2  501    0 -0.93770577742E+02 -0.32340738026E+03 -0.35615708604E+02  0.38086298831E+03  0.17436422313E+03 0.  0.
         24    2    3    3    0    0 -0.19321220684E+02 -0.59554269542E+02 -0.29109373458E+02  0.10659014387E+03  0.81203956536E+02 0.  0.
         -6    2    1    2    0  502  0.93770577742E+02  0.32340738026E+03  0.68870042882E+03  0.78566080519E+03  0.17195745199E+03 0.  0.
        -24    2    5    5    0    0  0.55159983464E+02  0.20830940926E+03  0.57572128513E+03  0.61975511563E+03  0.78777988288E+02 0.  0.
          5    1    3    3  501    0 -0.74449357059E+02 -0.26385311072E+03 -0.65063351453E+01  0.27427284444E+03  0.47000000000E+01 0. -1.
        -11    1    4    4    0    0 -0.15058667979E+02  0.18043756839E+02  0.28026414670E+00  0.23503599515E+02  0.00000000000E+00 0.  1.
         12    1    4    4    0    0 -0.42625527044E+01 -0.77598026381E+02 -0.29389637605E+02  0.83086544352E+02  0.00000000000E+00 0. -1.
         -5    1    5    5    0  502  0.38610594278E+02  0.11509797099E+03  0.11297914369E+03  0.16590568955E+03  0.47000000000E+01 0.  1.
         11    1    6    6    0    0  0.55763043920E+02  0.12479631975E+03  0.43654507946E+03  0.45744425332E+03  0.00000000000E+00 0. -1.
        -12    1    6    6    0    0 -0.60306045654E+00  0.83513089510E+02  0.13917620567E+03  0.16231086232E+03  0.00000000000E+00 0.  1.
</event>
<event>
12    1  0.8251070E-002  0.2154569E+03  0.7818608E-02  0.1137606E+00
         21   -1    0    0  501  502  0.00000000000E+00  0.00000000000E+00  0.76088832239E+03  0.76088832239E+03  0.00000000000E+00 0. -1.
         21   -1    0    0  502  503 -0.00000000000E+00 -0.00000000000E+00 -0.68321848943E+02  0.68321848943E+02  0.00000000000E+00 0. -1.
         -6    2    1    2    0  503  0.10765890406E+03  0.71187359884E+02  0.20567000078E+03  0.29677252598E+03  0.17063324156E+03 0.  0.
        -24    2    3    3    0    0  0.43947174056E+02  0.24323500024E+02  0.21811921895E+02  0.96569406443E+02  0.79541835301E+02 0.  0.
          6    2    1    2  501    0 -0.10765890406E+03 -0.71187359884E+02  0.48689647267E+03  0.53243764535E+03  0.17252127771E+03 0.  0.
         24    2    5    5    0    0 -0.11974176572E+03 -0.74839024484E+02  0.26463741597E+03  0.30977083488E+03  0.77369491206E+02 0.  0.
          5    1    5    5  501    0  0.12082861665E+02  0.36516645995E+01  0.22225905670E+03  0.22266681047E+03  0.47000000000E+01 0. -1.
        -11    1    6    6    0    0 -0.28804327306E+02  0.26800793327E+01  0.14070058465E+02  0.32168908001E+02  0.00000000000E+00 0.  1.
         12    1    6    6    0    0 -0.90937438419E+02 -0.77519103816E+02  0.25056735750E+03  0.27760192688E+03  0.00000000000E+00 0. -1.
         -5    1    3    3    0  503  0.63711730003E+02  0.46863859860E+02  0.18385807888E+03  0.20020311954E+03  0.47000000000E+01 0.  1.
         13    1    4    4    0    0  0.40801110483E+02  0.39404730950E+02  0.42426546315E+02  0.70834139157E+02  0.00000000000E+00 0. -1.
        -14    1    4    4    0    0  0.31460635728E+01 -0.15081230926E+02 -0.20614624421E+02  0.25735267286E+02  0.00000000000E+00 0.  1.
</event>
<event>
12    1  0.8251070E-002  0.2110307E+03  0.7818608E-02  0.1140943E+00
         21   -1    0    0  503  502  0.00000000000E+00  0.00000000000E+00  0.14249307819E+04  0.14249307819E+04  0.00000000000E+00 0.  1.
         21   -1    0    0  501  503 -0.00000000000E+00 -0.00000000000E+00 -0.56036654995E+02  0.56036654995E+02  0.00000000000E+00 0. -1.
          6    2    1    2  501    0  0.52337589232E+02  0.10844741587E+03  0.19145639255E+03  0.28493768976E+03  0.17330283189E+03 0.  0.
         24    2    3    3    0    0  0.62746795582E+02  0.67761912860E+01  0.13084539281E+03  0.16602102661E+03  0.80370313746E+02 0.  0.
         -6    2    1    2    0  502 -0.52337589232E+02 -0.10844741587E+03  0.11774377343E+04  0.11960297471E+04  0.17212632715E+03 0.  0.
        -24    2    5    5    0    0 -0.46179431086E+02 -0.52068538349E+01  0.56652240892E+03  0.57640392342E+03  0.95572966612E+02 0.  0.
          5    1    3    3  501    0 -0.10409206350E+02  0.10167122459E+03  0.60610999740E+02  0.11891666315E+03  0.47000000000E+01 0. -1.
        -13    1    4    4    0    0 -0.15930320086E+02  0.11447851874E+02  0.47090764890E+02  0.51013415378E+02  0.00000000000E+00 0.  1.
         14    1    4    4    0    0  0.78677115668E+02 -0.46716605879E+01  0.83754627921E+02  0.11500761123E+03  0.00000000000E+00 0. -1.
         -5    1    5    5    0  502 -0.61581581455E+01 -0.10324056204E+03  0.61091532542E+03  0.61962582369E+03  0.47000000000E+01 0.  1.
         13    1    6    6    0    0 -0.46947679880E+02  0.16209209261E+02  0.12710536459E+03  0.13646463578E+03  0.00000000000E+00 0. -1.
        -14    1    6    6    0    0  0.76824879340E+00 -0.21416063096E+02  0.43941704433E+03  0.43993928764E+03  0.00000000000E+00 0.  1.
</event>
<event>
12    1  0.8251070E-002  0.3344581E+03  0.7818608E-02  0.1069500E+00
         21   -1    0    0  503  502  0.00000000000E+00  0.00000000000E+00  0.51791382029E+03  0.51791382029E+03  0.00000000000E+00 0.  1.
         21   -1    0    0  501  503 -0.00000000000E+00 -0.00000000000E+00 -0.21631004845E+03  0.21631004845E+03  0.00000000000E+00 0. -1.
          6    2    1    2  501    0 -0.28573279316E+03  0.10256419027E+02  0.11307882497E+03  0.35029176670E+03  0.16783646190E+03 0.  0.
         24    2    3    3    0    0 -0.12796175188E+03 -0.29277135547E+02 -0.74355750630E+00  0.15171626933E+03  0.76065188434E+02 0.  0.
         -6    2    1    2    0  502  0.28573279316E+03 -0.10256419027E+02  0.18852494687E+03  0.38393210204E+03  0.17353322497E+03 0.  0.
        -24    2    5    5    0    0  0.12433597053E+03  0.13512380026E+02  0.15961446566E+03  0.21818592233E+03  0.80537575548E+02 0.  0.
          5    1    3    3  501    0 -0.15777104128E+03  0.39533554574E+02  0.11382238248E+03  0.19857549737E+03  0.47000000000E+01 0. -1.
        -11    1    4    4    0    0 -0.31696187828E+02 -0.26838216553E+02  0.29316630935E+02  0.50837024302E+02  0.00000000000E+00 0.  1.
         12    1    4    4    0    0 -0.96265564052E+02 -0.24389189943E+01 -0.30060188441E+02  0.10087924503E+03  0.00000000000E+00 0. -1.
         -5    1    5    5    0  502  0.16139682263E+03 -0.23768799052E+02  0.28910481212E+02  0.16574617971E+03  0.47000000000E+01 0.  1.
         11    1    6    6    0    0  0.84565089264E+02  0.38532391670E+02  0.67756795536E+02  0.11500862086E+03  0.00000000000E+00 0. -1.
        -12    1    6    6    0    0  0.39770881263E+02 -0.25020011644E+02  0.91857670124E+02  0.10317730148E+03  0.00000000000E+00 0.  1.
</event>
<event>
12    1  0.8251070E-002  0.1977535E+03  0.7818608E-02  0.1151959E+00
         21   -1    0    0  503  502  0.00000000000E+00  0.00000000000E+00  0.12046073396E+03  0.12046073396E+03  0.00000000000E+00 0.  1.
         21   -1    0    0  501  503 -0.00000000000E+00 -0.00000000000E+00 -0.62893282995E+03  0.62893282995E+03  0.00000000000E+00 0. -1.
          6    2    1    2  501    0 -0.38771036094E+02  0.83715142806E+02 -0.51635275875E+03  0.55292551887E+03  0.17491437784E+03 0.  0.
         24    2    3    3    0    0  0.45191531098E+02  0.26350195359E+02 -0.29719644335E+03  0.31128108905E+03  0.76377897199E+02 0.  0.
         -6    2    1    2    0  502  0.38771036094E+02 -0.83715142806E+02  0.78806627662E+01  0.19646804504E+03  0.17328060913E+03 0.  0.
        -24    2    5    5    0    0 -0.37383168905E+02 -0.38463725922E+02  0.35884608245E+02  0.10344404474E+03  0.80845567315E+02 0.  0.
          5    1    3    3  501    0 -0.83962567192E+02  0.57364947447E+02 -0.21915631541E+03  0.24164442983E+03  0.47000000000E+01 0. -1.
        -11    1    4    4    0    0 -0.43631746904E+01 -0.20137987755E+02 -0.36909510062E+02  0.42271595394E+02  0.00000000000E+00 0.  1.
         12    1    4    4    0    0  0.49554705788E+02  0.46488183114E+02 -0.26028693329E+03  0.26900949365E+03  0.00000000000E+00 0. -1.
         -5    1    5    5    0  502  0.76154205000E+02 -0.45251416884E+02 -0.28003945479E+02  0.93024000298E+02  0.47000000000E+01 0.  1.
         13    1    6    6    0    0 -0.35063229496E+01 -0.36160846170E+02 -0.17382722703E+02  0.40274807820E+02  0.00000000000E+00 0. -1.
        -14    1    6    6    0    0 -0.33876845956E+02 -0.23028797525E+01  0.53267330948E+02  0.63169236922E+02  0.00000000000E+00 0.  1.
</event>
<event>
12    1  0.8251070E-002  0.1789771E+03  0.7818608E-02  0.1170204E+00
         21   -1    0    0  503  502  0.00000000000E+00  0.00000000000E+00  0.60789378916E+03  0.60789378916E+03  0.00000000000E+00 0.  1.
         21   -1    0    0  501  503 -0.00000000000E+00 -0.00000000000E+00 -0.98048710603E+02  0.98048710603E+02  0.00000000000E+00 0.  1.
          6    2    1    2  501    0  0.46458941065E+01  0.31659907644E+02  0.12666445408E+02  0.17942470332E+03  0.17609330265E+03 0.  0.
         24    2    3    3    0    0  0.38785587562E+02  0.38282372219E+02 -0.48742509329E+02  0.10869616999E+03  0.80431109210E+02 0.  0.
         -6    2    1    2    0  502 -0.46458941065E+01 -0.31659907644E+02  0.49717863315E+03  0.52651779644E+03  0.17032458021E+03 0.  0.
        -24    2    5    5    0    0  0.33174174213E+02  0.33206356414E+02  0.21317623174E+03  0.23271949184E+03  0.80691190109E+02 0.  0.
          5    1    3    3  501    0 -0.34139693456E+02 -0.66224645750E+01  0.61408954737E+02  0.70728533338E+02  0.47000000000E+01 0. -1.
        -11    1    4    4    0    0  0.18526850015E+00  0.18794888724E+02  0.20024665832E+02  0.27463965632E+02  0.00000000000E+00 0.  1.
         12    1    4    4    0    0  0.38600319062E+02  0.19487483495E+02 -0.68767175160E+02  0.81232204354E+02  0.00000000000E+00 0. -1.
         -5    1    5    5    0  502 -0.37820068319E+02 -0.64866264058E+02  0.28400240141E+03  0.29379830461E+03  0.47000000000E+01 0.  1.
         11    1    6    6    0    0 -0.17059026457E+02 -0.33082894726E+01  0.95383111123E+01  0.19822576568E+02  0.00000000000E+00 0. -1.
        -12    1    6    6    0    0  0.50233200670E+02  0.36514645887E+02  0.20363792063E+03  0.21289691527E+03  0.00000000000E+00 0.  1.
</event>
<event>
12    1  0.8251070E-002  0.3067143E+03  0.7818608E-02  0.1081987E+00
         21   -1    0    0  503  502  0.00000000000E+00  0.00000000000E+00  0.13482280131E+03  0.13482280131E+03  0.00000000000E+00 0. -1.
         21   -1    0    0  501  503 -0.00000000000E+00 -0.00000000000E+00 -0.73299749421E+03  0.73299749421E+03  0.00000000000E+00 0.  1.
          6    2    1    2  501    0 -0.39082628288E+02  0.24954203007E+03 -0.39583369482E+03  0.50075738050E+03  0.17399702172E+03 0.  0.
         24    2    3    3    0    0 -0.87396296592E+01  0.16260898601E+03 -0.35756360231E+03  0.40093382770E+03  0.79863264607E+02 0.  0.
         -6    2    1    2    0  502  0.39082628288E+02 -0.24954203007E+03 -0.20234099808E+03  0.36706291503E+03  0.17318957094E+03 0.  0.
        -24    2    5    5    0    0 -0.27541217424E+02 -0.20803464106E+03 -0.13134205904E+03  0.26111698776E+03  0.83032609773E+02 0.  0.
          5    1    3    3  501    0 -0.30342998629E+02  0.86933044051E+02 -0.38270092508E+02  0.99823552804E+02  0.47000000000E+01 0. -1.
        -11    1    4    4    0    0  0.29522562003E+02  0.11520166705E+03 -0.21087880333E+03  0.24210096128E+03  0.00000000000E+00 0.  1.
         12    1    4    4    0    0 -0.38262191663E+02  0.47407318969E+02 -0.14668479898E+03  0.15883286642E+03  0.00000000000E+00 0. -1.
         -5    1    5    5    0  502  0.66623845712E+02 -0.41507389003E+02 -0.70998939042E+02  0.10594592727E+03  0.47000000000E+01 0.  1.
         11    1    6    6    0    0  0.20162627812E+02 -0.13737556406E+03 -0.66186892197E+02  0.15381573996E+03  0.00000000000E+00 0. -1.
        -12    1    6    6    0    0 -0.47703845236E+02 -0.70659076999E+02 -0.65155166841E+02  0.10730124780E+03  0.00000000000E+00 0.  1.
</event>
<event>
12    1  0.8251070E-002  0.2355066E+03  0.7818608E-02  0.1123425E+00
         21   -1    0    0  503  502  0.00000000000E+00  0.00000000000E+00  0.11213192006E+04  0.11213192006E+04  0.00000000000E+00 0. -1.
         21   -1    0    0  501  503 -0.00000000000E+00 -0.00000000000E+00 -0.87400525750E+02  0.87400525750E+02  0.00000000000E+00 0.  1.
          6    2    1    2  501    0 -0.20147362485E+02  0.15846707846E+03  0.11280418280E+03  0.25797512888E+03  0.16825175272E+03 0.  0.
         24    2    3    3    0    0  0.41562381481E+02  0.10089724583E+03  0.31962600427E+02  0.14101432532E+03  0.83401117199E+02 0.  0.
         -6    2    1    2    0  502  0.20147362485E+02 -0.15846707846E+03  0.92111449203E+03  0.95074459745E+03  0.17304811750E+03 0.  0.
        -24    2    5    5    0    0  0.74031833198E+01 -0.18594653229E+03  0.83761886782E+03  0.86179998689E+03  0.80392348321E+02 0.  0.
          5    1    3    3  501    0 -0.61709743965E+02  0.57569832634E+02  0.80841582371E+02  0.11696080356E+03  0.47000000000E+01 0. -1.
        -11    1    4    4    0    0  0.34637196708E+01  0.69505280576E+02 -0.16837577541E+02  0.71599479044E+02  0.00000000000E+00 0.  1.
         12    1    4    4    0    0  0.38098661810E+02  0.31391965252E+02  0.48800177968E+02  0.69414846278E+02  0.00000000000E+00 0. -1.
         -5    1    5    5    0  502  0.12744179165E+02  0.27479453832E+02  0.83495624210E+02  0.88944610560E+02  0.47000000000E+01 0.  1.
         11    1    6    6    0    0 -0.20355408530E+02 -0.12051830251E+03  0.64519180730E+03  0.65666694153E+03  0.00000000000E+00 0. -1.
        -12    1    6    6    0    0  0.27758591850E+02 -0.65428229783E+02  0.19242706053E+03  0.20513304536E+03  0.00000000000E+00 0.  1.
</event>
<event>
12    1  0.8251070E-002  0.2227162E+03  0.7818608E-02  0.1131901E+00
         21   -1    0    0  501  502  0.00000000000E+00  0.00000000000E+00  0.31812469583E+03  0.31812469583E+03  0.00000000000E+00 0. -1.
         21   -1    0    0  502  503 -0.00000000000E+00 -0.00000000000E+00 -0.17914855199E+03  0.17914855199E+03  0.00000000000E+00 0.  1.
         -6    2    1    2    0  503  0.19635809470E+02  0.14047895136E+03  0.15923293772E+03  0.27378395545E+03  0.17170505239E+03 0.  0.
        -24    2    3    3    0    0 -0.27797138074E+02  0.14362644309E+02  0.77210016545E+02  0.11597059412E+03  0.80677293013E+02 0.  0.
          6    2    1    2  501    0 -0.19635809470E+02 -0.14047895136E+03 -0.20256793886E+02  0.22348929237E+03  0.17151450469E+03 0.  0.
         24    2    5    5    0    0 -0.40650553247E+01 -0.11441772958E+03  0.48919547944E+02  0.14779852719E+03  0.79645093706E+02 0.  0.
          5    1    5    5  501    0 -0.15570754145E+02 -0.26061221778E+02 -0.69176341830E+02  0.75690765184E+02  0.47000000000E+01 0. -1.
        -11    1    6    6    0    0  0.10911420096E+02 -0.40965245267E+02 -0.19171408147E+02  0.46526909403E+02  0.00000000000E+00 0.  1.
         12    1    6    6    0    0 -0.14976475421E+02 -0.73452484314E+02  0.68090956091E+02  0.10127161779E+03  0.00000000000E+00 0. -1.
         -5    1    3    3    0  503  0.47432947543E+02  0.12611630705E+03  0.82022921176E+02  0.15781336133E+03  0.47000000000E+01 0.  1.
         13    1    4    4    0    0 -0.28147899342E+02  0.45409851472E+02  0.60490336311E+02  0.80705883522E+02  0.00000000000E+00 0. -1.
        -14    1    4    4    0    0  0.35076126857E+00 -0.31047207163E+02  0.16719680234E+02  0.35264710593E+02  0.00000000000E+00 0.  1.
</event>
<event>
12    1  0.8251070E-002  0.1908081E+03  0.7818608E-02  0.1158935E+00
         21   -1    0    0  501  502  0.00000000000E+00  0.00000000000E+00  0.16800415024E+04  0.16800415024E+04  0.00000000000E+00 0.  1.
         21   -1    0    0  502  503 -0.00000000000E+00 -0.00000000000E+00 -0.86385315683E+02  0.86385315683E+02  0.00000000000E+00 0. -1.
         -6    2    1    2    0  503 -0.31382894734E+01 -0.76177670663E+02  0.26168843185E+02  0.18736876931E+03  0.16914301934E+03 0.  0.
        -24    2    3    3    0    0  0.21188731015E+02 -0.95507222043E+02 -0.23970286635E+02  0.12819565192E+03  0.79302955472E+02 0.  0.
          6    2    1    2  501    0  0.31382894734E+01  0.76177670663E+02  0.15674873435E+04  0.15790580488E+04  0.17491387277E+03 0.  0.
         24    2    5    5    0    0 -0.41712960034E+00 -0.28199431346E+02  0.66628419111E+03  0.67181142719E+03  0.81244005680E+02 0.  0.
          5    1    5    5  501    0  0.35554190738E+01  0.10437710201E+03  0.90120315241E+03  0.90724662156E+03  0.47000000000E+01 0. -1.
        -11    1    6    6    0    0  0.29265202130E+02  0.37288879001E+01  0.11216143188E+03  0.11597647805E+03  0.00000000000E+00 0.  1.
         12    1    6    6    0    0 -0.29682331730E+02 -0.31928319246E+02  0.55412275923E+03  0.55583494914E+03  0.00000000000E+00 0. -1.
         -5    1    3    3    0  503 -0.24327020488E+02  0.19329551380E+02  0.50139129820E+02  0.59173117389E+02  0.47000000000E+01 0.  1.
         11    1    4    4    0    0  0.32491998509E+01  0.81757265884E+01 -0.21180739217E+02  0.22935202609E+02  0.00000000000E+00 0. -1.
        -12    1    4    4    0    0  0.17939531164E+02 -0.10368294863E+03 -0.27895474173E+01  0.10526044932E+03  0.00000000000E+00 0.  1.
</event>
<event>
12    1  0.8251070E-002  0.1745065E+03  0.7818608E-02  0.1173373E+00
         21   -1    0    0  501  502  0.00000000000E+00  0.00000000000E+00  0.16587570454E+03  0.16587570454E+03  0.00000000000E+00 0.  1.
         21   -1    0    0  502  503 -0.00000000000E+00 -0.00000000000E+00 -0.42935530425E+03  0.42935530425E+03  0.00000000000E+00 0.  1.
         -6    2    1    2    0  503 -0.26812460299E+02  0.11985777953E+02 -0.35727916338E+03  0.39761906590E+03  0.17201730751E+03 0.  0.
        -24    2    3    3    0    0  0.42916265971E+02  0.28253549369E+01 -0.27392868371E+03  0.28846137686E+03  0.79518888715E+02 0.  0.
          6    2    1    2  501    0  0.26812460299E+02 -0.11985777953E+02  0.93799563677E+02  0.19761194289E+03  0.17143382083E+03 0.  0.
         24    2    5    5    0    0  0.48323536039E+02 -0.15713113368E+01 -0.73323844517E+01  0.93588155095E+02  0.79795649992E+02 0.  0.
          5    1    5    5  501    0 -0.21511075740E+02 -0.10414466616E+02  0.10113194813E+03  0.10402378779E+03  0.47000000000E+01 0. -1.
        -13    1    6    6    0    0  0.61805697433E+02 -0.22570583751E+02 -0.14992058126E+02  0.67484348503E+02  0.00000000000E+00 0.  1.
         14    1    6    6    0    0 -0.13482161394E+02  0.20999272414E+02  0.76596736742E+01  0.26103806592E+02  0.00000000000E+00 0. -1.
         -5    1    3    3    0  503 -0.69728726270E+02  0.91604230159E+01 -0.83350479664E+02  0.10915768904E+03  0.47000000000E+01 0.  1.
         11    1    4    4    0    0  0.40659697661E+02 -0.33037890113E+02 -0.13106949767E+03  0.14115213925E+03  0.00000000000E+00 0. -1.
        -12    1    4    4    0    0  0.22565683107E+01  0.35863245049E+02 -0.14285918605E+03  0.14730923761E+03  0.00000000000E+00 0.  1.
</event>
<event>
12    1  0.8251070E-002  0.1827592E+03  0.7818608E-02  0.1170018E+00
         21   -1    0    0  503  502  0.00000000000E+00  0.00000000000E+00  0.50122963414E+03  0.50122963414E+03  0.00000000000E+00 0.  1.
         21   -1    0    0  501  503 -0.00000000000E+00 -0.00000000000E+00 -0.11330864311E+03  0.11330864311E+03  0.00000000000E+00 0.  1.
          6    2    1    2  501    0  0.46299782614E+02 -0.38600197300E+02 -0.22750834009E+02  0.16503604072E+03  0.15193962349E+03 0.  0.
         24    2    3    3    0    0  0.21970755284E+02 -0.30496561163E+02 -0.68342307766E+02  0.11251706349E+03  0.81096635047E+02 0.  0.
         -6    2    1    2    0  502 -0.46299782614E+02  0.38600197300E+02  0.41067182503E+03  0.44950223653E+03  0.17253193231E+03 0.  0.
        -24    2    5    5    0    0 -0.72872043243E+02  0.48042207530E+02  0.19002310996E+03  0.22700913090E+03  0.88351427833E+02 0.  0.
          5    1    3    3  501    0  0.24329027329E+02 -0.81036361377E+01  0.45591473756E+02  0.52518977224E+02  0.47000000000E+01 0. -1.
        -11    1    4    4    0    0  0.48530172274E+02 -0.31446814004E+01 -0.24626034167E+02  0.54511541905E+02  0.00000000000E+00 0.  1.
         12    1    4    4    0    0 -0.26559416990E+02 -0.27351879762E+02 -0.43716273599E+02  0.58005521588E+02  0.00000000000E+00 0. -1.
         -5    1    5    5    0  502  0.26572260629E+02 -0.94420102301E+01  0.22064871507E+03  0.22249310563E+03  0.47000000000E+01 0.  1.
         13    1    6    6    0    0 -0.27977475345E+02 -0.22913681579E+02  0.33052965040E+02  0.48992595646E+02  0.00000000000E+00 0. -1.
        -14    1    6    6    0    0 -0.44894567898E+02  0.70955889109E+02  0.15697014492E+03  0.17801653525E+03  0.00000000000E+00 0.  1.
</event>
<event>
12    1  0.8251070E-002  0.2046784E+03  0.7818608E-02  0.1146045E+00
         21   -1    0    0  501  502  0.00000000000E+00  0.00000000000E+00  0.39422773402E+03  0.39422773402E+03  0.00000000000E+00 0.  1.
         21   -1    0    0  502  503 -0.00000000000E+00 -0.00000000000E+00 -0.10608394724E+03  0.10608394724E+03  0.00000000000E+00 0.  1.
         -6    2    1    2    0  503 -0.10857139312E+03  0.21774911521E+02  0.15719582753E+03  0.25732892508E+03  0.17101389802E+03 0.  0.
        -24    2    3    3    0    0 -0.79549167844E+02  0.72851315810E+02  0.67819871375E+02  0.15027174329E+03  0.79666037662E+02 0.  0.
          6    2    1    2  501    0  0.10857139312E+03 -0.21774911521E+02  0.13094795924E+03  0.24298275618E+03  0.17213761238E+03 0.  0.
         24    2    5    5    0    0  0.13694647604E+03 -0.21815689954E+02  0.14041879894E+03  0.21270184143E+03  0.79337082273E+02 0.  0.
          5    1    5    5  501    0 -0.28375082923E+02  0.40778433517E-01 -0.94708396970E+01  0.30280914754E+02  0.47000000000E+01 0. -1.
        -13    1    6    6    0    0  0.10380477045E+03  0.12430962774E+02  0.63816293601E+02  0.12248460529E+03  0.00000000000E+00 0.  1.
         14    1    6    6    0    0  0.33141705589E+02 -0.34246652729E+02  0.76602505340E+02  0.90217236140E+02  0.00000000000E+00 0. -1.
         -5    1    3    3    0  503 -0.29022225272E+02 -0.51076404290E+02  0.89375956157E+02  0.10705718179E+03  0.47000000000E+01 0.  1.
         13    1    4    4    0    0 -0.74093537021E+01 -0.16838684666E+02  0.46520616342E+01  0.18975813580E+02  0.00000000000E+00 0. -1.
        -14    1    4    4    0    0 -0.72139814142E+02  0.89690000476E+02  0.63167809741E+02  0.13129592971E+03  0.00000000000E+00 0.  1.
</event>
<event>
12    1  0.8251070E-002  0.5223895E+03  0.7818608E-02  0.1008099E+00
         21   -1    0    0  501  502  0.00000000000E+00  0.00000000000E+00  0.81914630901E+03  0.81914630901E+03  0.00000000000E+00 0. -1.
         21   -1    0    0  502  503 -0.00000000000E+00 -0.00000000000E+00 -0.33351707118E+03  0.33351707118E+03  0.00000000000E+00 0.  1.
         -6    2    1    2    0  503  0.30626531865E+03  0.38346731006E+03  0.22226847447E+03  0.56764226839E+03  0.17879834122E+03 0.  0.
        -24    2    3    3    0    0  0.23456612270E+03  0.34314976265E+03  0.13060100551E+03  0.44438930009E+03  0.87476864741E+02 0.  0.
          6    2    1    2  501    0 -0.30626531865E+03 -0.38346731006E+03  0.26336076336E+03  0.58502111181E+03  0.17901169316E+03 0.  0.
         24    2    5    5    0    0 -0.22770055444E+03 -0.26544866941E+03  0.26008475965E+03  0.44312803967E+03  0.80048977285E+02 0.  0.
          5    1    5    5  501    0 -0.78564764213E+02 -0.11801864066E+03  0.32760037097E+01  0.14189307213E+03  0.47000000000E+01 0. -1.
        -13    1    6    6    0    0 -0.17168193463E+03 -0.16076977742E+03  0.20600683844E+03  0.31266663636E+03  0.00000000000E+00 0.  1.
         14    1    6    6    0    0 -0.56018619806E+02 -0.10467889198E+03  0.54077921210E+02  0.13046140331E+03  0.00000000000E+00 0. -1.
         -5    1    3    3    0  503  0.71699195952E+02  0.40317547410E+02  0.91667468963E+02  0.12325296830E+03  0.47000000000E+01 0.  1.
         13    1    4    4    0    0  0.15543851203E+02  0.71755524064E+02  0.45526937634E+01  0.73560815414E+02  0.00000000000E+00 0. -1.
        -14    1    4    4    0    0  0.21902227150E+03  0.27139423859E+03  0.12604831175E+03  0.37082848467E+03  0.00000000000E+00 0.  1.
</event>
<event>
12    1  0.8251070E-002  0.2778226E+03  0.7818608E-02  0.1097251E+00
         21   -1    0    0  501  502  0.00000000000E+00  0.00000000000E+00  0.53048500185E+02  0.53048500185E+02  0.00000000000E+00 0. -1.
         21   -1    0    0  502  503 -0.00000000000E+00 -0.00000000000E+00 -0.17080020913E+04  0.17080020913E+04  0.00000000000E+00 0.  1.
         -6    2    1    2    0  503 -0.10613325434E+03  0.18754358329E+03 -0.11788549085E+04  0.12111499979E+04  0.17535266943E+03 0.  0.
        -24    2    3    3    0    0 -0.85873796832E+02  0.36321821981E+02 -0.43071900943E+03  0.44760047084E+03  0.78318150373E+02 0.  0.
          6    2    1    2  501    0  0.10613325434E+03 -0.18754358329E+03 -0.47609868258E+03  0.54990059361E+03  0.17112522895E+03 0.  0.
         24    2    5    5    0    0  0.99326043666E+02 -0.18072207191E+03 -0.48715713037E+03  0.53449765875E+03  0.76416930809E+02 0.  0.
          5    1    5    5  501    0  0.68072106753E+01 -0.68215113812E+01  0.11058447788E+02  0.15402934856E+02  0.47000000000E+01 0. -1.
        -13    1    6    6    0    0 -0.22829697277E+01  0.59829417907E+01 -0.75717680550E+01  0.99166130673E+01  0.00000000000E+00 0.  1.
         14    1    6    6    0    0  0.10160901339E+03 -0.18670501370E+03 -0.47958536232E+03  0.52458104569E+03  0.00000000000E+00 0. -1.
         -5    1    3    3    0  503 -0.20259457509E+02  0.15122176131E+03 -0.74813589912E+03  0.76354952706E+03  0.47000000000E+01 0.  1.
         13    1    4    4    0    0  0.69680005299E+01 -0.14381266003E+02 -0.55594707181E+02  0.57845875478E+02  0.00000000000E+00 0. -1.
        -14    1    4    4    0    0 -0.92841797362E+02  0.50703087985E+02 -0.37512430224E+03  0.38975459536E+03  0.00000000000E+00 0.  1.
</event>
<event>
12    1  0.8251070E-002  0.1727083E+03  0.7818608E-02  0.1175216E+00
         21   -1    0    0  503  502  0.00000000000E+00  0.00000000000E+00  0.52888882938E+03  0.52888882938E+03  0.00000000000E+00 0. -1.
         21   -1    0    0  501  503 -0.00000000000E+00 -0.00000000000E+00 -0.60847144183E+02  0.60847144183E+02  0.00000000000E+00 0. -1.
          6    2    1    2  501    0  0.14723450968E+02  0.30462115134E+01  0.15203714493E+03  0.22961510432E+03  0.17141103606E+03 0.  0.
         24    2    3    3    0    0  0.71993806908E+02 -0.89713905579E+01  0.66450137078E+02  0.12582906315E+03  0.78445766837E+02 0.  0.
         -6    2    1    2    0  502 -0.14723450968E+02 -0.30462115134E+01  0.31600454027E+03  0.36012086924E+03  0.17205264188E+03 0.  0.
        -24    2    5    5    0    0 -0.35323519835E+02 -0.51910641950E+02  0.27500535114E+03  0.29292623472E+03  0.78964359242E+02 0.  0.
          5    1    3    3  501    0 -0.57270355940E+02  0.12017602071E+02  0.85587007848E+02  0.10378604117E+03  0.47000000000E+01 0. -1.
        -11    1    4    4    0    0  0.48023804469E+01 -0.12068290920E+02 -0.15231170645E+02  0.20017369031E+02  0.00000000000E+00 0.  1.
         12    1    4    4    0    0  0.67191426461E+02  0.30969003617E+01  0.81681307723E+02  0.10581169412E+03  0.00000000000E+00 0. -1.
         -5    1    5    5    0  502  0.20600068867E+02  0.48864430437E+02  0.40999189137E+02  0.67194634526E+02  0.47000000000E+01 0.  1.
         13    1    6    6    0    0 -0.25804883546E+02 -0.61052942340E+02  0.11779545989E+03  0.13516332400E+03  0.00000000000E+00 0. -1.
        -14    1    6    6    0    0 -0.95186362893E+01  0.91423003896E+01  0.15720989125E+03  0.15776291072E+03  0.00000000000E+00 0.  1.
</event>
<event>
12    1  0.8251070E-002  0.4886058E+03  0.7818608E-02  0.1016808E+00
         21   -1    0    0  503  502  0.00000000000E+00  0.00000000000E+00  0.90199638136E+03  0.90199638136E+03  0.00000000000E+00 0.  1.
         21   -1    0    0  501  503 -0.00000000000E+00 -0.00000000000E+00 -0.37616033582E+03  0.37616033582E+03  0.00000000000E+00 0. -1.
          6    2    1    2  501    0 -0.27228133626E+03 -0.36730241547E+03  0.61101042093E+03  0.78234859338E+03  0.17230030931E+03 0.  0.
         24    2    3    3    0    0 -0.16005801095E+03 -0.29114779539E+03  0.35322183804E+03  0.49102292618E+03  0.77150771436E+02 0.  0.
         -6    2    1    2    0  502  0.27228133626E+03  0.36730241547E+03 -0.85174375382E+02  0.49580812380E+03  0.17182209088E+03 0.  0.
        -24    2    5    5    0    0  0.74234457975E+02  0.12997295977E+03  0.15557347027E+02  0.17066691380E+03  0.80507387213E+02 0.  0.
          5    1    3    3  501    0 -0.11222332531E+03 -0.76154620088E+02  0.25778858288E+03  0.29132566720E+03  0.47000000000E+01 0. -1.
        -13    1    4    4    0    0 -0.97453027065E+02 -0.99649919283E+02  0.13561449020E+03  0.19446976333E+03  0.00000000000E+00 0.  1.
         14    1    4    4    0    0 -0.62604983885E+02 -0.19149787610E+03  0.21760734785E+03  0.29655316285E+03  0.00000000000E+00 0. -1.
         -5    1    5    5    0  502  0.19804687829E+03  0.23732945570E+03 -0.10073172241E+03  0.32514121000E+03  0.47000000000E+01 0.  1.
         11    1    6    6    0    0  0.39934312335E+02  0.21170101534E+02 -0.22389178523E+02  0.50440041789E+02  0.00000000000E+00 0. -1.
        -12    1    6    6    0    0  0.34300145639E+02  0.10880285824E+03  0.37946525550E+02  0.12022687201E+03  0.00000000000E+00 0.  1.
</event>
<event>
12    1  0.8251070E-002  0.2328231E+03  0.7818608E-02  0.1124681E+00
         21   -1    0    0  501  502  0.00000000000E+00  0.00000000000E+00  0.23653476781E+04  0.23653476781E+04  0.00000000000E+00 0.  1.
         21   -1    0    0  502  503 -0.00000000000E+00 -0.00000000000E+00 -0.28894576216E+02  0.28894576216E+02  0.00000000000E+00 0.  1.
         -6    2    1    2    0  503  0.15451903526E+03  0.26770979984E+02  0.62354576146E+03  0.66559441040E+03  0.17208656224E+03 0.  0.
        -24    2    3    3    0    0  0.46704445671E+02 -0.45156681943E+02  0.30007009632E+03  0.31708878604E+03  0.79264142938E+02 0.  0.
          6    2    1    2  501    0 -0.15451903526E+03 -0.26770979984E+02  0.17129073404E+04  0.17286478439E+04  0.17198544632E+03 0.  0.
         24    2    5    5    0    0 -0.11419063610E+03  0.46489372267E+02  0.95781867040E+03  0.96892786353E+03  0.78764435176E+02 0.  0.
          5    1    5    5  501    0 -0.40328399155E+02 -0.73260352251E+02  0.75508867001E+03  0.75971998037E+03  0.47000000000E+01 0. -1.
        -11    1    6    6    0    0 -0.23647804819E+02  0.22694635754E+02  0.52875047260E+03  0.52976535130E+03  0.00000000000E+00 0.  1.
         12    1    6    6    0    0 -0.90542831285E+02  0.23794736513E+02  0.42906819780E+03  0.43916251223E+03  0.00000000000E+00 0. -1.
         -5    1    3    3    0  503  0.10781458959E+03  0.71927661927E+02  0.32347566514E+03  0.34850562436E+03  0.47000000000E+01 0.  1.
         13    1    4    4    0    0 -0.76931169877E+01  0.13889463933E+02  0.18915210254E+02  0.24695878933E+02  0.00000000000E+00 0. -1.
        -14    1    4    4    0    0  0.54397562659E+02 -0.59046145876E+02  0.28115488607E+03  0.29239290711E+03  0.00000000000E+00 0.  1.
</event>
<event>
12    1  0.8251070E-002  0.1759588E+03  0.7818608E-02  0.1171908E+00
         21   -1    0    0  501  502  0.00000000000E+00  0.00000000000E+00  0.66520015515E+03  0.66520015515E+03  0.00000000000E+00 0.  1.
         21   -1    0    0  502  503 -0.00000000000E+00 -0.00000000000E+00 -0.55195898896E+02  0.55195898896E+02  0.00000000000E+00 0.  1.
         -6    2    1    2    0  503 -0.34394661383E+02  0.96412450579E+01  0.16082270486E+03  0.23797966367E+03  0.17173942933E+03 0.  0.
        -24    2    3    3    0    0  0.18372040024E+02  0.61176072806E+02  0.80103865426E+02  0.12853659954E+03  0.77620773160E+02 0.  0.
          6    2    1    2  501    0  0.34394661383E+02 -0.96412450579E+01  0.44918155140E+03  0.48241639038E+03  0.17229498323E+03 0.  0.
         24    2    5    5    0    0  0.12765466622E+02  0.53178967131E+02  0.16115124136E+03  0.18678528473E+03  0.76993897905E+02 0.  0.
          5    1    5    5  501    0  0.21629194762E+02 -0.62820212189E+02  0.28803031004E+03  0.29563110565E+03  0.47000000000E+01 0. -1.
        -11    1    6    6    0    0  0.40042791031E+02  0.32447586090E+02  0.13233432458E+03  0.14201635265E+03  0.00000000000E+00 0.  1.
         12    1    6    6    0    0 -0.27277324409E+02  0.20731381041E+02  0.28816916779E+02  0.44768932079E+02  0.00000000000E+00 0. -1.
         -5    1    3    3    0  503 -0.52766701407E+02 -0.51534827748E+02  0.80718839429E+02  0.10944306413E+03  0.47000000000E+01 0.  1.
         13    1    4    4    0    0  0.17479734594E+02  0.21813394825E+02  0.84420411186E+02  0.88927898548E+02  0.00000000000E+00 0. -1.
        -14    1    4    4    0    0  0.89230543010E+00  0.39362677981E+02 -0.43165457598E+01  0.39608700990E+02  0.00000000000E+00 0.  1.
</event>
<event>
12    1  0.8251070E-002  0.1795506E+03  0.7818608E-02  0.1168546E+00
         21   -1    0    0  501  502  0.00000000000E+00  0.00000000000E+00  0.50782150294E+02  0.50782150294E+02  0.00000000000E+00 0. -1.
         21   -1    0    0  502  503 -0.00000000000E+00 -0.00000000000E+00 -0.11254970324E+04  0.11254970324E+04  0.00000000000E+00 0. -1.
         -6    2    1    2    0  503 -0.29055359922E+02 -0.42106613637E+02 -0.92850542365E+03  0.94570647832E+03  0.17210822331E+03 0.  0.
        -24    2    3    3    0    0 -0.14693186141E+02 -0.49966597934E+02 -0.25142395838E+03  0.26841078809E+03  0.78216326216E+02 0.  0.
          6    2    1    2  501    0  0.29055359922E+02  0.42106613637E+02 -0.14620945850E+03  0.23057270442E+03  0.17079047227E+03 0.  0.
         24    2    5    5    0    0 -0.31067606010E+02  0.28707599141E+02 -0.24356003428E+02  0.93954041220E+02  0.80279664716E+02 0.  0.
          5    1    5    5  501    0  0.60122965933E+02  0.13399014496E+02 -0.12185345507E+03  0.13661866320E+03  0.47000000000E+01 0. -1.
        -13    1    6    6    0    0 -0.14863812068E+02  0.25042696987E+02 -0.53210769704E+02  0.60658516254E+02  0.00000000000E+00 0.  1.
         14    1    6    6    0    0 -0.16203793942E+02  0.36649021544E+01  0.28854766276E+02  0.33295524966E+02  0.00000000000E+00 0. -1.
         -5    1    3    3    0  503 -0.14362173781E+02  0.78599842971E+01 -0.67708146528E+03  0.67729569023E+03  0.47000000000E+01 0.  1.
         13    1    4    4    0    0 -0.32476767353E+02 -0.29499984325E+02 -0.22917558371E+03  0.23333760448E+03  0.00000000000E+00 0. -1.
        -14    1    4    4    0    0  0.17783581212E+02 -0.20466613609E+02 -0.22248374667E+02  0.35073183611E+02  0.00000000000E+00 0.  1.
</event>
<event>
12    1  0.8251070E-002  0.1908168E+03  0.7818608E-02  0.1157850E+00
         21   -1    0    0  503  502  0.00000000000E+00  0.00000000000E+00  0.12299814061E+03  0.12299814061E+03  0.00000000000E+00 0.  1.
         21   -1    0    0  501  503 -0.00000000000E+00 -0.00000000000E+00 -0.32457189688E+03  0.32457189688E+03  0.00000000000E+00 0. -1.
          6    2    1    2  501    0  0.80740544886E+02  0.12178982240E+02 -0.33576029899E+02  0.19374830496E+03  0.17246359817E+03 0.  0.
         24    2    3    3    0    0  0.32859180196E+02  0.54021304477E+02  0.82872779442E+01  0.11747228278E+03  0.98656125943E+02 0.  0.
         -6    2    1    2    0  502 -0.80740544886E+02 -0.12178982240E+02 -0.16799772637E+03  0.25382173254E+03  0.17185712859E+03 0.  0.
        -24    2    5    5    0    0 -0.28482695000E+02  0.18027794926E+02 -0.14160400188E+02  0.88499788476E+02  0.80594232563E+02 0.  0.
          5    1    3    3  501    0  0.47881364690E+02 -0.41842322237E+02 -0.41863307843E+02  0.76276022172E+02  0.47000000000E+01 0. -1.
        -13    1    4    4    0    0  0.66139051028E+02  0.51144491819E+02  0.30703353563E+01  0.83663373548E+02  0.00000000000E+00 0.  1.
         14    1    4    4    0    0 -0.33279870832E+02  0.28768126583E+01  0.52169425879E+01  0.33808909235E+02  0.00000000000E+00 0. -1.
         -5    1    5    5    0  502 -0.52257849886E+02 -0.30206777166E+02 -0.15383732619E+03  0.16532194406E+03  0.47000000000E+01 0.  1.
         13    1    6    6    0    0  0.17391096765E+02  0.27423156315E+02 -0.24337340301E+02  0.40580609679E+02  0.00000000000E+00 0. -1.
        -14    1    6    6    0    0 -0.45873791765E+02 -0.93953613890E+01  0.10176940113E+02  0.47919178797E+02  0.00000000000E+00 0.  1.
</event>
<event>
12    1  0.8251070E-002  0.1867904E+03  0.7818608E-02  0.1161563E+00
         21   -1    0    0  503  502  0.00000000000E+00  0.00000000000E+00  0.71176537300E+03  0.71176537300E+03  0.00000000000E+00 0. -1.
         21   -1    0    0  501  503 -0.00000000000E+00 -0.00000000000E+00 -0.48962201806E+02  0.48962201806E+02  0.00000000000E+00 0. -1.
          6    2    1    2  501    0  0.44400175767E+02  0.54716280533E+02  0.35246643257E+03  0.39890253385E+03  0.17298959061E+03 0.  0.
         24    2    3    3    0    0 -0.13707193236E+02  0.84726065996E+02  0.25962533065E+03  0.28524245396E+03  0.81188372426E+02 0.  0.
         -6    2    1    2    0  502 -0.44400175767E+02 -0.54716280533E+02  0.31033673862E+03  0.36182504095E+03  0.17217207079E+03 0.  0.
        -24    2    5    5    0    0 -0.66009688372E+02 -0.64977970976E+01  0.28487041219E+03  0.30298103564E+03  0.79037053881E+02 0.  0.
          5    1    3    3  501    0  0.58107369003E+02 -0.30009785463E+02  0.92841101916E+02  0.11366007989E+03  0.47000000000E+01 0. -1.
        -11    1    4    4    0    0 -0.17298722242E+02  0.51306878208E+02  0.24060569172E+03  0.24662266812E+03  0.00000000000E+00 0.  1.
         12    1    4    4    0    0  0.35915290058E+01  0.33419187788E+02  0.19019638935E+02  0.38619785839E+02  0.00000000000E+00 0. -1.
         -5    1    5    5    0  502  0.21609512605E+02 -0.48218483435E+02  0.25466326427E+02  0.58844005315E+02  0.47000000000E+01 0.  1.
         11    1    6    6    0    0 -0.32629965750E+02 -0.42544460017E+02  0.13469937912E+03  0.14497816552E+03  0.00000000000E+00 0. -1.
        -12    1    6    6    0    0 -0.33379722622E+02  0.36046662920E+02  0.15017103307E+03  0.15800287011E+03  0.00000000000E+00 0.  1.
</event>
<event>
12    1  0.8251070E-002  0.2405140E+03  0.7818608E-02  0.1119515E+00
         21   -1    0    0  501  502  0.00000000000E+00  0.00000000000E+00  0.83375937769E+02  0.83375937769E+02  0.00000000000E+00 0. -1.
         21   -1    0    0  502  503 -0.00000000000E+00 -0.00000000000E+00 -0.76007116569E+03  0.76007116569E+03  0.00000000000E+00 0. -1.
         -6    2    1    2    0  503  0.51585069338E+02 -0.15945306147E+03 -0.21253287205E+03  0.32067210868E+03  0.17197116442E+03 0.  0.
        -24    2    3    3    0    0  0.37306645421E+02 -0.97095762456E+02 -0.26641165617E+02  0.12402490516E+03  0.62072961230E+02 0.  0.
          6    2    1    2  501    0 -0.51585069338E+02  0.15945306147E+03 -0.46416235588E+03  0.52277499479E+03  0.17251291074E+03 0.  0.
         24    2    5    5    0    0  0.24676534281E+02  0.88677965393E+02 -0.33809809674E+03  0.35925363886E+03  0.79247341456E+02 0.  0.
          5    1    5    5  501    0 -0.76261603619E+02  0.70775096074E+02 -0.12606425914E+03  0.16352135592E+03  0.47000000000E+01 0. -1.
        -11    1    6    6    0    0 -0.24955785963E+02  0.94686964480E+01 -0.55240043112E+02  0.61350711719E+02  0.00000000000E+00 0.  1.
         12    1    6    6    0    0  0.49632320244E+02  0.79209268945E+02 -0.28285805363E+03  0.29790292714E+03  0.00000000000E+00 0. -1.
         -5    1    3    3    0  503  0.14278423917E+02 -0.62357299011E+02 -0.18589170643E+03  0.19664720351E+03  0.47000000000E+01 0.  1.
         11    1    4    4    0    0  0.44309505103E+01 -0.41487013256E+02 -0.40287908108E+02  0.57999320091E+02  0.00000000000E+00 0. -1.
        -12    1    4    4    0    0  0.32875694910E+02 -0.55608749200E+02  0.13646742491E+02  0.66025585072E+02  0.00000000000E+00 0.  1.
</event>
<event>
12    1  0.8251070E-002  0.1744270E+03  0.7818608E-02  0.1173515E+00
         21   -1    0    0  501  502  0.00000000000E+00  0.00000000000E+00  0.25766899506E+03  0.25766899506E+03  0.00000000000E+00 0.  1.
         21   -1    0    0  502  503 -0.00000000000E+00 -0.00000000000E+00 -0.13850163346E+03  0.13850163346E+03  0.00000000000E+00 0.  1.
         -6    2    1    2    0  503  0.18952528178E+01  0.30682108999E+02 -0.17628024031E+02  0.17450025827E+03  0.17086430028E+03 0.  0.
        -24    2    3    3    0    0  0.98308874518E+01 -0.42849169456E+02 -0.27096268021E+02  0.99790413856E+02  0.85388648460E+02 0.  0.
          6    2    1    2  501    0 -0.18952528178E+01 -0.30682108999E+02  0.13679538563E+03  0.22167037025E+03  0.17169680172E+03 0.  0.
         24    2    5    5    0    0  0.47442700216E+02 -0.60064908448E+02  0.62040923493E+02  0.12728868705E+03  0.80589891630E+02 0.  0.
          5    1    5    5  501    0 -0.49337953034E+02  0.29382799449E+02  0.74754462141E+02  0.94381683197E+02  0.47000000000E+01 0. -1.
        -11    1    6    6    0    0 -0.22370320500E+02 -0.16000299205E+02  0.23514566893E+02  0.36185296324E+02  0.00000000000E+00 0.  1.
         12    1    6    6    0    0  0.69813020716E+02 -0.44064609244E+02  0.38526356599E+02  0.91103390728E+02  0.00000000000E+00 0. -1.
         -5    1    3    3    0  503 -0.79356346340E+01  0.73531278455E+02  0.94682439904E+01  0.74709844415E+02  0.47000000000E+01 0.  1.
         13    1    4    4    0    0 -0.33933100199E+02 -0.36527559115E+02 -0.24354021190E+02  0.55487261710E+02  0.00000000000E+00 0. -1.
        -14    1    4    4    0    0  0.43763987651E+02 -0.63216103416E+01 -0.27422468313E+01  0.44303152146E+02  0.00000000000E+00 0.  1.
</event>
<event>
12    1  0.8251070E-002  0.1769648E+03  0.7818608E-02  0.1172540E+00
         21   -1    0    0  501  502  0.00000000000E+00  0.00000000000E+00  0.20497172219E+03  0.20497172219E+03  0.00000000000E+00 0.  1.
         21   -1    0    0  502  503 -0.00000000000E+00 -0.00000000000E+00 -0.15757290057E+03  0.15757290057E+03  0.00000000000E+00 0.  1.
         -6    2    1    2    0  503 -0.38953038012E+02 -0.20022682635E+02 -0.23222741558E+02  0.17848203707E+03  0.17145930957E+03 0.  0.
        -24    2    3    3    0    0  0.31980811782E+02 -0.33657448386E+02 -0.44764078428E+02  0.10295960942E+03  0.80257475041E+02 0.  0.
          6    2    1    2  501    0  0.38953038012E+02  0.20022682635E+02  0.70621563183E+02  0.18406258569E+03  0.16423575517E+03 0.  0.
         24    2    5    5    0    0 -0.13855068926E+02  0.62442993574E+02  0.41859375466E+02  0.11032296011E+03  0.79547833612E+02 0.  0.
          5    1    5    5  501    0  0.52808106938E+02 -0.42420310939E+02  0.28762187717E+02  0.73739625581E+02  0.47000000000E+01 0. -1.
        -13    1    6    6    0    0 -0.39037208335E+02  0.65887369625E+02  0.33219023459E+02  0.83477857126E+02  0.00000000000E+00 0.  1.
         14    1    6    6    0    0  0.25182139409E+02 -0.34443760516E+01  0.86403520071E+01  0.26845102988E+02  0.00000000000E+00 0. -1.
         -5    1    3    3    0  503 -0.70933849795E+02  0.13634765751E+02  0.21541336871E+02  0.75522427649E+02  0.47000000000E+01 0.  1.
         13    1    4    4    0    0 -0.34638034150E+01  0.23875659373E+02 -0.52861006669E+01  0.24697933210E+02  0.00000000000E+00 0. -1.
        -14    1    4    4    0    0  0.35444615197E+02 -0.57533107759E+02 -0.39477977761E+02  0.78261676209E+02  0.00000000000E+00 0.  1.
</event>
<event>
12    1  0.8251070E-002  0.2693238E+03  0.7818608E-02  0.1101777E+00
         21   -1    0    0  501  502  0.00000000000E+00  0.00000000000E+00  0.88722569622E+03  0.88722569622E+03  0.00000000000E+00 0.  1.
         21   -1    0    0  502  503 -0.00000000000E+00 -0.00000000000E+00 -0.97878135721E+02  0.97878135721E+02  0.00000000000E+00 0. -1.
         -6    2    1    2    0  503  0.13311314955E+03 -0.15905138604E+03  0.59647210219E+03  0.65445723355E+03  0.17181049990E+03 0.  0.
        -24    2    3    3    0    0  0.12428440768E+03 -0.45236198138E+02  0.33981185219E+03  0.37351521531E+03  0.80923380869E+02 0.  0.
          6    2    1    2  501    0 -0.13311314955E+03  0.15905138604E+03  0.19287545831E+03  0.33064659839E+03  0.17061587448E+03 0.  0.
         24    2    5    5    0    0 -0.26386209365E+01  0.60760412935E+01  0.49194044341E+02  0.83479655947E+02  0.67118688606E+02 0.  0.
          5    1    5    5  501    0 -0.13047452861E+03  0.15297534474E+03  0.14368141397E+03  0.24716694245E+03  0.47000000000E+01 0. -1.
        -11    1    6    6    0    0 -0.85283990068E+01  0.19674115591E+00 -0.15799545912E+02  0.17955443401E+02  0.00000000000E+00 0.  1.
         12    1    6    6    0    0  0.58897780702E+01  0.58793001376E+01  0.64993590253E+02  0.65524212546E+02  0.00000000000E+00 0. -1.
         -5    1    3    3    0  503  0.88287418697E+01 -0.11381518790E+03  0.25666025000E+03  0.28094201823E+03  0.47000000000E+01 0.  1.
         13    1    4    4    0    0  0.94156626211E+02 -0.65289141076E+02  0.21581302643E+03  0.24434280136E+03  0.00000000000E+00 0. -1.
        -14    1    4    4    0    0  0.30127781468E+02  0.20052942938E+02  0.12399882576E+03  0.12917241395E+03  0.00000000000E+00 0.  1.
</event>
<event>
12    1  0.8251070E-002  0.2218064E+03  0.7818608E-02  0.1132847E+00
         21   -1    0    0  503  502  0.00000000000E+00  0.00000000000E+00  0.14354207459E+04  0.14354207459E+04  0.00000000000E+00 0. -1.
         21   -1    0    0  501  503 -0.00000000000E+00 -0.00000000000E+00 -0.59295357246E+02  0.59295357246E+02  0.00000000000E+00 0.  1.
          6    2    1    2  501    0  0.11528386997E+03 -0.81636187182E+02  0.19866796777E+03  0.29654914018E+03  0.16887152926E+03 0.  0.
         24    2    3    3    0    0  0.62046236807E+02 -0.11453502266E+03  0.11301606483E+03  0.19036572604E+03  0.80613099584E+02 0.  0.
         -6    2    1    2    0  502 -0.11528386997E+03  0.81636187182E+02  0.11774574208E+04  0.11981669629E+04  0.17100659460E+03 0.  0.
        -24    2    5    5    0    0 -0.14484164650E+03  0.43386427911E+02  0.85864607560E+03  0.87567747457E+03  0.81709679027E+02 0.  0.
          5    1    3    3  501    0  0.53237633168E+02  0.32898835482E+02  0.85651902940E+02  0.10618341414E+03  0.47000000000E+01 0. -1.
        -13    1    4    4    0    0 -0.26461220026E+01 -0.79638778297E+02  0.58457390437E+02  0.98826127451E+02  0.00000000000E+00 0.  1.
         14    1    4    4    0    0  0.64692358810E+02 -0.34896244367E+02  0.54558674390E+02  0.91539598592E+02  0.00000000000E+00 0. -1.
         -5    1    5    5    0  502  0.29557776521E+02  0.38249759270E+02  0.31881134524E+03  0.32248948835E+03  0.47000000000E+01 0.  1.
         11    1    6    6    0    0 -0.62649100597E+02 -0.10265643471E+02  0.49360130749E+03  0.49766710159E+03  0.00000000000E+00 0. -1.
        -12    1    6    6    0    0 -0.82192545899E+02  0.53652071382E+02  0.36504476811E+03  0.37801037299E+03  0.00000000000E+00 0.  1.
</event>
<event>
12    1  0.8251070E-002  0.1815123E+03  0.7818608E-02  0.1166534E+00
         21   -1    0    0  503  502  0.00000000000E+00  0.00000000000E+00  0.74619654878E+02  0.74619654878E+02  0.00000000000E+00 0. -1.
         21   -1    0    0  501  503 -0.00000000000E+00 -0.00000000000E+00 -0.44914375036E+03  0.44914375036E+03  0.00000000000E+00 0. -1.
          6    2    1    2  501    0  0.23203451938E+02 -0.53126205853E+02 -0.22496872609E+03  0.28857512757E+03  0.17118376852E+03 0.  0.
         24    2    3    3    0    0  0.82406164427E+01 -0.10307005685E+03 -0.14953186227E+03  0.19675418703E+03  0.75240201373E+02 0.  0.
         -6    2    1    2    0  502 -0.23203451938E+02  0.53126205853E+02 -0.14955536939E+03  0.23518827767E+03  0.17200559150E+03 0.  0.
        -24    2    5    5    0    0  0.34085519197E+02  0.82643205975E+02 -0.86717173793E+02  0.14505499671E+03  0.74359678099E+02 0.  0.
          5    1    3    3  501    0  0.14962835496E+02  0.49943850996E+02 -0.75436863820E+02  0.91820940538E+02  0.47000000000E+01 0. -1.
        -11    1    4    4    0    0  0.37373998753E+02 -0.85720423765E+02 -0.11682566826E+03  0.14964305396E+03  0.00000000000E+00 0.  1.
         12    1    4    4    0    0 -0.29133382311E+02 -0.17349633084E+02 -0.32706194007E+02  0.47111133073E+02  0.00000000000E+00 0. -1.
         -5    1    5    5    0  502 -0.57288971135E+02 -0.29517000122E+02 -0.62838195601E+02  0.90133280958E+02  0.47000000000E+01 0.  1.
         13    1    6    6    0    0  0.44781930908E+02  0.22974693878E+02 -0.61317810759E+02  0.79329262009E+02  0.00000000000E+00 0. -1.
        -14    1    6    6    0    0 -0.10696411711E+02  0.59668512097E+02 -0.25399363034E+02  0.65725734701E+02  0.00000000000E+00 0.  1.
</event>
<event>
12    1  0.8251070E-002  0.2895995E+03  0.7818608E-02  0.1090672E+00
         21   -1    0    0  501  502  0.00000000000E+00  0.00000000000E+00  0.14481572917E+04  0.14481572917E+04  0.00000000000E+00 0. -1.
         21   -1    0    0  502  503 -0.00000000000E+00 -0.00000000000E+00 -0.10013432000E+03  0.10013432000E+03  0.00000000000E+00 0.  1.
         -6    2    1    2    0  503  0.19788159715E+03  0.12440284271E+03  0.16971843119E+03  0.33492050792E+03  0.16951167208E+03 0.  0.
        -24    2    3    3    0    0  0.73802914242E+02  0.57963697163E+02  0.14679841546E+03  0.19224220987E+03  0.81244274462E+02 0.  0.
          6    2    1    2  501    0 -0.19788159715E+03 -0.12440284271E+03  0.11783045405E+04  0.12133711038E+04  0.17098143630E+03 0.  0.
         24    2    5    5    0    0 -0.39345099904E+02 -0.70564085351E+01  0.29194788759E+03  0.30532142852E+03  0.79936073583E+02 0.  0.
          5    1    5    5  501    0 -0.15853649725E+03 -0.11734643418E+03  0.88635665295E+03  0.90804967530E+03  0.47000000000E+01 0. -1.
        -11    1    6    6    0    0 -0.48983288894E+02  0.23034718141E+02  0.13950174680E+03  0.14963521708E+03  0.00000000000E+00 0.  1.
         12    1    6    6    0    0  0.96381889901E+01 -0.30091126677E+02  0.15244614079E+03  0.15568621144E+03  0.00000000000E+00 0. -1.
         -5    1    3    3    0  503  0.12407868291E+03  0.66439145551E+02  0.22920015727E+02  0.14267829805E+03  0.47000000000E+01 0.  1.
         11    1    4    4    0    0  0.32514431675E+02  0.70089470133E+02  0.70242625538E+02  0.10442101576E+03  0.00000000000E+00 0. -1.
        -12    1    4    4    0    0  0.41288482567E+02 -0.12125772970E+02  0.76555789923E+02  0.87821194102E+02  0.00000000000E+00 0.  1.
</event>
<event>
12    1  0.8251070E-002  0.2012513E+03  0.7818608E-02  0.1148741E+00
         21   -1    0    0  503  502  0.00000000000E+00  0.00000000000E+00  0.79330400737E+02  0.79330400737E+02  0.00000000000E+00 0.  1.
         21   -1    0    0  501  503 -0.00000000000E+00 -0.00000000000E+00 -0.63768849661E+03  0.63768849661E+03  0.00000000000E+00 0. -1.
          6    2    1    2  501    0  0.57845221972E+02 -0.86917381291E+02 -0.43980949883E+03  0.48366775898E+03  0.17205058831E+03 0.  0.
         24    2    3    3    0    0  0.18133122465E+02 -0.38306198220E+02 -0.83886585108E+02  0.12222162401E+03  0.78134443513E+02 0.  0.
         -6    2    1    2    0  502 -0.57845221972E+02  0.86917381291E+02 -0.11854859705E+03  0.23335113837E+03  0.17175064204E+03 0.  0.
        -24    2    5    5    0    0  0.35684645952E+02  0.36613384369E+02 -0.50474621511E+02  0.10711927058E+03  0.79453866125E+02 0.  0.
          5    1    3    3  501    0  0.39712099508E+02 -0.48611183070E+02 -0.35592291372E+03  0.36144613496E+03  0.47000000000E+01 0. -1.
        -13    1    4    4    0    0  0.45573726107E+02 -0.55124281493E+01 -0.39104539309E+02  0.60303535303E+02  0.00000000000E+00 0.  1.
         14    1    4    4    0    0 -0.27440603643E+02 -0.32793770071E+02 -0.44782045798E+02  0.61918088711E+02  0.00000000000E+00 0. -1.
         -5    1    5    5    0  502 -0.93529867924E+02  0.50303996922E+02 -0.68073975534E+02  0.12623186779E+03  0.47000000000E+01 0.  1.
         13    1    6    6    0    0  0.11386738771E+02  0.51232857161E+02 -0.39468355488E+01  0.52631178816E+02  0.00000000000E+00 0. -1.
        -14    1    6    6    0    0  0.24297907181E+02 -0.14619472792E+02 -0.46527785962E+02  0.54488091769E+02  0.00000000000E+00 0.  1.
</event>
<event>
12    1  0.8251070E-002  0.1913773E+03  0.7818608E-02  0.1159171E+00
         21   -1    0    0  501  502  0.00000000000E+00  0.00000000000E+00  0.24869049934E+03  0.24869049934E+03  0.00000000000E+00 0.  1.
         21   -1    0    0  502  503 -0.00000000000E+00 -0.00000000000E+00 -0.32181572573E+03  0.32181572573E+03  0.00000000000E+00 0.  1.
         -6    2    1    2    0  503  0.72959995295E+02 -0.38669827368E+02  0.17771097629E+03  0.25500014305E+03  0.16317280839E+03 0.  0.
        -24    2    3    3    0    0  0.75428964292E+02  0.17166683942E+02  0.12649328736E+03  0.17904519941E+03  0.10036138697E+03 0.  0.
          6    2    1    2  501    0 -0.72959995295E+02  0.38669827368E+02 -0.25083620268E+03  0.31550608202E+03  0.17264637487E+03 0.  0.
         24    2    5    5    0    0 -0.97398234075E+02  0.73313778175E+02 -0.16702227281E+03  0.22146196640E+03  0.79294620734E+02 0.  0.
          5    1    5    5  501    0  0.24438238780E+02 -0.34643950806E+02 -0.83813929873E+02  0.94044115620E+02  0.47000000000E+01 0. -1.
        -11    1    6    6    0    0 -0.45469527749E+02  0.76530055192E+02 -0.13019723907E+03  0.15772015839E+03  0.00000000000E+00 0.  1.
         12    1    6    6    0    0 -0.51928706326E+02 -0.32162770176E+01 -0.36825033733E+02  0.63741808006E+02  0.00000000000E+00 0. -1.
         -5    1    3    3    0  503 -0.24689689977E+01 -0.55836511310E+02  0.51217688928E+02  0.75954943633E+02  0.47000000000E+01 0.  1.
         13    1    4    4    0    0 -0.15728762237E+02 -0.13708305494E+02  0.99103370239E+00  0.20887645842E+02  0.00000000000E+00 0. -1.
        -14    1    4    4    0    0  0.91157726529E+02  0.30874989436E+02  0.12550225366E+03  0.15815755357E+03  0.00000000000E+00 0.  1.
</event>
<event>
12    1  0.8251070E-002  0.1753962E+03  0.7818608E-02  0.1172653E+00
         21   -1    0    0  503  502  0.00000000000E+00  0.00000000000E+00  0.57028787294E+03  0.57028787294E+03  0.00000000000E+00 0. -1.
         21   -1    0    0  501  503 -0.00000000000E+00 -0.00000000000E+00 -0.13667575074E+03  0.13667575074E+03  0.00000000000E+00 0. -1.
          6    2    1    2  501    0 -0.16832197631E+02 -0.39689163298E+02 -0.59163382635E+02  0.18390383553E+03  0.16870614191E+03 0.  0.
         24    2    3    3    0    0 -0.27076314559E+02 -0.75434971730E+02  0.13208567029E+01  0.11274810519E+03  0.79289525109E+02 0.  0.
         -6    2    1    2    0  502  0.16832197631E+02  0.39689163298E+02  0.49277550483E+03  0.52305978815E+03  0.17001556181E+03 0.  0.
        -24    2    5    5    0    0  0.46644934602E+02  0.78863613698E+02  0.39215680095E+03  0.41094533583E+03  0.81816214864E+02 0.  0.
          5    1    3    3  501    0  0.10244116929E+02  0.35745808432E+02 -0.60484239338E+02  0.71155730341E+02  0.47000000000E+01 0. -1.
        -13    1    4    4    0    0 -0.14298115968E+02 -0.35460893890E+02  0.40243040824E+02  0.55510480546E+02  0.00000000000E+00 0.  1.
         14    1    4    4    0    0 -0.12778198591E+02 -0.39974077841E+02 -0.38922184121E+02  0.57237624647E+02  0.00000000000E+00 0. -1.
         -5    1    5    5    0  502 -0.29812736971E+02 -0.39174450399E+02  0.10061870388E+03  0.11211445232E+03  0.47000000000E+01 0.  1.
         13    1    6    6    0    0  0.57424288197E+02  0.16941594090E+02  0.18250431904E+03  0.19207392575E+03  0.00000000000E+00 0. -1.
        -14    1    6    6    0    0 -0.10779353595E+02  0.61922019608E+02  0.20965248192E+03  0.21887141008E+03  0.00000000000E+00 0.  1.
</event>
<event>
12    1  0.8251070E-002  0.1887938E+03  0.7818608E-02  0.1159617E+00
         21   -1    0    0  503  502  0.00000000000E+00  0.00000000000E+00  0.19745149087E+03  0.19745149087E+03  0.00000000000E+00 0.  1.
         21   -1    0    0  501  503 -0.00000000000E+00 -0.00000000000E+00 -0.22275989212E+03  0.22275989212E+03  0.00000000000E+00 0. -1.
          6    2    1    2  501    0 -0.73539349142E+02 -0.17027352507E+02 -0.10444727916E+03  0.21575988781E+03  0.17304660777E+03 0.  0.
         24    2    3    3    0    0 -0.56987880453E+02  0.22404013826E+02 -0.13079588809E+03  0.16531067613E+03  0.80439399217E+02 0.  0.
         -6    2    1    2    0  502  0.73539349142E+02  0.17027352507E+02  0.79138877908E+02  0.20445149519E+03  0.17274109320E+03 0.  0.
        -24    2    5    5    0    0  0.24697167946E+02  0.14932842604E+01 -0.25574926941E+02  0.87772718768E+02  0.80235860247E+02 0.  0.
          5    1    3    3  501    0 -0.16551468690E+02 -0.39431366333E+02  0.26348608934E+02  0.50449211683E+02  0.47000000000E+01 0. -1.
        -11    1    4    4    0    0 -0.16243388601E+01  0.33536759167E+02 -0.15611941950E+02  0.37028170676E+02  0.00000000000E+00 0.  1.
         12    1    4    4    0    0 -0.55363541593E+02 -0.11132745341E+02 -0.11518394614E+03  0.12828250545E+03  0.00000000000E+00 0. -1.
         -5    1    5    5    0  502  0.48842181196E+02  0.15534068247E+02  0.10471380485E+03  0.11667877642E+03  0.47000000000E+01 0.  1.
         11    1    6    6    0    0 -0.11955317855E+02  0.18061246021E+02 -0.39631566778E+02  0.45164137522E+02  0.00000000000E+00 0. -1.
        -12    1    6    6    0    0  0.36652485802E+02 -0.16567961760E+02  0.14056639837E+02  0.42608581246E+02  0.00000000000E+00 0.  1.
</event>
<event>
12    1  0.8251070E-002  0.1836419E+03  0.7818608E-02  0.1165083E+00
         21   -1    0    0  501  502  0.00000000000E+00  0.00000000000E+00  0.18038477652E+04  0.18038477652E+04  0.00000000000E+00 0. -1.
         21   -1    0    0  502  503 -0.00000000000E+00 -0.00000000000E+00 -0.32379494093E+02  0.32379494093E+02  0.00000000000E+00 0. -1.
         -6    2    1    2    0  503 -0.61479644940E+02 -0.55621726312E+01  0.28629453044E+03  0.34013071168E+03  0.17295565433E+03 0.  0.
        -24    2    3    3    0    0 -0.10756904884E+03 -0.10368921424E+02  0.24547220856E+03  0.27819614985E+03  0.73877451319E+02 0.  0.
          6    2    1    2  501    0  0.61479644940E+02  0.55621726312E+01  0.14851737407E+04  0.14960965476E+04  0.16956755377E+03 0.  0.
         24    2    5    5    0    0 -0.14601895364E+02 -0.28258807292E+02  0.10063148449E+04  0.10100305114E+04  0.80500257407E+02 0.  0.
          5    1    5    5  501    0  0.76081540304E+02  0.33820979923E+02  0.47885889579E+03  0.48606603618E+03  0.47000000000E+01 0. -1.
        -13    1    6    6    0    0  0.16932632699E+02 -0.21901820687E+02  0.12080261419E+03  0.12393415750E+03  0.00000000000E+00 0.  1.
         14    1    6    6    0    0 -0.31534528063E+02 -0.63569866045E+01  0.88551223071E+03  0.88609635394E+03  0.00000000000E+00 0. -1.
         -5    1    3    3    0  503  0.46089403904E+02  0.48067487927E+01  0.40822321871E+02  0.61934561831E+02  0.47000000000E+01 0.  1.
         11    1    4    4    0    0 -0.63726761753E+02 -0.14470150831E+02  0.21483162151E+03  0.22455090966E+03  0.00000000000E+00 0. -1.
        -12    1    4    4    0    0 -0.43842287091E+02  0.41012294070E+01  0.30640587054E+02  0.53645240190E+02  0.00000000000E+00 0.  1.
</event>
<event>
12    1  0.8251070E-002  0.2008373E+03  0.7818608E-02  0.1149191E+00
         21   -1    0    0  501  502  0.00000000000E+00  0.00000000000E+00  0.62697849784E+03  0.62697849784E+03  0.00000000000E+00 0.  1.
         21   -1    0    0  502  503 -0.00000000000E+00 -0.00000000000E+00 -0.91447832376E+02  0.91447832376E+02  0.00000000000E+00 0.  1.
         -6    2    1    2    0  503 -0.93358110414E+02  0.41800550320E+02  0.71657513209E+02  0.21323795691E+03  0.17283692974E+03 0.  0.
        -24    2    3    3    0    0 -0.64548307088E+02 -0.42464699450E+01  0.10753951638E+03  0.14796973345E+03  0.78395012469E+02 0.  0.
          6    2    1    2  501    0  0.93358110414E+02 -0.41800550320E+02  0.46387315226E+03  0.50518837330E+03  0.17197083575E+03 0.  0.
         24    2    5    5    0    0  0.11522290598E+03 -0.79574727215E+01  0.25370934557E+03  0.29114552986E+03  0.84009809520E+02 0.  0.
          5    1    5    5  501    0 -0.21864795563E+02 -0.33843077598E+02  0.21016380669E+03  0.21404284344E+03  0.47000000000E+01 0. -1.
        -11    1    6    6    0    0  0.82995954408E+02 -0.36191192839E+01  0.83239758205E+02  0.11760222710E+03  0.00000000000E+00 0.  1.
         12    1    6    6    0    0  0.32226951568E+02 -0.43383534376E+01  0.17046958736E+03  0.17354330276E+03  0.00000000000E+00 0. -1.
         -5    1    3    3    0  503 -0.28809803326E+02  0.46047020265E+02 -0.35882003167E+02  0.65268223465E+02  0.47000000000E+01 0.  1.
         11    1    4    4    0    0 -0.38486089646E+02 -0.21475287809E+02  0.95161009855E+01  0.45087950283E+02  0.00000000000E+00 0. -1.
        -12    1    4    4    0    0 -0.26062217442E+02  0.17228817863E+02  0.98023415391E+02  0.10288178317E+03  0.00000000000E+00 0.  1.
</event>
<event>
12    1  0.8251070E-002  0.2107748E+03  0.7818608E-02  0.1141586E+00
         21   -1    0    0  501  502  0.00000000000E+00  0.00000000000E+00  0.36379173167E+03  0.36379173167E+03  0.00000000000E+00 0. -1.
         21   -1    0    0  502  503 -0.00000000000E+00 -0.00000000000E+00 -0.12178956160E+03  0.12178956160E+03  0.00000000000E+00 0. -1.
         -6    2    1    2    0  503  0.11662527235E+03 -0.26514466514E+02  0.93099415041E+02  0.22751530516E+03  0.16967982177E+03 0.  0.
        -24    2    3    3    0    0 -0.76914705747E+01 -0.12162229498E+02  0.19405225674E+02  0.82210237029E+02  0.78580415773E+02 0.  0.
          6    2    1    2  501    0 -0.11662527235E+03  0.26514466514E+02  0.14890275503E+03  0.25806598810E+03  0.17355561839E+03 0.  0.
         24    2    5    5    0    0 -0.62060955548E+02 -0.51026701892E+02  0.71138852846E+02  0.13535000728E+03  0.82483947388E+02 0.  0.
          5    1    5    5  501    0 -0.54564316804E+02  0.77541168406E+02  0.77763902184E+02  0.12271598082E+03  0.47000000000E+01 0. -1.
        -11    1    6    6    0    0 -0.46324545690E+02 -0.14292311676E+02  0.80807235987E+02  0.94233980571E+02  0.00000000000E+00 0.  1.
         12    1    6    6    0    0 -0.15736409859E+02 -0.36734390216E+02 -0.96683831404E+01  0.41116026709E+02  0.00000000000E+00 0. -1.
         -5    1    3    3    0  503  0.12431674293E+03 -0.14352237016E+02  0.73694189367E+02  0.14530506813E+03  0.47000000000E+01 0.  1.
         13    1    4    4    0    0  0.11744074894E+02  0.27312876763E+01 -0.27095220794E+02  0.29656942145E+02  0.00000000000E+00 0. -1.
        -14    1    4    4    0    0 -0.19435545469E+02 -0.14893517174E+02  0.46500446468E+02  0.52553294885E+02  0.00000000000E+00 0.  1.
</event>
<event>
12    1  0.8251070E-002  0.2280915E+03  0.7818608E-02  0.1128096E+00
         21   -1    0    0  503  502  0.00000000000E+00  0.00000000000E+00  0.16309333943E+03  0.16309333943E+03  0.00000000000E+00 0. -1.
         21   -1    0    0  501  503 -0.00000000000E+00 -0.00000000000E+00 -0.16370635423E+04  0.16370635423E+04  0.00000000000E+00 0. -1.
          6    2    1    2  501    0 -0.85004737842E+02 -0.12221903952E+03 -0.15446906131E+04  0.15613533770E+04  0.17202319200E+03 0.  0.
         24    2    3    3    0    0  0.14775458346E+02 -0.23988537206E+02 -0.69956664636E+03  0.70469596105E+03  0.80057109224E+02 0.  0.
         -6    2    1    2    0  502  0.85004737842E+02  0.12221903952E+03  0.70720410210E+02  0.23880350476E+03  0.17280751832E+03 0.  0.
        -24    2    5    5    0    0 -0.16461089324E+02  0.21633593826E+02  0.29461183295E+02  0.90017887938E+02  0.80599497418E+02 0.  0.
          5    1    3    3  501    0 -0.99780196188E+02 -0.98230502315E+02 -0.84512396676E+03  0.85665741597E+03  0.47000000000E+01 0. -1.
        -11    1    4    4    0    0  0.98567803927E+01 -0.66321441749E+01 -0.11977313465E+02  0.16870017603E+02  0.00000000000E+00 0.  1.
         12    1    4    4    0    0  0.49186779535E+01 -0.17356393031E+02 -0.68758933289E+03  0.68782594345E+03  0.00000000000E+00 0. -1.
         -5    1    5    5    0  502  0.10146582717E+03  0.10058544569E+03  0.41259226915E+02  0.14878561682E+03  0.47000000000E+01 0.  1.
         11    1    6    6    0    0 -0.28116933603E+02  0.47571823398E+02  0.26919126127E+02  0.61467712566E+02  0.00000000000E+00 0. -1.
        -12    1    6    6    0    0  0.11655844279E+02 -0.25938229571E+02  0.25420571682E+01  0.28550175372E+02  0.00000000000E+00 0.  1.
</event>
<event>
12    1  0.8251070E-002  0.2291102E+03  0.7818608E-02  0.1127473E+00
         21   -1    0    0  503  502  0.00000000000E+00  0.00000000000E+00  0.32304416382E+03  0.32304416382E+03  0.00000000000E+00 0.  1.
         21   -1    0    0  501  503 -0.00000000000E+00 -0.00000000000E+00 -0.44022993957E+03  0.44022993957E+03  0.00000000000E+00 0.  1.
          6    2    1    2  501    0  0.13898002774E+02 -0.15005166799E+03 -0.36222525822E+03  0.42860079501E+03  0.17257707333E+03 0.  0.
         24    2    3    3    0    0  0.25474202822E+02 -0.14556426658E+03 -0.18113151611E+03  0.24702111935E+03  0.79830549064E+02 0.  0.
         -6    2    1    2    0  502 -0.13898002774E+02  0.15005166799E+03  0.24503948247E+03  0.33467330838E+03  0.17103572090E+03 0.  0.
        -24    2    5    5    0    0  0.31381738787E+02  0.16589857806E+02  0.87941260350E+02  0.12357084234E+03  0.79221530494E+02 0.  0.
          5    1    3    3  501    0 -0.11576200048E+02 -0.44874014185E+01 -0.18109374211E+03  0.18157967566E+03  0.47000000000E+01 0. -1.
        -13    1    4    4    0    0  0.35951739721E+02 -0.58347601586E+02 -0.12564422447E+03  0.14312037361E+03  0.00000000000E+00 0.  1.
         14    1    4    4    0    0 -0.10477536898E+02 -0.87216664989E+02 -0.55487291632E+02  0.10390074573E+03  0.00000000000E+00 0. -1.
         -5    1    5    5    0  502 -0.45279741561E+02  0.13346181019E+03  0.15709822212E+03  0.21110246604E+03  0.47000000000E+01 0.  1.
         11    1    6    6    0    0  0.43226556503E+02  0.21184682679E+02  0.96781889292E+02  0.10809283076E+03  0.00000000000E+00 0. -1.
        -12    1    6    6    0    0 -0.11844817716E+02 -0.45948248730E+01 -0.88406289426E+01  0.15478011579E+02  0.00000000000E+00 0.  1.
</event>
<event>
12    1  0.8251070E-002  0.2142064E+03  0.7818608E-02  0.1138393E+00
         21   -1    0    0  503  502  0.00000000000E+00  0.00000000000E+00  0.67478226009E+02  0.67478226009E+02  0.00000000000E+00 0.  1.
         21   -1    0    0  501  503 -0.00000000000E+00 -0.00000000000E+00 -0.94744865539E+03  0.94744865539E+03  0.00000000000E+00 0.  1.
          6    2    1    2  501    0 -0.69173533515E+02  0.10802949018E+03 -0.16896956098E+03  0.27235929597E+03  0.17080259096E+03 0.  0.
         24    2    3    3    0    0  0.28837571765E+02  0.59971174947E+02 -0.97493867613E+02  0.14179650203E+03  0.78568736755E+02 0.  0.
         -6    2    1    2    0  502  0.69173533515E+02 -0.10802949018E+03 -0.71100086840E+03  0.74256758543E+03  0.17154893053E+03 0.  0.
        -24    2    5    5    0    0  0.20499476531E+01 -0.11505014108E+03 -0.38857143726E+03  0.41311699218E+03  0.80231852344E+02 0.  0.
          5    1    3    3  501    0 -0.98011105280E+02  0.48058315232E+02 -0.71475693364E+02  0.13056279395E+03  0.47000000000E+01 0. -1.
        -11    1    4    4    0    0 -0.11279695858E+02  0.18512382705E+02 -0.77914103966E+02  0.80873651141E+02  0.00000000000E+00 0.  1.
         12    1    4    4    0    0  0.40117267622E+02  0.41458792242E+02 -0.19579763646E+02  0.60922850886E+02  0.00000000000E+00 0. -1.
         -5    1    5    5    0  502  0.67123585862E+02  0.70206508998E+01 -0.32242943115E+03  0.32945059324E+03  0.47000000000E+01 0.  1.
         13    1    6    6    0    0 -0.14541728761E+02 -0.85187487316E+01 -0.10233988631E+02  0.19717136673E+02  0.00000000000E+00 0. -1.
        -14    1    6    6    0    0  0.16591676414E+02 -0.10653139235E+03 -0.37833744862E+03  0.39339985551E+03  0.00000000000E+00 0.  1.
</event>
<event>
12    1  0.8251070E-002  0.2145534E+03  0.7818608E-02  0.1138039E+00
         21   -1    0    0  501  502  0.00000000000E+00  0.00000000000E+00  0.68112819421E+02  0.68112819421E+02  0.00000000000E+00 0.  1.
         21   -1    0    0  502  503 -0.00000000000E+00 -0.00000000000E+00 -0.70110398028E+03  0.70110398028E+03  0.00000000000E+00 0.  1.
         -6    2    1    2    0  503 -0.72574948217E+02 -0.10687012951E+03 -0.39007824944E+03  0.44511829912E+03  0.17111666148E+03 0.  0.
        -24    2    3    3    0    0 -0.55590965903E+02 -0.14298107906E+03 -0.33503992831E+03  0.37697313697E+03  0.79517595342E+02 0.  0.
          6    2    1    2  501    0  0.72574948217E+02  0.10687012951E+03 -0.24291291142E+03  0.32409850058E+03  0.17130326282E+03 0.  0.
         24    2    5    5    0    0  0.10525154493E+03  0.44765405035E+02 -0.12810095519E+03  0.18945589192E+03  0.80011568308E+02 0.  0.
          5    1    5    5  501    0 -0.32676596712E+02  0.62104724476E+02 -0.11481195623E+03  0.13464260866E+03  0.47000000000E+01 0. -1.
        -11    1    6    6    0    0  0.24061267367E+02 -0.17643919195E+02 -0.66047995563E+01  0.30559382340E+02  0.00000000000E+00 0.  1.
         12    1    6    6    0    0  0.81190277563E+02  0.62409324230E+02 -0.12149615563E+03  0.15889650958E+03  0.00000000000E+00 0. -1.
         -5    1    3    3    0  503 -0.16983982314E+02  0.36110949552E+02 -0.55038321130E+02  0.68145162158E+02  0.47000000000E+01 0.  1.
         11    1    4    4    0    0  0.16410116131E+01 -0.51813229712E+02 -0.18623932623E+03  0.19331939977E+03  0.00000000000E+00 0. -1.
        -12    1    4    4    0    0 -0.57231977516E+02 -0.91167849351E+02 -0.14880060208E+03  0.18365373719E+03  0.00000000000E+00 0.  1.
</event>
<event>
12    1  0.8251070E-002  0.2066363E+03  0.7818608E-02  0.1144877E+00
         21   -1    0    0  501  502  0.00000000000E+00  0.00000000000E+00  0.10873379572E+03  0.10873379572E+03  0.00000000000E+00 0.  1.
         21   -1    0    0  502  503 -0.00000000000E+00 -0.00000000000E+00 -0.44605094277E+03  0.44605094277E+03  0.00000000000E+00 0.  1.
         -6    2    1    2    0  503 -0.61804637783E+02 -0.94107071534E+02 -0.26855699138E+03  0.33700840113E+03  0.16963446186E+03 0.  0.
        -24    2    3    3    0    0 -0.93518586088E+02 -0.79681903790E+02 -0.26364190821E+03  0.30151040085E+03  0.79413690991E+02 0.  0.
          6    2    1    2  501    0  0.61804637783E+02  0.94107071534E+02 -0.68760155679E+02  0.21777633736E+03  0.17327036660E+03 0.  0.
         24    2    5    5    0    0  0.87014676199E+02  0.27125501076E+02 -0.48649819885E+01  0.12172031184E+03  0.80528377494E+02 0.  0.
          5    1    5    5  501    0 -0.25210038416E+02  0.66981570459E+02 -0.63895173691E+02  0.96056025521E+02  0.47000000000E+01 0. -1.
        -11    1    6    6    0    0  0.16704474209E+01  0.31786198828E+02 -0.15828772035E+02  0.35548598490E+02  0.00000000000E+00 0.  1.
         12    1    6    6    0    0  0.85344228778E+02 -0.46606977518E+01  0.10963790046E+02  0.86171713348E+02  0.00000000000E+00 0. -1.
         -5    1    3    3    0  503  0.31713948305E+02 -0.14425167744E+02 -0.49150831648E+01  0.35498000283E+02  0.47000000000E+01 0.  1.
         13    1    4    4    0    0  0.10824137973E+02  0.10553111938E+01 -0.69719341232E+01  0.12918340063E+02  0.00000000000E+00 0. -1.
        -14    1    4    4    0    0 -0.10434272406E+03 -0.80737214984E+02 -0.25666997409E+03  0.28859206078E+03  0.00000000000E+00 0.  1.
</event>
<event>
12    1  0.8251070E-002  0.2013655E+03  0.7818608E-02  0.1148676E+00
         21   -1    0    0  501  502  0.00000000000E+00  0.00000000000E+00  0.93310957574E+03  0.93310957574E+03  0.00000000000E+00 0. -1.
         21   -1    0    0  502  503 -0.00000000000E+00 -0.00000000000E+00 -0.56957361399E+02  0.56957361399E+02  0.00000000000E+00 0.  1.
         -6    2    1    2    0  503  0.55409907124E+02  0.89866322421E+02  0.19594702129E+03  0.28068187530E+03  0.17099960894E+03 0.  0.
        -24    2    3    3    0    0  0.12499244696E+02 -0.19694702868E+02  0.84293160467E+02  0.11840551273E+03  0.79814886486E+02 0.  0.
          6    2    1    2  501    0 -0.55409907124E+02 -0.89866322421E+02  0.68020519305E+03  0.70938506184E+03  0.17146966959E+03 0.  0.
         24    2    5    5    0    0 -0.10058746781E+03 -0.64409323534E+02  0.56614607628E+03  0.58400307389E+03  0.79194766177E+02 0.  0.
          5    1    5    5  501    0  0.45177560688E+02 -0.25456998887E+02  0.11405911677E+03  0.12538198794E+03  0.47000000000E+01 0. -1.
        -13    1    6    6    0    0 -0.38934273142E+01  0.16249714483E+02  0.49951426834E+02  0.52672165702E+02  0.00000000000E+00 0.  1.
         14    1    6    6    0    0 -0.96694040498E+02 -0.80659038017E+02  0.51619464945E+03  0.53133090819E+03  0.00000000000E+00 0. -1.
         -5    1    3    3    0  503  0.42910662427E+02  0.10956102529E+03  0.11165386082E+03  0.16227636257E+03  0.47000000000E+01 0.  1.
         13    1    4    4    0    0 -0.29560429596E+02  0.45106812711E+01  0.52412572848E+02  0.60342713197E+02  0.00000000000E+00 0. -1.
        -14    1    4    4    0    0  0.42059674292E+02 -0.24205384139E+02  0.31880587619E+02  0.58062799535E+02  0.00000000000E+00 0.  1.
</event>
<event>
12    1  0.8251070E-002  0.3613202E+03  0.7818608E-02  0.1058916E+00
         21   -1    0    0  501  502  0.00000000000E+00  0.00000000000E+00  0.50420414394E+03  0.50420414394E+03  0.00000000000E+00 0.  1.
         21   -1    0    0  502  503 -0.00000000000E+00 -0.00000000000E+00 -0.26780899256E+03  0.26780899256E+03  0.00000000000E+00 0. -1.
         -6    2    1    2    0  503 -0.22144988028E+03  0.21457477250E+03  0.25585856492E+02  0.35369166713E+03  0.17134986687E+03 0.  0.
        -24    2    3    3    0    0 -0.77954723353E+02  0.13202159672E+03  0.62789786098E+02  0.18395036611E+03  0.79928337041E+02 0.  0.
          6    2    1    2  501    0  0.22144988028E+03 -0.21457477250E+03  0.21080929489E+03  0.41832146936E+03  0.18833457050E+03 0.  0.
         24    2    5    5    0    0  0.23281105029E+03 -0.23330338598E+03  0.19952284810E+03  0.39323539697E+03  0.78697239255E+02 0.  0.
          5    1    5    5  501    0 -0.11361170012E+02  0.18728613480E+02  0.11286446782E+02  0.25086072388E+02  0.47000000000E+01 0. -1.
        -13    1    6    6    0    0  0.19228864223E+03 -0.15228195449E+03  0.12174282310E+03  0.27383577299E+03  0.00000000000E+00 0.  1.
         14    1    6    6    0    0  0.40522408059E+02 -0.81021431488E+02  0.77780025008E+02  0.11939962398E+03  0.00000000000E+00 0. -1.
         -5    1    3    3    0  503 -0.14349515693E+03  0.82553175781E+02 -0.37203929606E+02  0.16974130102E+03  0.47000000000E+01 0.  1.
         11    1    4    4    0    0 -0.25914455757E+02  0.41930360187E+02 -0.17736771357E+02  0.52386135387E+02  0.00000000000E+00 0. -1.
        -12    1    4    4    0    0 -0.52040267595E+02  0.90091236531E+02  0.80526557455E+02  0.13156423073E+03  0.00000000000E+00 0.  1.
</event>
<event>
12    1  0.8251070E-002  0.1913379E+03  0.7818608E-02  0.1157487E+00
         21   -1    0    0  503  502  0.00000000000E+00  0.00000000000E+00  0.29131058677E+04  0.29131058677E+04  0.00000000000E+00 0. -1.
         21   -1    0    0  501  503 -0.00000000000E+00 -0.00000000000E+00 -0.14240797861E+02  0.14240797861E+02  0.00000000000E+00 0. -1.
          6    2    1    2  501    0 -0.33658285587E+01  0.84680399855E+02  0.19576586621E+04  0.19668885942E+04  0.17041480484E+03 0.  0.
         24    2    3    3    0    0 -0.43469503279E+01  0.27352399494E+02  0.44574047179E+03  0.45387631187E+03  0.80944972379E+02 0.  0.
         -6    2    1    2    0  502  0.33658285587E+01 -0.84680399855E+02  0.94120640779E+03  0.96045807143E+03  0.17154622115E+03 0.  0.
        -24    2    5    5    0    0 -0.42532901587E+02 -0.10865002235E+03  0.69485417005E+03  0.70867889979E+03  0.76089357342E+02 0.  0.
          5    1    3    3  501    0  0.98112176916E+00  0.57328000362E+02  0.15119181903E+04  0.15130122823E+04  0.47000000000E+01 0. -1.
        -11    1    4    4    0    0  0.22420665875E+02  0.43911994371E+02  0.33981460459E+03  0.34337285129E+03  0.00000000000E+00 0.  1.
         12    1    4    4    0    0 -0.26767616203E+02 -0.16559594877E+02  0.10592586720E+03  0.11050346058E+03  0.00000000000E+00 0. -1.
         -5    1    5    5    0  502  0.45898730146E+02  0.23969622493E+02  0.24635223774E+03  0.25177917164E+03  0.47000000000E+01 0.  1.
         13    1    6    6    0    0 -0.42571558417E+01 -0.14203251647E+02  0.14514312343E+02  0.20748999879E+02  0.00000000000E+00 0. -1.
        -14    1    6    6    0    0 -0.38275745745E+02 -0.94446770701E+02  0.68033985771E+03  0.68792989991E+03  0.00000000000E+00 0.  1.
</event>
<event>
12    1  0.8251070E-002  0.2325681E+03  0.7818608E-02  0.1125496E+00
         21   -1    0    0  501  502  0.00000000000E+00  0.00000000000E+00  0.14834858539E+03  0.14834858539E+03  0.00000000000E+00 0.  1.
         21   -1    0    0  502  503 -0.00000000000E+00 -0.00000000000E+00 -0.35953653338E+03  0.35953653338E+03  0.00000000000E+00 0. -1.
         -6    2    1    2    0  503  0.47249623488E+02 -0.14285699320E+03 -0.11799995815E+03  0.26079089133E+03  0.17733372903E+03 0.  0.
        -24    2    3    3    0    0  0.23852066482E+02 -0.15202903893E+03 -0.37383661492E+02  0.17621755402E+03  0.77287375727E+02 0.  0.
          6    2    1    2  501    0 -0.47249623488E+02  0.14285699320E+03 -0.93187989849E+02  0.24709422744E+03  0.17242653031E+03 0.  0.
         24    2    5    5    0    0 -0.92068916222E+02  0.99067372765E+02 -0.38669142099E+02  0.16390351510E+03  0.84131028944E+02 0.  0.
          5    1    5    5  501    0  0.44819292735E+02  0.43789620439E+02 -0.54518847750E+02  0.83190712339E+02  0.47000000000E+01 0. -1.
        -11    1    6    6    0    0 -0.43074520013E+02  0.87262019354E+02 -0.53914739813E+02  0.11125139759E+03  0.00000000000E+00 0.  1.
         12    1    6    6    0    0 -0.48994396209E+02  0.11805353411E+02  0.15245597714E+02  0.52652117514E+02  0.00000000000E+00 0. -1.
         -5    1    3    3    0  503  0.23397557005E+02  0.91720457237E+01 -0.80616296653E+02  0.84573337304E+02  0.47000000000E+01 0.  1.
         11    1    4    4    0    0  0.13598689144E+02  0.20258558996E+01 -0.14762864881E+02  0.20173512784E+02  0.00000000000E+00 0. -1.
        -12    1    4    4    0    0  0.10253377339E+02 -0.15405489483E+03 -0.22620796611E+02  0.15604404124E+03  0.00000000000E+00 0.  1.
</event>
<event>
12    1  0.8251070E-002  0.2241304E+03  0.7818608E-02  0.1131082E+00
         21   -1    0    0  501  502  0.00000000000E+00  0.00000000000E+00  0.14923305622E+03  0.14923305622E+03  0.00000000000E+00 0. -1.
         21   -1    0    0  502  503 -0.00000000000E+00 -0.00000000000E+00 -0.34299240383E+03  0.34299240383E+03  0.00000000000E+00 0.  1.
         -6    2    1    2    0  503  0.45343066039E+02  0.12972438329E+03 -0.58733487061E+02  0.23169818045E+03  0.17705935464E+03 0.  0.
        -24    2    3    3    0    0  0.42214995631E+02  0.16486632377E+03 -0.44823178265E+02  0.19348394887E+03  0.80398448921E+02 0.  0.
          6    2    1    2  501    0 -0.45343066039E+02 -0.12972438329E+03 -0.13502586055E+03  0.26052727960E+03  0.17537979114E+03 0.  0.
         24    2    5    5    0    0 -0.70039729408E+01 -0.64051648260E+02 -0.15097523384E+03  0.18268598790E+03  0.80180918297E+02 0.  0.
          5    1    5    5  501    0 -0.38339093099E+02 -0.65672735033E+02  0.15949373289E+02  0.77841291708E+02  0.47000000000E+01 0. -1.
        -11    1    6    6    0    0 -0.27349841283E+01  0.19770982347E+01 -0.97643790484E+02  0.97702092483E+02  0.00000000000E+00 0.  1.
         12    1    6    6    0    0 -0.42689888125E+01 -0.66028746494E+02 -0.53331443356E+02  0.84983895413E+02  0.00000000000E+00 0. -1.
         -5    1    3    3    0  503  0.31280704082E+01 -0.35141940478E+02 -0.13910308796E+02  0.38214231588E+02  0.47000000000E+01 0.  1.
         13    1    4    4    0    0  0.34891744968E+02  0.16415348604E+03 -0.21699435411E+02  0.16921780740E+03  0.00000000000E+00 0. -1.
        -14    1    4    4    0    0  0.73232506634E+01  0.71283773327E+00 -0.23123742853E+02  0.24266141462E+02  0.00000000000E+00 0.  1.
</event>
<event>
12    1  0.8251070E-002  0.1914147E+03  0.7818608E-02  0.1157655E+00
         21   -1    0    0  503  502  0.00000000000E+00  0.00000000000E+00  0.16687947210E+03  0.16687947210E+03  0.00000000000E+00 0.  1.
         21   -1    0    0  501  503 -0.00000000000E+00 -0.00000000000E+00 -0.27242718694E+03  0.27242718694E+03  0.00000000000E+00 0.  1.
          6    2    1    2  501    0 -0.69489709636E+02  0.41566581739E+02 -0.15190332674E+03  0.24436493934E+03  0.17344452266E+03 0.  0.
         24    2    3    3    0    0 -0.25279581763E+02 -0.32139909857E+02 -0.38477492397E+02  0.10197571150E+03  0.85126360513E+02 0.  0.
         -6    2    1    2    0  502  0.69489709636E+02 -0.41566581739E+02  0.46355611899E+02  0.19494171970E+03  0.17116317028E+03 0.  0.
        -24    2    5    5    0    0 -0.20550351880E+00  0.34697114940E+00 -0.32352307705E+02  0.81666853725E+02  0.74984268769E+02 0.  0.
          5    1    3    3  501    0 -0.44210127873E+02  0.73706491596E+02 -0.11342583434E+03  0.14238922784E+03  0.47000000000E+01 0. -1.
        -13    1    4    4    0    0 -0.46568259812E+02  0.90422939456E+01 -0.25385719801E+02  0.53803351861E+02  0.00000000000E+00 0.  1.
         14    1    4    4    0    0  0.21288678048E+02 -0.41182203803E+02 -0.13091772595E+02  0.48172359635E+02  0.00000000000E+00 0. -1.
         -5    1    5    5    0  502  0.69695213155E+02 -0.41913552888E+02  0.78707919603E+02  0.11327486597E+03  0.47000000000E+01 0.  1.
         11    1    6    6    0    0 -0.24292793860E+02  0.21451877061E+02  0.46385654544E+01  0.32738954663E+02  0.00000000000E+00 0. -1.
        -12    1    6    6    0    0  0.24087290341E+02 -0.21104905912E+02 -0.36990873159E+02  0.48927899062E+02  0.00000000000E+00 0.  1.
</event>
<event>
12    1  0.8251070E-002  0.2323520E+03  0.7818608E-02  0.1125026E+00
         21   -1    0    0  501  502  0.00000000000E+00  0.00000000000E+00  0.24156480799E+02  0.24156480799E+02  0.00000000000E+00 0.  1.
         21   -1    0    0  502  503 -0.00000000000E+00 -0.00000000000E+00 -0.22604634578E+04  0.22604634578E+04  0.00000000000E+00 0.  1.
         -6    2    1    2    0  503 -0.94485720663E+02  0.12542843535E+03 -0.12439991626E+04  0.12655122898E+04  0.17125301515E+03 0.  0.
        -24    2    3    3    0    0 -0.68738541383E+02  0.18679202591E+01 -0.63258946435E+03  0.64119343914E+03  0.78937442294E+02 0.  0.
          6    2    1    2  501    0  0.94485720663E+02 -0.12542843535E+03 -0.99230781433E+03  0.10191076488E+04  0.17101391048E+03 0.  0.
         24    2    5    5    0    0  0.12649171741E+03 -0.12316938471E+03 -0.76938277863E+03  0.79383637079E+03  0.83996854884E+02 0.  0.
          5    1    5    5  501    0 -0.32005996750E+02 -0.22590506473E+01 -0.22292503570E+03  0.22527127797E+03  0.47000000000E+01 0. -1.
        -13    1    6    6    0    0  0.71761848606E+01 -0.59241495433E+02 -0.26172593442E+03  0.26844276328E+03  0.00000000000E+00 0.  1.
         14    1    6    6    0    0  0.11931553255E+03 -0.63927889273E+02 -0.50765684422E+03  0.52539360751E+03  0.00000000000E+00 0. -1.
         -5    1    3    3    0  503 -0.25747179280E+02  0.12356051509E+03 -0.61140969830E+03  0.62431885067E+03  0.47000000000E+01 0.  1.
         11    1    4    4    0    0 -0.32928577566E+02  0.30950608273E+01 -0.55208962939E+03  0.55307940614E+03  0.00000000000E+00 0. -1.
        -12    1    4    4    0    0 -0.35809963817E+02 -0.12271405681E+01 -0.80499834959E+02  0.88114032996E+02  0.00000000000E+00 0.  1.
</event>
<event>
12    1  0.8251070E-002  0.2081106E+03  0.7818608E-02  0.1143351E+00
         21   -1    0    0  503  502  0.00000000000E+00  0.00000000000E+00  0.20028208481E+03  0.20028208481E+03  0.00000000000E+00 0. -1.
         21   -1    0    0  501  503 -0.00000000000E+00 -0.00000000000E+00 -0.28281062430E+03  0.28281062430E+03  0.00000000000E+00 0. -1.
          6    2    1    2  501    0 -0.54409376682E+02 -0.10264429103E+03 -0.15961059871E+03  0.26116550811E+03  0.17098435207E+03 0.  0.
         24    2    3    3    0    0 -0.50989804921E+02 -0.42253215338E+02 -0.19869715827E+02  0.10882254029E+03  0.84037165922E+02 0.  0.
         -6    2    1    2    0  502  0.54409376682E+02  0.10264429103E+03  0.77082059220E+02  0.22192720099E+03  0.17266675400E+03 0.  0.
        -24    2    5    5    0    0  0.63214503711E+02  0.46352008714E+02  0.10873052965E+03  0.15658145139E+03  0.80937263673E+02 0.  0.
          5    1    3    3  501    0 -0.34195717610E+01 -0.60391075689E+02 -0.13974088289E+03  0.15234296782E+03  0.47000000000E+01 0. -1.
        -13    1    4    4    0    0 -0.21750635784E+02  0.24572600583E+02  0.13879107256E+01  0.32845534744E+02  0.00000000000E+00 0.  1.
         14    1    4    4    0    0 -0.29239169137E+02 -0.66825815922E+02 -0.21257626553E+02  0.75977005548E+02  0.00000000000E+00 0. -1.
         -5    1    5    5    0  502 -0.88051270291E+01  0.56292282314E+02 -0.31648470431E+02  0.65345749599E+02  0.47000000000E+01 0.  1.
         13    1    6    6    0    0 -0.12157563658E+02  0.31413218333E+02  0.19873968178E+02  0.39109733459E+02  0.00000000000E+00 0. -1.
        -14    1    6    6    0    0  0.75372067369E+02  0.14938790381E+02  0.88856561473E+02  0.11747171793E+03  0.00000000000E+00 0.  1.
</event>
<event>
12    1  0.8251070E-002  0.2152507E+03  0.7818608E-02  0.1137756E+00
         21   -1    0    0  501  502  0.00000000000E+00  0.00000000000E+00  0.75550021462E+02  0.75550021462E+02  0.00000000000E+00 0. -1.
         21   -1    0    0  502  503 -0.00000000000E+00 -0.00000000000E+00 -0.89378099465E+03  0.89378099465E+03  0.00000000000E+00 0.  1.
         -6    2    1    2    0  503 -0.11720018973E+03  0.45197959603E+02 -0.68359269755E+03  0.71668111550E+03  0.17479732589E+03 0.  0.
        -24    2    3    3    0    0 -0.73479470324E+02 -0.24872584537E+02 -0.22399617854E+03  0.24969885379E+03  0.78468793556E+02 0.  0.
          6    2    1    2  501    0  0.11720018973E+03 -0.45197959603E+02 -0.13463827563E+03  0.25264990061E+03  0.17299065578E+03 0.  0.
         24    2    5    5    0    0  0.14458247717E+03 -0.17085841182E+02 -0.77019985706E+02  0.18277831696E+03  0.79245291843E+02 0.  0.
          5    1    5    5  501    0 -0.27382287439E+02 -0.28112118421E+02 -0.57618289923E+02  0.69871583646E+02  0.47000000000E+01 0. -1.
        -11    1    6    6    0    0 -0.57701908279E-01 -0.19787975632E+02 -0.17252071642E+02  0.26252643392E+02  0.00000000000E+00 0.  1.
         12    1    6    6    0    0  0.14464017908E+03  0.27021344496E+01 -0.59767914064E+02  0.15652567357E+03  0.00000000000E+00 0. -1.
         -5    1    3    3    0  503 -0.43720719411E+02  0.70070544140E+02 -0.45959651901E+03  0.46698226171E+03  0.47000000000E+01 0.  1.
         11    1    4    4    0    0 -0.30819599119E+02 -0.22074969282E+02 -0.23295273281E+02  0.44495187559E+02  0.00000000000E+00 0. -1.
        -12    1    4    4    0    0 -0.42659871205E+02 -0.27976152548E+01 -0.20070090526E+03  0.20520366623E+03  0.00000000000E+00 0.  1.
</event>
<event>
12    1  0.8251070E-002  0.2093888E+03  0.7818608E-02  0.1142054E+00
         21   -1    0    0  501  502  0.00000000000E+00  0.00000000000E+00  0.46120835808E+03  0.46120835808E+03  0.00000000000E+00 0. -1.
         21   -1    0    0  502  503 -0.00000000000E+00 -0.00000000000E+00 -0.10271158786E+03  0.10271158786E+03  0.00000000000E+00 0. -1.
         -6    2    1    2    0  503  0.11610116967E+03  0.26062289409E+02  0.10227724416E+03  0.23303283611E+03  0.17229319054E+03 0.  0.
        -24    2    3    3    0    0  0.13830535674E+03 -0.14674638909E+02  0.94059135926E+02  0.18568148391E+03  0.79289190232E+02 0.  0.
          6    2    1    2  501    0 -0.11610116967E+03 -0.26062289409E+02  0.25621952606E+03  0.33088710983E+03  0.17227625892E+03 0.  0.
         24    2    5    5    0    0 -0.12838237491E+03  0.28244297254E+02  0.17376929191E+03  0.23128708740E+03  0.77576900372E+02 0.  0.
          5    1    5    5  501    0  0.12281205238E+02 -0.54306586662E+02  0.82450234150E+02  0.99600022431E+02  0.47000000000E+01 0. -1.
        -13    1    6    6    0    0 -0.25261884187E+02  0.40911777081E+02  0.65238343943E+02  0.81043061498E+02  0.00000000000E+00 0.  1.
         14    1    6    6    0    0 -0.10312049072E+03 -0.12667479827E+02  0.10853094797E+03  0.15024402590E+03  0.00000000000E+00 0. -1.
         -5    1    3    3    0  503 -0.22204187068E+02  0.40736928318E+02  0.82181082379E+01  0.47351352200E+02  0.47000000000E+01 0.  1.
         11    1    4    4    0    0  0.66890627851E+02 -0.21663275263E+02  0.89452541255E+02  0.11377790087E+03  0.00000000000E+00 0. -1.
        -12    1    4    4    0    0  0.71414728885E+02  0.69886363541E+01  0.46065946714E+01  0.71903583042E+02  0.00000000000E+00 0.  1.
</event>
<event>
12    1  0.8251070E-002  0.2075068E+03  0.7818608E-02  0.1143698E+00
         21   -1    0    0  503  502  0.00000000000E+00  0.00000000000E+00  0.57321209067E+03  0.57321209067E+03  0.00000000000E+00 0.  1.
         21   -1    0    0  501  503 -0.00000000000E+00 -0.00000000000E+00 -0.75618798594E+02  0.75618798594E+02  0.00000000000E+00 0. -1.
          6    2    1    2  501    0 -0.31867559126E+02  0.11129547762E+03  0.28164259733E+03  0.34983085828E+03  0.17221164917E+03 0.  0.
         24    2    3    3    0    0 -0.77544246354E+02  0.10130697164E+03  0.25367588850E+03  0.29514670325E+03  0.80522713501E+02 0.  0.
         -6    2    1    2    0  502  0.31867559126E+02 -0.11129547762E+03  0.21595069474E+03  0.29900003098E+03  0.17135953812E+03 0.  0.
        -24    2    5    5    0    0 -0.61463494949E+01 -0.20337747596E+01  0.13646749848E+03  0.15856198255E+03  0.80477390093E+02 0.  0.
          5    1    3    3  501    0  0.45676687229E+02  0.99885059757E+01  0.27966708834E+02  0.54684155025E+02  0.47000000000E+01 0. -1.
        -13    1    4    4    0    0 -0.17629278933E+02  0.66815402463E+02  0.67708213203E+02  0.96744465563E+02  0.00000000000E+00 0.  1.
         14    1    4    4    0    0 -0.59914967421E+02  0.34491569180E+02  0.18596767529E+03  0.19840223769E+03  0.00000000000E+00 0. -1.
         -5    1    5    5    0  502  0.38013908621E+02 -0.10926170286E+03  0.79483196260E+02  0.14043804843E+03  0.47000000000E+01 0.  1.
         13    1    6    6    0    0 -0.11274735364E+02  0.12049060408E+02 -0.42568935144E+01  0.17041732794E+02  0.00000000000E+00 0. -1.
        -14    1    6    6    0    0  0.51283858687E+01 -0.14082835167E+02  0.14072439200E+03  0.14152024976E+03  0.00000000000E+00 0.  1.
</event>
<event>
12    1  0.8251070E-002  0.1976000E+03  0.7818608E-02  0.1151894E+00
         21   -1    0    0  501  502  0.00000000000E+00  0.00000000000E+00  0.45992192850E+03  0.45992192850E+03  0.00000000000E+00 0.  1.
         21   -1    0    0  502  503 -0.00000000000E+00 -0.00000000000E+00 -0.29806632843E+03  0.29806632843E+03  0.00000000000E+00 0.  1.
         -6    2    1    2    0  503  0.93016932793E+02 -0.27823675925E+02 -0.23972138876E+03  0.31066400256E+03  0.17210308402E+03 0.  0.
        -24    2    3    3    0    0 -0.56657554486E+01 -0.33721388679E+02 -0.16351242420E+03  0.18575222468E+03  0.81230186916E+02 0.  0.
          6    2    1    2  501    0 -0.93016932793E+02  0.27823675925E+02  0.40157698883E+03  0.44732425437E+03  0.17148936952E+03 0.  0.
         24    2    5    5    0    0 -0.49103226778E+02  0.15319652212E+02  0.38804731397E+03  0.39947128908E+03  0.79691745486E+02 0.  0.
          5    1    5    5  501    0 -0.43913706015E+02  0.12504023714E+02  0.13529674867E+02  0.47852965290E+02  0.47000000000E+01 0. -1.
        -11    1    6    6    0    0 -0.43649310250E+02 -0.26718740831E+02  0.17916757922E+03  0.18633350434E+03  0.00000000000E+00 0.  1.
         12    1    6    6    0    0 -0.54539165282E+01  0.42038393043E+02  0.20887973474E+03  0.21313778474E+03  0.00000000000E+00 0. -1.
         -5    1    3    3    0  503  0.98682688242E+02  0.58977127534E+01 -0.76208964563E+02  0.12491177788E+03  0.47000000000E+01 0.  1.
         11    1    4    4    0    0  0.39810396614E+01 -0.94073133281E+01  0.75494241250E+01  0.12701969354E+02  0.00000000000E+00 0. -1.
        -12    1    4    4    0    0 -0.96467951100E+01 -0.24314075351E+02 -0.17106184832E+03  0.17305025533E+03  0.00000000000E+00 0.  1.
</event>
<event>
12    1  0.8251070E-002  0.2534415E+03  0.7818608E-02  0.1111186E+00
         21   -1    0    0  503  502  0.00000000000E+00  0.00000000000E+00  0.96351107635E+02  0.96351107635E+02  0.00000000000E+00 0. -1.
         21   -1    0    0  501  503 -0.00000000000E+00 -0.00000000000E+00 -0.75080888365E+03  0.75080888365E+03  0.00000000000E+00 0. -1.
          6    2    1    2  501    0  0.10769095522E+03 -0.15098068474E+03 -0.46969887626E+03  0.53371306090E+03  0.17274283781E+03 0.  0.
         24    2    3    3    0    0  0.88907078587E+02 -0.96578127278E+02 -0.16565199942E+03  0.22423112993E+03  0.74881315608E+02 0.  0.
         -6    2    1    2    0  502 -0.10769095522E+03  0.15098068474E+03 -0.18475889976E+03  0.31344693039E+03  0.17239668828E+03 0.  0.
        -24    2    5    5    0    0 -0.11823773867E+03  0.49304063518E+02 -0.11228068764E+03  0.18804935794E+03  0.79652712931E+02 0.  0.
          5    1    3    3  501    0  0.18783876632E+02 -0.54402557464E+02 -0.30404687684E+03  0.30948193097E+03  0.47000000000E+01 0. -1.
        -11    1    4    4    0    0  0.40388237841E+02 -0.93640369961E+01 -0.89691909633E+02  0.98810594566E+02  0.00000000000E+00 0.  1.
         12    1    4    4    0    0  0.48518840746E+02 -0.87214090282E+02 -0.75960089785E+02  0.12542053536E+03  0.00000000000E+00 0. -1.
         -5    1    5    5    0  502  0.10546783455E+02  0.10167662122E+03 -0.72478212122E+02  0.12539757245E+03  0.47000000000E+01 0.  1.
         11    1    6    6    0    0 -0.42064037472E+01  0.15626895034E+02  0.87404244802E+01  0.18392626266E+02  0.00000000000E+00 0. -1.
        -12    1    6    6    0    0 -0.11403133493E+03  0.33677168484E+02 -0.12102111212E+03  0.16965673167E+03  0.00000000000E+00 0.  1.
</event>
<event>
12    1  0.8251070E-002  0.1759944E+03  0.7818608E-02  0.1172114E+00
         21   -1    0    0  501  502  0.00000000000E+00  0.00000000000E+00  0.21055396084E+03  0.21055396084E+03  0.00000000000E+00 0. -1.
         21   -1    0    0  502  503 -0.00000000000E+00 -0.00000000000E+00 -0.14708968021E+03  0.14708968021E+03  0.00000000000E+00 0. -1.
         -6    2    1    2    0  503  0.31935903614E+02  0.26586808918E+02  0.47999897154E+02  0.18097108480E+03  0.16946912125E+03 0.  0.
        -24    2    3    3    0    0 -0.34815329419E+02  0.33176252618E+02 -0.61237325891E+01  0.94654196666E+02  0.81296653962E+02 0.  0.
          6    2    1    2  501    0 -0.31935903614E+02 -0.26586808918E+02  0.15464383470E+02  0.17667255625E+03  0.17101837512E+03 0.  0.
         24    2    5    5    0    0 -0.83042812008E+02 -0.28185718491E+02  0.31874168069E+02  0.12276667876E+03  0.79781899397E+02 0.  0.
          5    1    5    5  501    0  0.51106908394E+02  0.15989095728E+01 -0.16409784599E+02  0.53905877490E+02  0.47000000000E+01 0. -1.
        -13    1    6    6    0    0 -0.61547811669E+02 -0.30079334028E+02  0.57377659872E+02  0.89359360501E+02  0.00000000000E+00 0.  1.
         14    1    6    6    0    0 -0.21495000339E+02  0.18936155371E+01 -0.25503491802E+02  0.33407318262E+02  0.00000000000E+00 0. -1.
         -5    1    3    3    0  503  0.66751233033E+02 -0.65894437006E+01  0.54123629743E+02  0.86316888130E+02  0.47000000000E+01 0.  1.
         13    1    4    4    0    0  0.12694596034E+02 -0.15405264644E+02  0.13293579325E+02  0.23983206593E+02  0.00000000000E+00 0. -1.
        -14    1    4    4    0    0 -0.47509925453E+02  0.48581517262E+02 -0.19417311914E+02  0.70670990074E+02  0.00000000000E+00 0.  1.
</event>
<event>
12    1  0.8251070E-002  0.3290191E+03  0.7818608E-02  0.1071638E+00
         21   -1    0    0  501  502  0.00000000000E+00  0.00000000000E+00  0.66129111417E+02  0.66129111417E+02  0.00000000000E+00 0.  1.
         21   -1    0    0  502  503 -0.00000000000E+00 -0.00000000000E+00 -0.18131488219E+04  0.18131488219E+04  0.00000000000E+00 0.  1.
         -6    2    1    2    0  503  0.26488809546E+03 -0.91412552180E+02 -0.11695358005E+04  0.12149352067E+04  0.17242856489E+03 0.  0.
        -24    2    3    3    0    0  0.91187022410E+02  0.15463998462E+02 -0.50515850060E+03  0.51994315891E+03  0.81250042856E+02 0.  0.
          6    2    1    2  501    0 -0.26488809546E+03  0.91412552180E+02 -0.57748390997E+03  0.66434272661E+03  0.17129399965E+03 0.  0.
         24    2    5    5    0    0 -0.17548789480E+03  0.32565144887E+02 -0.48400900341E+03  0.52216304670E+03  0.80827235969E+02 0.  0.
          5    1    5    5  501    0 -0.89400200668E+02  0.58847407293E+02 -0.93474906562E+02  0.14217967992E+03  0.47000000000E+01 0. -1.
        -11    1    6    6    0    0 -0.12413985372E+03  0.42902968557E+02 -0.25043262864E+03  0.28278590750E+03  0.00000000000E+00 0.  1.
         12    1    6    6    0    0 -0.51348041074E+02 -0.10337823671E+02 -0.23357637476E+03  0.23937713919E+03  0.00000000000E+00 0. -1.
         -5    1    3    3    0  503  0.17370107305E+03 -0.10687655064E+03 -0.66437729995E+03  0.69499204783E+03  0.47000000000E+01 0.  1.
         13    1    4    4    0    0 -0.35261749309E+00  0.16443624875E+02 -0.18520564750E+02  0.24769506592E+02  0.00000000000E+00 0. -1.
        -14    1    4    4    0    0  0.91539639903E+02 -0.97962641334E+00 -0.48663793585E+03  0.49517365232E+03  0.00000000000E+00 0.  1.
</event>
<event>
12    1  0.8251070E-002  0.1767168E+03  0.7818608E-02  0.1171041E+00
         21   -1    0    0  503  502  0.00000000000E+00  0.00000000000E+00  0.73094535496E+02  0.73094535496E+02  0.00000000000E+00 0.  1.
         21   -1    0    0  501  503 -0.00000000000E+00 -0.00000000000E+00 -0.54831878272E+03  0.54831878272E+03  0.00000000000E+00 0.  1.
          6    2    1    2  501    0  0.28056718029E+02  0.19670913830E+02 -0.38379150050E+03  0.42252189695E+03  0.17336295241E+03 0.  0.
         24    2    3    3    0    0  0.50546718824E+02  0.70817393052E+02 -0.28494949841E+03  0.30888390221E+03  0.81504444386E+02 0.  0.
         -6    2    1    2    0  502 -0.28056718029E+02 -0.19670913830E+02 -0.91432746724E+02  0.19889142126E+03  0.17327355829E+03 0.  0.
        -24    2    5    5    0    0  0.35881477565E+02  0.31872106521E+02 -0.41695316804E+02  0.10276297731E+03  0.80736723090E+02 0.  0.
          5    1    3    3  501    0 -0.22490000796E+02 -0.51146479222E+02 -0.98842002088E+02  0.11363799474E+03  0.47000000000E+01 0. -1.
        -13    1    4    4    0    0  0.52402912316E+02  0.25189750581E+02 -0.23098771514E+03  0.23819301690E+03  0.00000000000E+00 0.  1.
         14    1    4    4    0    0 -0.18561934917E+01  0.45627642472E+02 -0.53961783271E+02  0.70690885308E+02  0.00000000000E+00 0. -1.
         -5    1    5    5    0  502 -0.63938195593E+02 -0.51543020351E+02 -0.49737429920E+02  0.96128443958E+02  0.47000000000E+01 0.  1.
         13    1    6    6    0    0 -0.16980206465E+01  0.23198126811E+01  0.22521653897E+02  0.22704398235E+02  0.00000000000E+00 0. -1.
        -14    1    6    6    0    0  0.37579498211E+02  0.29552293840E+02 -0.64216970701E+02  0.80058579072E+02  0.00000000000E+00 0.  1.
</event>
<event>
12    1  0.8251070E-002  0.2548607E+03  0.7818608E-02  0.1112868E+00
         21   -1    0    0  503  502  0.00000000000E+00  0.00000000000E+00  0.44347320112E+03  0.44347320112E+03  0.00000000000E+00 0.  1.
         21   -1    0    0  501  503 -0.00000000000E+00 -0.00000000000E+00 -0.13975677042E+04  0.13975677042E+04  0.00000000000E+00 0. -1.
          6    2    1    2  501    0 -0.18559963202E+02  0.17132080302E+03 -0.13496022666E+04  0.13705301399E+04  0.16501907983E+03 0.  0.
         24    2    3    3    0    0 -0.46185199773E+02  0.76576886476E+02 -0.45554802236E+03  0.47103325554E+03  0.79694635492E+02 0.  0.
         -6    2    1    2    0  502  0.18559963202E+02 -0.17132080302E+03  0.39550776353E+03  0.47051076536E+03  0.18777299998E+03 0.  0.
        -24    2    5    5    0    0 -0.98573853826E+01 -0.19889811740E+03  0.32803723546E+03  0.39213719757E+03  0.80656833036E+02 0.  0.
          5    1    3    3  501    0  0.27625236571E+02  0.94743916541E+02 -0.89405424421E+03  0.89949688438E+03  0.47000000000E+01 0. -1.
        -13    1    4    4    0    0 -0.47480235899E+01  0.73599052148E+02 -0.22520877612E+03  0.23697754545E+03  0.00000000000E+00 0.  1.
         14    1    4    4    0    0 -0.41437176183E+02  0.29778343281E+01 -0.23033924624E+03  0.23405571009E+03  0.00000000000E+00 0. -1.
         -5    1    5    5    0  502  0.28417348585E+02  0.27577314387E+02  0.67470528073E+02  0.78373567789E+02  0.47000000000E+01 0.  1.
         11    1    6    6    0    0  0.31724002011E+02 -0.13241914540E+03  0.19845101886E+03  0.24067415578E+03  0.00000000000E+00 0. -1.
        -12    1    6    6    0    0 -0.41581387394E+02 -0.66478972004E+02  0.12958621660E+03  0.15146304179E+03  0.00000000000E+00 0.  1.
</event>
<event>
12    1  0.8251070E-002  0.1761984E+03  0.7818608E-02  0.1172170E+00
         21   -1    0    0  503  502  0.00000000000E+00  0.00000000000E+00  0.15106834032E+04  0.15106834032E+04  0.00000000000E+00 0.  1.
         21   -1    0    0  501  503 -0.00000000000E+00 -0.00000000000E+00 -0.27318973569E+02  0.27318973569E+02  0.00000000000E+00 0.  1.
          6    2    1    2  501    0 -0.76414322473E+01  0.25658196240E+02  0.35466515964E+03  0.39602177709E+03  0.17415262831E+03 0.  0.
         24    2    3    3    0    0  0.43395560830E+02 -0.26641401791E+02  0.26125302341E+03  0.27732914964E+03  0.77880523937E+02 0.  0.
         -6    2    1    2    0  502  0.76414322473E+01 -0.25658196240E+02  0.11286992700E+04  0.11419805997E+04  0.17158354654E+03 0.  0.
        -24    2    5    5    0    0  0.10443424737E+02 -0.59546635395E+02  0.49835655421E+03  0.51070387208E+03  0.93831353636E+02 0.  0.
          5    1    3    3  501    0 -0.51036993077E+02  0.52299598030E+02  0.93412136228E+02  0.11869262745E+03  0.47000000000E+01 0. -1.
        -11    1    4    4    0    0  0.38487947359E+01  0.18179341747E+02  0.14871035353E+02  0.23800197053E+02  0.00000000000E+00 0.  1.
         12    1    4    4    0    0  0.39546766094E+02 -0.44820743538E+02  0.24638198806E+03  0.25352895258E+03  0.00000000000E+00 0. -1.
         -5    1    5    5    0  502 -0.28019924896E+01  0.33888439155E+02  0.63034271583E+03  0.63127672765E+03  0.47000000000E+01 0.  1.
         11    1    6    6    0    0 -0.18320220124E+02  0.13282064274E+02  0.42282975706E+02  0.47957207293E+02  0.00000000000E+00 0. -1.
        -12    1    6    6    0    0  0.28763644861E+02 -0.72828699669E+02  0.45607357850E+03  0.46274666478E+03  0.00000000000E+00 0.  1.
</event>
<event>
12    1  0.8251070E-002  0.1760407E+03  0.7818608E-02  0.1171812E+00
         21   -1    0    0  501  502  0.00000000000E+00  0.00000000000E+00  0.28493883193E+03  0.28493883193E+03  0.00000000000E+00 0. -1.
         21   -1    0    0  502  503 -0.00000000000E+00 -0.00000000000E+00 -0.13364427868E+03  0.13364427868E+03  0.00000000000E+00 0. -1.
         -6    2    1    2    0  503 -0.15606433562E+02  0.31930956972E+02 -0.15116958097E+02  0.17668852667E+03  0.17241567867E+03 0.  0.
        -24    2    3    3    0    0  0.51078156501E+02  0.46467925388E+02  0.62999797577E+01  0.10500217350E+03  0.78851255757E+02 0.  0.
          6    2    1    2  501    0  0.15606433562E+02 -0.31930956972E+02  0.16641151135E+03  0.24189458395E+03  0.17192164451E+03 0.  0.
         24    2    5    5    0    0  0.42606375510E+02  0.37619975151E+02  0.11821160005E+03  0.15294712488E+03  0.78665588796E+02 0.  0.
          5    1    5    5  501    0 -0.26999941948E+02 -0.69550932123E+02  0.48199911304E+02  0.88947459065E+02  0.47000000000E+01 0. -1.
        -13    1    6    6    0    0  0.11082107344E+02  0.23472457486E+02  0.11539591647E+03  0.11827927503E+03  0.00000000000E+00 0.  1.
         14    1    6    6    0    0  0.31524268166E+02  0.14147517665E+02  0.28156835750E+01  0.34667849854E+02  0.00000000000E+00 0. -1.
         -5    1    3    3    0  503 -0.66684590063E+02 -0.14536968416E+02 -0.21416937855E+02  0.71686353162E+02  0.47000000000E+01 0.  1.
         13    1    4    4    0    0  0.34939917367E+02  0.10344333974E+02 -0.33054627789E+02  0.49197677681E+02  0.00000000000E+00 0. -1.
        -14    1    4    4    0    0  0.16138239135E+02  0.36123591413E+02  0.39354607547E+02  0.55804495824E+02  0.00000000000E+00 0.  1.
</event>
<event>
12    1  0.8251070E-002  0.2109405E+03  0.7818608E-02  0.1141541E+00
         21   -1    0    0  503  502  0.00000000000E+00  0.00000000000E+00  0.10811474309E+04  0.10811474309E+04  0.00000000000E+00 0. -1.
         21   -1    0    0  501  503 -0.00000000000E+00 -0.00000000000E+00 -0.47742814284E+02  0.47742814284E+02  0.00000000000E+00 0.  1.
          6    2    1    2  501    0 -0.53643810468E+02  0.10831310903E+03  0.74102413324E+03  0.77046263390E+03  0.17287717083E+03 0.  0.
         24    2    3    3    0    0 -0.43369025531E+02  0.72404618435E+02  0.71606595274E+03  0.72529636688E+03  0.78619781143E+02 0.  0.
         -6    2    1    2    0  502  0.53643810468E+02 -0.10831310903E+03  0.29238048333E+03  0.35842761124E+03  0.16844766985E+03 0.  0.
        -24    2    5    5    0    0 -0.22990987790E+02 -0.12707627098E+02  0.13239244008E+03  0.15685488376E+03  0.79910118660E+02 0.  0.
          5    1    3    3  501    0 -0.10274784937E+02  0.35908490598E+02  0.24958180502E+02  0.45166267020E+02  0.47000000000E+01 0. -1.
        -13    1    4    4    0    0  0.49641616750E+01 -0.14782711033E+02  0.10531140952E+03  0.10645968449E+03  0.00000000000E+00 0.  1.
         14    1    4    4    0    0 -0.48333187206E+02  0.87187329468E+02  0.61075454322E+03  0.61883668239E+03  0.00000000000E+00 0. -1.
         -5    1    5    5    0  502  0.76634798258E+02 -0.95605481935E+02  0.15998804326E+03  0.20157272748E+03  0.47000000000E+01 0.  1.
         11    1    6    6    0    0 -0.17313477690E+01  0.13722743978E+02  0.11991980151E+03  0.12071482950E+03  0.00000000000E+00 0. -1.
        -12    1    6    6    0    0 -0.21259640021E+02 -0.26430371076E+02  0.12472638566E+02  0.36140054259E+02  0.00000000000E+00 0.  1.
</event>
<event>
12    1  0.8251070E-002  0.2013067E+03  0.7818608E-02  0.1148645E+00
         21   -1    0    0  501  502  0.00000000000E+00  0.00000000000E+00  0.77506782904E+03  0.77506782904E+03  0.00000000000E+00 0. -1.
         21   -1    0    0  502  503 -0.00000000000E+00 -0.00000000000E+00 -0.11110238035E+03  0.11110238035E+03  0.00000000000E+00 0. -1.
         -6    2    1    2    0  503 -0.82997215622E+02 -0.64962411980E+02  0.95885889819E+01  0.20153497187E+03  0.17151020692E+03 0.  0.
        -24    2    3    3    0    0 -0.10461928677E+03  0.24997160981E+01  0.13555434338E+02  0.13042605156E+03  0.76653515123E+02 0.  0.
          6    2    1    2  501    0  0.82997215622E+02  0.64962411980E+02  0.65437685971E+03  0.68463523752E+03  0.17148667924E+03 0.  0.
         24    2    5    5    0    0  0.38337763029E+02 -0.27145613024E+02  0.39494805460E+03  0.40570200196E+03  0.80021748202E+02 0.  0.
          5    1    5    5  501    0  0.44659452593E+02  0.92108025004E+02  0.25942880511E+03  0.27893323556E+03  0.47000000000E+01 0. -1.
        -13    1    6    6    0    0  0.35665060188E+02 -0.25292696121E+02  0.39849689845E+03  0.40088838230E+03  0.00000000000E+00 0.  1.
         14    1    6    6    0    0  0.26727028410E+01 -0.18529169034E+01 -0.35488438500E+01  0.48136196567E+01  0.00000000000E+00 0. -1.
         -5    1    3    3    0  503  0.21622071147E+02 -0.67462128078E+02 -0.39668453560E+01  0.71108920310E+02  0.47000000000E+01 0.  1.
         13    1    4    4    0    0 -0.80769959587E+02 -0.82610532029E+01 -0.23991581391E+02  0.84661841164E+02  0.00000000000E+00 0. -1.
        -14    1    4    4    0    0 -0.23849327183E+02  0.10760769301E+02  0.37547015729E+02  0.45764210396E+02  0.00000000000E+00 0.  1.
</event>
<event>
12    1  0.8251070E-002  0.1989824E+03  0.7818608E-02  0.1150840E+00
         21   -1    0    0  503  502  0.00000000000E+00  0.00000000000E+00  0.19467822047E+04  0.19467822047E+04  0.00000000000E+00 0. -1.
         21   -1    0    0  501  503 -0.00000000000E+00 -0.00000000000E+00 -0.21128015939E+02  0.21128015939E+02  0.00000000000E+00 0. -1.
          6    2    1    2  501    0 -0.98096630812E+02 -0.18916916056E+02  0.76182600595E+03  0.78738355057E+03  0.17208484442E+03 0.  0.
         24    2    3    3    0    0 -0.57647845061E+02 -0.65023735246E+02  0.64397543632E+03  0.65444450511E+03  0.77729579352E+02 0.  0.
         -6    2    1    2    0  502  0.98096630812E+02  0.18916916056E+02  0.11638281828E+04  0.11805266701E+04  0.17078167626E+03 0.  0.
        -24    2    5    5    0    0  0.16805156296E+02  0.16286467179E+02  0.90889887686E+03  0.91289583454E+03  0.82060795033E+02 0.  0.
          5    1    3    3  501    0 -0.40448785751E+02  0.46106819190E+02  0.11785056963E+03  0.13293904546E+03  0.47000000000E+01 0. -1.
        -13    1    4    4    0    0 -0.72390194341E+02 -0.50037023166E+02  0.58987782042E+03  0.59640580727E+03  0.00000000000E+00 0.  1.
         14    1    4    4    0    0  0.14742349280E+02 -0.14986712080E+02  0.54097615897E+02  0.58038697841E+02  0.00000000000E+00 0. -1.
         -5    1    5    5    0  502  0.81291474517E+02  0.26304488766E+01  0.25492930598E+03  0.26763083555E+03  0.47000000000E+01 0.  1.
         11    1    6    6    0    0  0.30419105038E+02 -0.14196396418E+02  0.17223104424E+03  0.17547191292E+03  0.00000000000E+00 0. -1.
        -12    1    6    6    0    0 -0.13613948742E+02  0.30482863597E+02  0.73666783262E+03  0.73742392162E+03  0.00000000000E+00 0.  1.
</event>
<event>
12    1  0.8251070E-002  0.1810082E+03  0.7818608E-02  0.1166894E+00
         21   -1    0    0  503  502  0.00000000000E+00  0.00000000000E+00  0.16428988625E+03  0.16428988625E+03  0.00000000000E+00 0.  1.
         21   -1    0    0  501  503 -0.00000000000E+00 -0.00000000000E+00 -0.20959700774E+03  0.20959700774E+03  0.00000000000E+00 0.  1.
          6    2    1    2  501    0  0.22908624691E+02 -0.48182313772E+02 -0.64393427824E+02  0.19187524694E+03  0.17269411222E+03 0.  0.
         24    2    3    3    0    0 -0.17809628416E+02 -0.51405411317E+02 -0.99330216349E+02  0.13792125092E+03  0.78715185314E+02 0.  0.
         -6    2    1    2    0  502 -0.22908624691E+02  0.48182313772E+02  0.19086306338E+02  0.18201164705E+03  0.17296708394E+03 0.  0.
        -24    2    5    5    0    0  0.28606836708E+02 -0.22135999951E+02 -0.13199965684E+02  0.88936401316E+02  0.80169138605E+02 0.  0.
          5    1    3    3  501    0  0.40718253107E+02  0.32230975447E+01  0.34936788525E+02  0.53953996017E+02  0.47000000000E+01 0. -1.
        -13    1    4    4    0    0  0.16290105929E+02 -0.27976817107E+01 -0.69566348754E+02  0.71502947164E+02  0.00000000000E+00 0.  1.
         14    1    4    4    0    0 -0.34099734345E+02 -0.48607729606E+02 -0.29763867594E+02  0.66418303758E+02  0.00000000000E+00 0. -1.
         -5    1    5    5    0  502 -0.51515461399E+02  0.70318313723E+02  0.32286272022E+02  0.93075245738E+02  0.47000000000E+01 0.  1.
         11    1    6    6    0    0 -0.21387193507E+02 -0.75107432345E+01 -0.26800129940E+02  0.35100858605E+02  0.00000000000E+00 0. -1.
        -12    1    6    6    0    0  0.49994030215E+02 -0.14625256717E+02  0.13600164256E+02  0.53835542710E+02  0.00000000000E+00 0.  1.
</event>
<event>
12    1  0.8251070E-002  0.2698615E+03  0.7818608E-02  0.1101573E+00
         21   -1    0    0  503  502  0.00000000000E+00  0.00000000000E+00  0.20606024993E+04  0.20606024993E+04  0.00000000000E+00 0.  1.
         21   -1    0    0  501  503 -0.00000000000E+00 -0.00000000000E+00 -0.55299437105E+02  0.55299437105E+02  0.00000000000E+00 0. -1.
          6    2    1    2  501    0  0.33160196292E+02  0.20335823666E+03  0.36223529883E+03  0.45082029253E+03  0.17196032508E+03 0.  0.
         24    2    3    3    0    0 -0.52794522158E+01  0.17555066718E+03  0.16277987631E+03  0.24574610334E+03  0.55208240438E+02 0.  0.
         -6    2    1    2    0  502 -0.33160196292E+02 -0.20335823666E+03  0.16430677634E+04  0.16650816439E+04  0.17427287433E+03 0.  0.
        -24    2    5    5    0    0 -0.79540656418E+02 -0.16261642453E+03  0.14167284602E+04  0.14304274036E+04  0.78944343587E+02 0.  0.
          5    1    3    3  501    0  0.38439648508E+02  0.27807569482E+02  0.19945542252E+03  0.20507418919E+03  0.47000000000E+01 0. -1.
        -13    1    4    4    0    0  0.22821978605E+02  0.52317999504E+02  0.60241841368E+02  0.82988524695E+02  0.00000000000E+00 0.  1.
         14    1    4    4    0    0 -0.28101430821E+02  0.12323266768E+03  0.10253803494E+03  0.16275757864E+03  0.00000000000E+00 0. -1.
         -5    1    5    5    0  502  0.46380460126E+02 -0.40741812137E+02  0.22633930314E+03  0.23465424028E+03  0.47000000000E+01 0.  1.
         11    1    6    6    0    0 -0.56236616275E+02 -0.76018077502E+02  0.98220950665E+03  0.98675063722E+03  0.00000000000E+00 0. -1.
        -12    1    6    6    0    0 -0.23304040142E+02 -0.86598347024E+02  0.43451895357E+03  0.44367676636E+03  0.00000000000E+00 0.  1.
</event>
<event>
12    1  0.8251070E-002  0.1742722E+03  0.7818608E-02  0.1174094E+00
         21   -1    0    0  501  502  0.00000000000E+00  0.00000000000E+00  0.13901252879E+03  0.13901252879E+03  0.00000000000E+00 0.  1.
         21   -1    0    0  502  503 -0.00000000000E+00 -0.00000000000E+00 -0.24250832154E+03  0.24250832154E+03  0.00000000000E+00 0.  1.
         -6    2    1    2    0  503 -0.11068134002E+02  0.65344645536E+01 -0.11521813761E+03  0.20685481064E+03  0.17131401179E+03 0.  0.
        -24    2    3    3    0    0  0.13547588222E+02 -0.60110143427E+02 -0.67611115804E+02  0.12120461462E+03  0.79514332891E+02 0.  0.
          6    2    1    2  501    0  0.11068134002E+02 -0.65344645536E+01  0.11722344856E+02  0.17466603969E+03  0.17379760998E+03 0.  0.
         24    2    5    5    0    0 -0.42506967833E+02 -0.32052227345E+02 -0.31978403105E+02  0.10081962389E+03  0.79421600989E+02 0.  0.
          5    1    5    5  501    0  0.53575101835E+02  0.25517762791E+02  0.43700747961E+02  0.73846415803E+02  0.47000000000E+01 0. -1.
        -13    1    6    6    0    0 -0.48631368589E+02 -0.88730357418E+01  0.11875078278E+02  0.50840517879E+02  0.00000000000E+00 0.  1.
         14    1    6    6    0    0  0.61244007560E+01 -0.23179191603E+02 -0.43853481383E+02  0.49979106008E+02  0.00000000000E+00 0. -1.
         -5    1    3    3    0  503 -0.24615722224E+02  0.66644607981E+02 -0.47607021803E+02  0.85650196021E+02  0.47000000000E+01 0.  1.
         13    1    4    4    0    0 -0.26242919867E+02 -0.30498273074E+02 -0.38431940004E+01  0.40417887671E+02  0.00000000000E+00 0. -1.
        -14    1    4    4    0    0  0.39790508089E+02 -0.29611870354E+02 -0.63767921803E+02  0.80786726948E+02  0.00000000000E+00 0.  1.
</event>
<event>
12    1  0.8251070E-002  0.2100463E+03  0.7818608E-02  0.1141624E+00
         21   -1    0    0  501  502  0.00000000000E+00  0.00000000000E+00  0.34723882648E+02  0.34723882648E+02  0.00000000000E+00 0.  1.
         21   -1    0    0  502  503 -0.00000000000E+00 -0.00000000000E+00 -0.12982961439E+04  0.12982961439E+04  0.00000000000E+00 0.  1.
         -6    2    1    2    0  503 -0.49828812420E+02 -0.10898227660E+03 -0.73342293348E+03  0.76277642917E+03  0.17192624692E+03 0.  0.
        -24    2    3    3    0    0 -0.37496479915E+02 -0.40460035488E+02 -0.19389564817E+03  0.21875513772E+03  0.84942847983E+02 0.  0.
          6    2    1    2  501    0  0.49828812420E+02  0.10898227660E+03 -0.53014932776E+03  0.57024359737E+03  0.17250914020E+03 0.  0.
         24    2    5    5    0    0 -0.16975942110E+02  0.12689987675E+03 -0.36560543200E+03  0.39169192626E+03  0.57995446878E+02 0.  0.
          5    1    5    5  501    0  0.66804754529E+02 -0.17917600153E+02 -0.16454389576E+03  0.17855167111E+03  0.47000000000E+01 0. -1.
        -13    1    6    6    0    0 -0.28142867379E+02  0.57168776219E+02 -0.11670970392E+03  0.13297159451E+03  0.00000000000E+00 0.  1.
         14    1    6    6    0    0  0.11166925269E+02  0.69731100536E+02 -0.24889572809E+03  0.25872033175E+03  0.00000000000E+00 0. -1.
         -5    1    3    3    0  503 -0.12332332505E+02 -0.68522241114E+02 -0.53952728531E+03  0.54402129145E+03  0.47000000000E+01 0.  1.
         11    1    4    4    0    0 -0.53769779581E+01 -0.23876019387E+01  0.84903251734E+01  0.10329479974E+02  0.00000000000E+00 0. -1.
        -12    1    4    4    0    0 -0.32119501957E+02 -0.38072433549E+02 -0.20238597334E+03  0.20842565775E+03  0.00000000000E+00 0.  1.
</event>
<event>
12    1  0.8251070E-002  0.1769614E+03  0.7818608E-02  0.1170899E+00
         21   -1    0    0  501  502  0.00000000000E+00  0.00000000000E+00  0.14345985315E+03  0.14345985315E+03  0.00000000000E+00 0.  1.
         21   -1    0    0  502  503 -0.00000000000E+00 -0.00000000000E+00 -0.24312979980E+03  0.24312979980E+03  0.00000000000E+00 0.  1.
         -6    2    1    2    0  503  0.33567574567E+02 -0.39469335397E+01 -0.11243825922E+03  0.20966089787E+03  0.17370368336E+03 0.  0.
        -24    2    3    3    0    0 -0.43258149994E+02  0.16235571263E+02 -0.84599684143E+02  0.12536023526E+03  0.80144998048E+02 0.  0.
          6    2    1    2  501    0 -0.33567574567E+02  0.39469335397E+01  0.12768312567E+02  0.17692875509E+03  0.17320044522E+03 0.  0.
         24    2    5    5    0    0 -0.57666015766E+02 -0.65067969847E+01 -0.47151186174E+02  0.11133567863E+03  0.82490552165E+02 0.  0.
          5    1    5    5  501    0  0.24098441198E+02  0.10453730524E+02  0.59919498741E+02  0.65593076460E+02  0.47000000000E+01 0. -1.
        -11    1    6    6    0    0 -0.29696721264E+02  0.36750807332E+02 -0.33881458190E+02  0.58141811999E+02  0.00000000000E+00 0.  1.
         12    1    6    6    0    0 -0.27969294501E+02 -0.43257604317E+02 -0.13269727984E+02  0.53193866628E+02  0.00000000000E+00 0. -1.
         -5    1    3    3    0  503  0.76825724561E+02 -0.20182504802E+02 -0.27838575074E+02  0.84300662611E+02  0.47000000000E+01 0.  1.
         13    1    4    4    0    0 -0.28542093183E+02  0.65035320372E+01  0.85956858981E+01  0.30509553066E+02  0.00000000000E+00 0. -1.
        -14    1    4    4    0    0 -0.14716056811E+02  0.97320392253E+01 -0.93195370041E+02  0.94850682194E+02  0.00000000000E+00 0.  1.
</event>
<event>
12    1  0.8251070E-002  0.2246403E+03  0.7818608E-02  0.1130950E+00
         21   -1    0    0  503  502  0.00000000000E+00  0.00000000000E+00  0.19269339385E+03  0.19269339385E+03  0.00000000000E+00 0.  1.
         21   -1    0    0  501  503 -0.00000000000E+00 -0.00000000000E+00 -0.34790200650E+03  0.34790200650E+03  0.00000000000E+00 0. -1.
          6    2    1    2  501    0 -0.31014855920E+02  0.13844038517E+03 -0.21471195032E+03  0.31074826176E+03  0.17417117741E+03 0.  0.
         24    2    3    3    0    0 -0.17500289482E+01  0.14855180777E+03 -0.10819587784E+03  0.19972378400E+03  0.78182732867E+02 0.  0.
         -6    2    1    2    0  502  0.31014855920E+02 -0.13844038517E+03  0.59503337681E+02  0.22984713859E+03  0.17076708814E+03 0.  0.
        -24    2    5    5    0    0 -0.40617653667E+02 -0.37224886980E+02  0.16142860510E+02  0.98401277177E+02  0.79917040764E+02 0.  0.
          5    1    3    3  501    0 -0.29264826972E+02 -0.10111422606E+02 -0.10651607248E+03  0.11102447776E+03  0.47000000000E+01 0. -1.
        -11    1    4    4    0    0 -0.25164257793E+02  0.59362034004E+02 -0.10398111888E+02  0.65308588120E+02  0.00000000000E+00 0.  1.
         12    1    4    4    0    0  0.23414228845E+02  0.89189773769E+02 -0.97797765955E+02  0.13441519588E+03  0.00000000000E+00 0. -1.
         -5    1    5    5    0  502  0.71632509587E+02 -0.10121549819E+03  0.43360477171E+02  0.13144586142E+03  0.47000000000E+01 0.  1.
         11    1    6    6    0    0  0.22776304178E+02 -0.15781743926E+01 -0.34241772955E+01  0.23086265539E+02  0.00000000000E+00 0. -1.
        -12    1    6    6    0    0 -0.63393957844E+02 -0.35646712587E+02  0.19567037806E+02  0.75315011637E+02  0.00000000000E+00 0.  1.
</event>
<event>
12    1  0.8251070E-002  0.2541484E+03  0.7818608E-02  0.1110914E+00
         21   -1    0    0  501  502  0.00000000000E+00  0.00000000000E+00  0.12555974184E+03  0.12555974184E+03  0.00000000000E+00 0. -1.
         21   -1    0    0  502  503 -0.00000000000E+00 -0.00000000000E+00 -0.59923896498E+03  0.59923896498E+03  0.00000000000E+00 0. -1.
         -6    2    1    2    0  503  0.85661514166E+02 -0.16607384980E+03 -0.37476239948E+03  0.45207918436E+03  0.17032414470E+03 0.  0.
        -24    2    3    3    0    0  0.81117532885E+02 -0.15998635442E+03 -0.21093187313E+03  0.28800530853E+03  0.79240866321E+02 0.  0.
          6    2    1    2  501    0 -0.85661514166E+02  0.16607384980E+03 -0.98916823654E+02  0.27271952245E+03  0.17225847244E+03 0.  0.
         24    2    5    5    0    0 -0.10447453553E+03  0.68448577859E+02 -0.88395943226E+02  0.17263254817E+03  0.79925074443E+02 0.  0.
          5    1    5    5  501    0  0.18813021367E+02  0.97625271946E+02 -0.10520880428E+02  0.10008697428E+03  0.47000000000E+01 0. -1.
        -11    1    6    6    0    0 -0.19964319047E+02 -0.69129865382E+01 -0.47943493618E+02  0.52392194058E+02  0.00000000000E+00 0.  1.
         12    1    6    6    0    0 -0.84510216486E+02  0.75361564397E+02 -0.40452449607E+02  0.12024035412E+03  0.00000000000E+00 0. -1.
         -5    1    3    3    0  503  0.45439812812E+01 -0.60874953805E+01 -0.16383052635E+03  0.16407387583E+03  0.47000000000E+01 0.  1.
         13    1    4    4    0    0  0.50890738666E+02 -0.99787108022E+02 -0.18409284471E+03  0.21549364186E+03  0.00000000000E+00 0. -1.
        -14    1    4    4    0    0  0.30226794219E+02 -0.60199246402E+02 -0.26839028418E+02  0.72511666665E+02  0.00000000000E+00 0.  1.
</event>
<event>
12    1  0.8251070E-002  0.1818928E+03  0.7818608E-02  0.1167163E+00
         21   -1    0    0  501  502  0.00000000000E+00  0.00000000000E+00  0.50973298480E+03  0.50973298480E+03  0.00000000000E+00 0. -1.
         21   -1    0    0  502  503 -0.00000000000E+00 -0.00000000000E+00 -0.14022319605E+03  0.14022319605E+03  0.00000000000E+00 0. -1.
         -6    2    1    2    0  503 -0.48036110155E+02 -0.32859828258E+02 -0.57249910736E+02  0.18605011976E+03  0.16718211206E+03 0.  0.
        -24    2    3    3    0    0 -0.79105867110E+02 -0.52687675897E+02 -0.43881443962E+02  0.14656240974E+03  0.10257304432E+03 0.  0.
          6    2    1    2  501    0  0.48036110155E+02  0.32859828258E+02  0.42675969949E+03  0.46390606108E+03  0.17233036937E+03 0.  0.
         24    2    5    5    0    0 -0.28738555886E+02 -0.42911598793E+01  0.11338624941E+03  0.13909911152E+03  0.75151863744E+02 0.  0.
          5    1    5    5  501    0  0.76774666041E+02  0.37150988137E+02  0.31337345008E+03  0.32480694956E+03  0.47000000000E+01 0. -1.
        -11    1    6    6    0    0 -0.11118133364E+01  0.33153688268E+02  0.37352979776E+02  0.49956463774E+02  0.00000000000E+00 0.  1.
         12    1    6    6    0    0 -0.27626742550E+02 -0.37444848148E+02  0.76033269632E+02  0.89142647749E+02  0.00000000000E+00 0. -1.
         -5    1    3    3    0  503  0.31069756955E+02  0.19827847639E+02 -0.13368466774E+02  0.39487710027E+02  0.47000000000E+01 0.  1.
         11    1    4    4    0    0 -0.33268284341E+02 -0.41808754783E+02 -0.73534609004E+02  0.90896036442E+02  0.00000000000E+00 0. -1.
        -12    1    4    4    0    0 -0.45837582770E+02 -0.10878921113E+02  0.29653165042E+02  0.55666373295E+02  0.00000000000E+00 0.  1.
</event>
<event>
12    1  0.8251070E-002  0.1783805E+03  0.7818608E-02  0.1169529E+00
         21   -1    0    0  501  502  0.00000000000E+00  0.00000000000E+00  0.14985644991E+04  0.14985644991E+04  0.00000000000E+00 0. -1.
         21   -1    0    0  502  503 -0.00000000000E+00 -0.00000000000E+00 -0.61280959608E+02  0.61280959608E+02  0.00000000000E+00 0. -1.
         -6    2    1    2    0  503 -0.31421492619E+02 -0.36460998866E+02  0.88008031444E+02  0.19890958488E+03  0.17176406703E+03 0.  0.
        -24    2    3    3    0    0 -0.23072119942E+02 -0.67960701813E+01  0.12500232836E+03  0.15053202787E+03  0.80347993321E+02 0.  0.
          6    2    1    2  501    0  0.31421492619E+02  0.36460998866E+02  0.13492755081E+04  0.13609358739E+04  0.17112960416E+03 0.  0.
         24    2    5    5    0    0 -0.38774445352E+01 -0.32237245581E+02  0.40975896184E+03  0.41823820524E+03  0.77243219378E+02 0.  0.
          5    1    5    5  501    0  0.35298937154E+02  0.68698244447E+02  0.93951654624E+03  0.94269766862E+03  0.47000000000E+01 0. -1.
        -13    1    6    6    0    0  0.23035480245E+02 -0.47456038502E+02  0.24734892590E+03  0.25291144712E+03  0.00000000000E+00 0.  1.
         14    1    6    6    0    0 -0.26912924780E+02  0.15218792921E+02  0.16241003594E+03  0.16532675812E+03  0.00000000000E+00 0. -1.
         -5    1    3    3    0  503 -0.83493726767E+01 -0.29664928685E+02 -0.36994296915E+02  0.48377557009E+02  0.47000000000E+01 0.  1.
         13    1    4    4    0    0 -0.84833174600E+01 -0.49381994279E+01 -0.10418923279E+02  0.14314553818E+02  0.00000000000E+00 0. -1.
        -14    1    4    4    0    0 -0.14588802482E+02 -0.18578707534E+01  0.13542125164E+03  0.13621747405E+03  0.00000000000E+00 0.  1.
</event>
<event>
12    1  0.8251070E-002  0.3783175E+03  0.7818608E-02  0.1051584E+00
         21   -1    0    0  503  502  0.00000000000E+00  0.00000000000E+00  0.74956603795E+03  0.74956603795E+03  0.00000000000E+00 0.  1.
         21   -1    0    0  501  503 -0.00000000000E+00 -0.00000000000E+00 -0.29876061558E+03  0.29876061558E+03  0.00000000000E+00 0. -1.
          6    2    1    2  501    0  0.27920605000E+03 -0.18827150948E+03 -0.89636440859E+02  0.38879147173E+03  0.17240051426E+03 0.  0.
         24    2    3    3    0    0  0.15295348181E+03 -0.17845545345E+03 -0.38256062366E+02  0.25205047852E+03  0.82612353478E+02 0.  0.
         -6    2    1    2    0  502 -0.27920605000E+03  0.18827150948E+03  0.54044186322E+03  0.65953518180E+03  0.17177621742E+03 0.  0.
        -24    2    5    5    0    0 -0.12507741464E+03  0.19880598268E+02  0.22612464902E+03  0.27103996129E+03  0.79313970276E+02 0.  0.
          5    1    3    3  501    0  0.12625256819E+03 -0.98160560285E+01 -0.51380378493E+02  0.13674099321E+03  0.47000000000E+01 0. -1.
        -11    1    4    4    0    0  0.71688792821E+01 -0.98821014469E+01 -0.26143495843E+02  0.28853615615E+02  0.00000000000E+00 0.  1.
         12    1    4    4    0    0  0.14578460253E+03 -0.16857335201E+03 -0.12112566523E+02  0.22319686290E+03  0.00000000000E+00 0. -1.
         -5    1    5    5    0  502 -0.15412863536E+03  0.16839091121E+03  0.31431721421E+03  0.38849522052E+03  0.47000000000E+01 0.  1.
         13    1    6    6    0    0 -0.35027448911E+02  0.44266158554E+01  0.10464856522E+02  0.36824317064E+02  0.00000000000E+00 0. -1.
        -14    1    6    6    0    0 -0.90049965727E+02  0.15453982413E+02  0.21565979249E+03  0.23421564422E+03  0.00000000000E+00 0.  1.
</event>
<event>
12    1  0.8251070E-002  0.2368810E+03  0.7818608E-02  0.1123416E+00
         21   -1    0    0  501  502  0.00000000000E+00  0.00000000000E+00  0.48443187023E+03  0.48443187023E+03  0.00000000000E+00 0.  1.
         21   -1    0    0  502  503 -0.00000000000E+00 -0.00000000000E+00 -0.12830265600E+03  0.12830265600E+03  0.00000000000E+00 0.  1.
         -6    2    1    2    0  503  0.95230463609E+02 -0.11572868439E+03  0.29169507172E+03  0.37576406305E+03  0.18344112577E+03 0.  0.
        -24    2    3    3    0    0  0.52696760820E+02 -0.46772554487E+02  0.27165935397E+03  0.29217229486E+03  0.81247921982E+02 0.  0.
          6    2    1    2  501    0 -0.95230463609E+02  0.11572868439E+03  0.64434142510E+02  0.23697046319E+03  0.17187574614E+03 0.  0.
         24    2    5    5    0    0 -0.61273364686E+02 -0.13793083617E+01  0.57653379961E+02  0.11475984468E+03  0.78035773973E+02 0.  0.
          5    1    5    5  501    0 -0.33957098923E+02  0.11710799275E+03  0.67807625495E+01  0.12221061850E+03  0.47000000000E+01 0. -1.
        -13    1    6    6    0    0 -0.35240945685E+02  0.22078376058E+02 -0.60802733207E+01  0.42027951006E+02  0.00000000000E+00 0.  1.
         14    1    6    6    0    0 -0.26032419001E+02 -0.23457684420E+02  0.63733653281E+02  0.72731893678E+02  0.00000000000E+00 0. -1.
         -5    1    3    3    0  503  0.42533702789E+02 -0.68956129903E+02  0.20035717747E+02  0.83591768194E+02  0.47000000000E+01 0.  1.
         11    1    4    4    0    0  0.82859956197E+01 -0.60326277386E+02  0.14482183918E+03  0.15710277709E+03  0.00000000000E+00 0. -1.
        -12    1    4    4    0    0  0.44410765201E+02  0.13553722899E+02  0.12683751480E+03  0.13506951777E+03  0.00000000000E+00 0.  1.
</event>
<event>
12    1  0.8251070E-002  0.3281949E+03  0.7818608E-02  0.1072137E+00
         21   -1    0    0  501  502  0.00000000000E+00  0.00000000000E+00  0.20457536962E+03  0.20457536962E+03  0.00000000000E+00 0.  1.
         21   -1    0    0  502  503 -0.00000000000E+00 -0.00000000000E+00 -0.53587292821E+03  0.53587292821E+03  0.00000000000E+00 0.  1.
         -6    2    1    2    0  503  0.27291554895E+03 -0.49989442591E+02 -0.10933449736E+03  0.34424190123E+03  0.17194944903E+03 0.  0.
        -24    2    3    3    0    0  0.16012601300E+03 -0.83132865113E+02 -0.21988046686E+02  0.19771047689E+03  0.77810957917E+02 0.  0.
          6    2    1    2  501    0 -0.27291554895E+03  0.49989442591E+02 -0.22196306123E+03  0.39620639660E+03  0.17529993418E+03 0.  0.
         24    2    5    5    0    0 -0.12659408209E+03  0.44015857356E+02 -0.19003127331E+03  0.24624845428E+03  0.81012092185E+02 0.  0.
          5    1    5    5  501    0 -0.14632146685E+03  0.59735852350E+01 -0.31931787926E+02  0.14995794231E+03  0.47000000000E+01 0. -1.
        -11    1    6    6    0    0 -0.43139858243E+02  0.18013420901E+02 -0.12543105985E+02  0.48403101239E+02  0.00000000000E+00 0.  1.
         12    1    6    6    0    0 -0.83454223851E+02  0.26002436455E+02 -0.17748816732E+03  0.19784535304E+03  0.00000000000E+00 0. -1.
         -5    1    3    3    0  503  0.11278953595E+03  0.33143422522E+02 -0.87346450671E+02  0.14653142435E+03  0.47000000000E+01 0.  1.
         11    1    4    4    0    0  0.18748179712E+02 -0.45823792545E+02  0.19347795264E+01  0.49548537593E+02  0.00000000000E+00 0. -1.
        -12    1    4    4    0    0  0.14137783329E+03 -0.37309072567E+02 -0.23922826212E+02  0.14816193929E+03  0.00000000000E+00 0.  1.
</event>
<event>
12    1  0.8251070E-002  0.2475763E+03  0.7818608E-02  0.1115255E+00
         21   -1    0    0  503  502  0.00000000000E+00  0.00000000000E+00  0.42178372475E+03  0.42178372475E+03  0.00000000000E+00 0. -1.
         21   -1    0    0  501  503 -0.00000000000E+00 -0.00000000000E+00 -0.23111982498E+03  0.23111982498E+03  0.00000000000E+00 0.  1.
          6    2    1    2  501    0  0.11932172086E+03  0.13330606586E+03 -0.10497869829E+03  0.26891362625E+03  0.17113103466E+03 0.  0.
         24    2    3    3    0    0  0.10975318737E+03  0.74731991272E+02 -0.87861980438E+01  0.15578729796E+03  0.81005260782E+02 0.  0.
         -6    2    1    2    0  502 -0.11932172086E+03 -0.13330606586E+03  0.29564259806E+03  0.38398992348E+03  0.16743815360E+03 0.  0.
        -24    2    5    5    0    0 -0.93614138199E+02 -0.17679515775E+02  0.17464877827E+03  0.21460287168E+03  0.80473751200E+02 0.  0.
          5    1    3    3  501    0  0.95685334950E+01  0.58574074592E+02 -0.96192500247E+02  0.11312632829E+03  0.47000000000E+01 0. -1.
        -11    1    4    4    0    0  0.58277316434E+02  0.74643159810E+02 -0.31111780879E+02  0.99678432103E+02  0.00000000000E+00 0.  1.
         12    1    4    4    0    0  0.51475870932E+02  0.88831462233E-01  0.22325582835E+02  0.56108865861E+02  0.00000000000E+00 0. -1.
         -5    1    5    5    0  502 -0.25707582662E+02 -0.11562655009E+03  0.12099381980E+03  0.16938705181E+03  0.47000000000E+01 0.  1.
         13    1    6    6    0    0 -0.33395842821E+02 -0.26870433034E+01  0.48921609534E+01  0.33859057256E+02  0.00000000000E+00 0. -1.
        -14    1    6    6    0    0 -0.60218295378E+02 -0.14992472472E+02  0.16975661731E+03  0.18074381442E+03  0.00000000000E+00 0.  1.
</event>
<event>
12    1  0.8251070E-002  0.2412929E+03  0.7818608E-02  0.1120680E+00
         21   -1    0    0  501  502  0.00000000000E+00  0.00000000000E+00  0.56377320113E+03  0.56377320113E+03  0.00000000000E+00 0.  1.
         21   -1    0    0  502  503 -0.00000000000E+00 -0.00000000000E+00 -0.19870269301E+03  0.19870269301E+03  0.00000000000E+00 0.  1.
         -6    2    1    2    0  503 -0.11447054633E+03  0.12533721147E+03 -0.85627907177E+02  0.25603593516E+03  0.17149151305E+03 0.  0.
        -24    2    3    3    0    0 -0.10416344386E+03  0.14132263737E+03 -0.27290569443E+02  0.19449647484E+03  0.79132753483E+02 0.  0.
          6    2    1    2  501    0  0.11447054633E+03 -0.12533721147E+03  0.45069841530E+03  0.50643995898E+03  0.15665071956E+03 0.  0.
         24    2    5    5    0    0  0.11799157617E+03 -0.63745399108E+02  0.23399760018E+03  0.28107962024E+03  0.79154204367E+02 0.  0.
          5    1    5    5  501    0 -0.35210298454E+01 -0.61591812367E+02  0.21670081512E+03  0.22536033874E+03  0.47000000000E+01 0. -1.
        -11    1    6    6    0    0 -0.79268538200E+01 -0.21198883124E+02  0.29442293182E+02  0.37135916375E+02  0.00000000000E+00 0.  1.
         12    1    6    6    0    0  0.12591842999E+03 -0.42546515983E+02  0.20455530700E+03  0.24394370386E+03  0.00000000000E+00 0. -1.
         -5    1    3    3    0  503 -0.10307102467E+02 -0.15985425899E+02 -0.58337337734E+02  0.61539460319E+02  0.47000000000E+01 0.  1.
         11    1    4    4    0    0 -0.46055705309E+01  0.30147816168E+02  0.21693731501E+02  0.37426195186E+02  0.00000000000E+00 0. -1.
        -12    1    4    4    0    0 -0.99557873329E+02  0.11117482121E+03 -0.48984300944E+02  0.15707027965E+03  0.00000000000E+00 0.  1.
</event>
<event>
12    1  0.8251070E-002  0.2504716E+03  0.7818608E-02  0.1113202E+00
         21   -1    0    0  501  502  0.00000000000E+00  0.00000000000E+00  0.58255016313E+03  0.58255016313E+03  0.00000000000E+00 0. -1.
         21   -1    0    0  502  503 -0.00000000000E+00 -0.00000000000E+00 -0.17362422085E+03  0.17362422085E+03  0.00000000000E+00 0.  1.
         -6    2    1    2    0  503 -0.11628180533E+03 -0.14169220780E+03 -0.29146568633E+02  0.25216174733E+03  0.17069822597E+03 0.  0.
        -24    2    3    3    0    0 -0.27087958706E+02 -0.13598673677E+03 -0.24195453380E+02  0.16252526916E+03  0.81258187703E+02 0.  0.
          6    2    1    2  501    0  0.11628180533E+03  0.14169220780E+03  0.43807251092E+03  0.50401263666E+03  0.16888775292E+03 0.  0.
         24    2    5    5    0    0  0.13288927740E+03  0.13815775234E+03  0.43906068124E+03  0.48636704274E+03  0.83854003327E+02 0.  0.
          5    1    5    5  501    0 -0.16607472070E+02  0.35344554632E+01 -0.98817032811E+00  0.17645593914E+02  0.47000000000E+01 0. -1.
        -11    1    6    6    0    0  0.77232990464E+02  0.24642408417E+02  0.14179241759E+03  0.16333178746E+03  0.00000000000E+00 0.  1.
         12    1    6    6    0    0  0.55656286938E+02  0.11351534392E+03  0.29726826365E+03  0.32303525528E+03  0.00000000000E+00 0. -1.
         -5    1    3    3    0  503 -0.89193846627E+02 -0.57054710354E+01 -0.49511152530E+01  0.89636478166E+02  0.47000000000E+01 0.  1.
         13    1    4    4    0    0 -0.58264518200E+01 -0.79784722002E+02  0.26118515787E+02  0.84152993248E+02  0.00000000000E+00 0. -1.
        -14    1    4    4    0    0 -0.21261506886E+02 -0.56202014765E+02 -0.50313969167E+02  0.78372275915E+02  0.00000000000E+00 0.  1.
</event>
<event>
12    1  0.8251070E-002  0.1749490E+03  0.7818608E-02  0.1173130E+00
         21   -1    0    0  501  502  0.00000000000E+00  0.00000000000E+00  0.23831151843E+03  0.23831151843E+03  0.00000000000E+00 0.  1.
         21   -1    0    0  502  503 -0.00000000000E+00 -0.00000000000E+00 -0.12838337489E+03  0.12838337489E+03  0.00000000000E+00 0.  1.
         -6    2    1    2    0  503 -0.27787610045E+01 -0.26865883749E+02  0.38913801632E+02  0.17788234741E+03  0.17145946559E+03 0.  0.
        -24    2    3    3    0    0 -0.49800111665E+02 -0.14621551635E+02  0.71908096787E+02  0.11896168381E+03  0.79292288001E+02 0.  0.
          6    2    1    2  501    0  0.27787610045E+01  0.26865883749E+02  0.71014341915E+02  0.18881254591E+03  0.17285150711E+03 0.  0.
         24    2    5    5    0    0 -0.64139169294E+02  0.11997391493E+02  0.61807219343E+02  0.11948764011E+03  0.78736226327E+02 0.  0.
          5    1    5    5  501    0  0.66917930299E+02  0.14868492255E+02  0.92071225715E+01  0.69324905795E+02  0.47000000000E+01 0. -1.
        -11    1    6    6    0    0 -0.68042628398E+02  0.72041342292E+01  0.12206516268E+02  0.69503222003E+02  0.00000000000E+00 0.  1.
         12    1    6    6    0    0  0.39034591042E+01  0.47932572642E+01  0.49600703075E+02  0.49984418109E+02  0.00000000000E+00 0. -1.
         -5    1    3    3    0  503  0.47021350660E+02 -0.12244332114E+02 -0.32994295155E+02  0.58920663605E+02  0.47000000000E+01 0.  1.
         11    1    4    4    0    0 -0.45188745096E+02 -0.90064205100E+01  0.89093436703E+02  0.10030343343E+03  0.00000000000E+00 0. -1.
        -12    1    4    4    0    0 -0.46113665691E+01 -0.56151311245E+01 -0.17185339916E+02  0.18658250379E+02  0.00000000000E+00 0.  1.
</event>
<event>
12    1  0.8251070E-002  0.4772152E+03  0.7818608E-02  0.1019946E+00
         21   -1    0    0  501  502  0.00000000000E+00  0.00000000000E+00  0.39658097778E+03  0.39658097778E+03  0.00000000000E+00 0. -1.
         21   -1    0    0  502  503 -0.00000000000E+00 -0.00000000000E+00 -0.84397834275E+03  0.84397834275E+03  0.00000000000E+00 0.  1.
         -6    2    1    2    0  503  0.44230633515E+03 -0.45079143707E+02 -0.57474179351E+03  0.74664545259E+03  0.17170986969E+03 0.  0.
        -24    2    3    3    0    0  0.15115471548E+03 -0.15705693560E+02 -0.13825070776E+03  0.22111845694E+03  0.81766111457E+02 0.  0.
          6    2    1    2  501    0 -0.44230633515E+03  0.45079143707E+02  0.12734442854E+03  0.49391386795E+03  0.17339919885E+03 0.  0.
         24    2    5    5    0    0 -0.15733214882E+03  0.69354633135E+02  0.71400481462E+02  0.20244963091E+03  0.79525807834E+02 0.  0.
          5    1    5    5  501    0 -0.28497418633E+03 -0.24275489429E+02  0.55943947083E+02  0.29146423704E+03  0.47000000000E+01 0. -1.
        -11    1    6    6    0    0 -0.78946379071E+01 -0.10912550831E+02 -0.74464391189E+01  0.15390208864E+02  0.00000000000E+00 0.  1.
         12    1    6    6    0    0 -0.14943751092E+03  0.80267183967E+02  0.78846920581E+02  0.18705942204E+03  0.00000000000E+00 0. -1.
         -5    1    3    3    0  503  0.29115161967E+03 -0.29373450147E+02 -0.43649108575E+03  0.52552699564E+03  0.47000000000E+01 0.  1.
         13    1    4    4    0    0  0.15417472261E+03 -0.18278114654E+02 -0.10452781726E+03  0.18716302826E+03  0.00000000000E+00 0. -1.
        -14    1    4    4    0    0 -0.30200071278E+01  0.25724210944E+01 -0.33722890501E+02  0.33955428683E+02  0.00000000000E+00 0.  1.
</event>
<event>
12    1  0.8251070E-002  0.1904599E+03  0.7818608E-02  0.1160013E+00
         21   -1    0    0  501  502  0.00000000000E+00  0.00000000000E+00  0.31790265827E+03  0.31790265827E+03  0.00000000000E+00 0. -1.
         21   -1    0    0  502  503 -0.00000000000E+00 -0.00000000000E+00 -0.11001588864E+03  0.11001588864E+03  0.00000000000E+00 0. -1.
         -6    2    1    2    0  503  0.36007890251E+02 -0.45784943204E+02  0.81547454611E+02  0.19936524381E+03  0.17234756715E+03 0.  0.
        -24    2    3    3    0    0 -0.30044193936E+01  0.32805892488E+02  0.12712103078E+02  0.87745911348E+02  0.80327419203E+02 0.  0.
          6    2    1    2  501    0 -0.36007890251E+02  0.45784943204E+02  0.12633931502E+03  0.22855330311E+03  0.18133438906E+03 0.  0.
         24    2    5    5    0    0  0.32313936633E+02  0.34176803723E+02  0.98654470590E+01  0.92940350742E+02  0.79550847494E+02 0.  0.
          5    1    5    5  501    0 -0.68321826884E+02  0.11608139482E+02  0.11647386796E+03  0.13561295236E+03  0.47000000000E+01 0. -1.
        -13    1    6    6    0    0 -0.11967977496E+02  0.39030323394E+02  0.22529563514E+02  0.46628101631E+02  0.00000000000E+00 0.  1.
         14    1    6    6    0    0  0.44281914129E+02 -0.48535196714E+01 -0.12664116455E+02  0.46312249111E+02  0.00000000000E+00 0. -1.
         -5    1    3    3    0  503  0.39012309645E+02 -0.78590835693E+02  0.68835351533E+02  0.11161933246E+03  0.47000000000E+01 0.  1.
         11    1    4    4    0    0 -0.89473192851E+00  0.47129147842E+02  0.36691685259E+02  0.59734720965E+02  0.00000000000E+00 0. -1.
        -12    1    4    4    0    0 -0.21096874651E+01 -0.14323255354E+02 -0.23979582181E+02  0.28011190384E+02  0.00000000000E+00 0.  1.
</event>
<event>
12    1  0.8251070E-002  0.1831276E+03  0.7818608E-02  0.1164882E+00
         21   -1    0    0  503  502  0.00000000000E+00  0.00000000000E+00  0.97233754934E+03  0.97233754934E+03  0.00000000000E+00 0.  1.
         21   -1    0    0  501  503 -0.00000000000E+00 -0.00000000000E+00 -0.66133389603E+02  0.66133389603E+02  0.00000000000E+00 0.  1.
          6    2    1    2  501    0 -0.60248501774E+02 -0.16229276374E+02  0.93805568935E+02  0.20575521946E+03  0.17216984113E+03 0.  0.
         24    2    3    3    0    0 -0.10010021473E+03 -0.13021962125E+02  0.37765342788E+02  0.13675490905E+03  0.84178735728E+02 0.  0.
         -6    2    1    2    0  502  0.60248501774E+02  0.16229276374E+02  0.81239859080E+03  0.83271571948E+03  0.17184506904E+03 0.  0.
        -24    2    5    5    0    0 -0.30539423147E+01  0.11556512456E+02  0.69216739605E+03  0.69667651799E+03  0.78227789319E+02 0.  0.
          5    1    3    3  501    0  0.39851712952E+02 -0.32073142486E+01  0.56040226148E+02  0.69000310410E+02  0.47000000000E+01 0. -1.
        -13    1    4    4    0    0 -0.98656580272E+02 -0.25910565428E+02  0.56947099655E+01  0.10216118614E+03  0.00000000000E+00 0.  1.
         14    1    4    4    0    0 -0.14436344546E+01  0.12888603303E+02  0.32070632822E+02  0.34593722915E+02  0.00000000000E+00 0. -1.
         -5    1    5    5    0  502  0.63302444088E+02  0.46727639174E+01  0.12023119475E+03  0.13603920149E+03  0.47000000000E+01 0.  1.
         13    1    6    6    0    0 -0.29053833662E+02 -0.21950874693E+02  0.28922402975E+03  0.29150729929E+03  0.00000000000E+00 0. -1.
        -14    1    6    6    0    0  0.25999891347E+02  0.33507387150E+02  0.40294336630E+03  0.40516921870E+03  0.00000000000E+00 0.  1.
</event>
<event>
12    1  0.8251070E-002  0.2249271E+03  0.7818608E-02  0.1130367E+00
         21   -1    0    0  503  502  0.00000000000E+00  0.00000000000E+00  0.15317520722E+03  0.15317520722E+03  0.00000000000E+00 0.  1.
         21   -1    0    0  501  503 -0.00000000000E+00 -0.00000000000E+00 -0.36965844896E+03  0.36965844896E+03  0.00000000000E+00 0.  1.
          6    2    1    2  501    0  0.92137733136E+02 -0.11068161386E+03 -0.22137993298E+02  0.22601391354E+03  0.17277851965E+03 0.  0.
         24    2    3    3    0    0  0.12717574506E+03 -0.84716309923E+02 -0.40935360206E+02  0.17829295074E+03  0.82232288476E+02 0.  0.
         -6    2    1    2    0  502 -0.92137733136E+02  0.11068161386E+03 -0.19434524844E+03  0.29681974263E+03  0.17202355220E+03 0.  0.
        -24    2    5    5    0    0 -0.56185614105E+02  0.13940757891E+03 -0.11565855851E+03  0.20554312403E+03  0.79245046471E+02 0.  0.
          5    1    3    3  501    0 -0.35038011928E+02 -0.25965303937E+02  0.18797366908E+02  0.47720962805E+02  0.47000000000E+01 0. -1.
        -11    1    4    4    0    0  0.32951414791E+02 -0.48033176989E+02  0.18362079477E+02  0.61074935867E+02  0.00000000000E+00 0.  1.
         12    1    4    4    0    0  0.94224330273E+02 -0.36683132934E+02 -0.59297439683E+02  0.11721801487E+03  0.00000000000E+00 0. -1.
         -5    1    5    5    0  502 -0.35952119031E+02 -0.28725965051E+02 -0.78686689929E+02  0.91276618599E+02  0.47000000000E+01 0.  1.
         13    1    6    6    0    0 -0.41801902047E+02  0.77233718133E+02 -0.19215424585E+02  0.89898157787E+02  0.00000000000E+00 0. -1.
        -14    1    6    6    0    0 -0.14383712058E+02  0.62173860778E+02 -0.96443133926E+02  0.11564496625E+03  0.00000000000E+00 0.  1.
</event>
<event>
12    1  0.8251070E-002  0.2247466E+03  0.7818608E-02  0.1130455E+00
         21   -1    0    0  501  502  0.00000000000E+00  0.00000000000E+00  0.12227758746E+03  0.12227758746E+03  0.00000000000E+00 0.  1.
         21   -1    0    0  502  503 -0.00000000000E+00 -0.00000000000E+00 -0.41600672637E+03  0.41600672637E+03  0.00000000000E+00 0. -1.
         -6    2    1    2    0  503  0.12411883123E+03  0.72721242616E+02 -0.12210209761E+03  0.25577328827E+03  0.17267654548E+03 0.  0.
        -24    2    3    3    0    0  0.34615492557E+02  0.53076372495E+02  0.10096722835E+01  0.10223056965E+03  0.80216808032E+02 0.  0.
          6    2    1    2  501    0 -0.12411883123E+03 -0.72721242616E+02 -0.17162704131E+03  0.28251102556E+03  0.17222884445E+03 0.  0.
         24    2    5    5    0    0 -0.48848830764E+02 -0.66961253694E+02 -0.24140100314E+02  0.11676049553E+03  0.78614573135E+02 0.  0.
          5    1    5    5  501    0 -0.75270000462E+02 -0.57599889217E+01 -0.14748694099E+03  0.16575053003E+03  0.47000000000E+01 0. -1.
        -11    1    6    6    0    0  0.96952494624E+01 -0.53181539858E+02 -0.99678199764E+01  0.54969368551E+02  0.00000000000E+00 0.  1.
         12    1    6    6    0    0 -0.58544080227E+02 -0.13779713837E+02 -0.14172280337E+02  0.61791126976E+02  0.00000000000E+00 0. -1.
         -5    1    3    3    0  503  0.89503338670E+02  0.19644870121E+02 -0.12311176989E+03  0.15354271862E+03  0.47000000000E+01 0.  1.
         13    1    4    4    0    0  0.29740930585E+02 -0.14087207454E+02 -0.90810171159E+01  0.34138500814E+02  0.00000000000E+00 0. -1.
        -14    1    4    4    0    0  0.48745619713E+01  0.67163579949E+02  0.10090689399E+02  0.68092068838E+02  0.00000000000E+00 0.  1.
</event>
<event>
12    1  0.8251070E-002  0.1753731E+03  0.7818608E-02  0.1172658E+00
         21   -1    0    0  503  502  0.00000000000E+00  0.00000000000E+00  0.79014495509E+02  0.79014495509E+02  0.00000000000E+00 0. -1.
         21   -1    0    0  501  503 -0.00000000000E+00 -0.00000000000E+00 -0.42665033666E+03  0.42665033666E+03  0.00000000000E+00 0. -1.
          6    2    1    2  501    0 -0.16377970278E+02 -0.87849388624E+00 -0.25075112907E+03  0.30530920123E+03  0.17340291222E+03 0.  0.
         24    2    3    3    0    0 -0.33269909295E+02 -0.46808817067E+02 -0.79064223454E+02  0.12672192355E+03  0.80680494903E+02 0.  0.
         -6    2    1    2    0  502  0.16377970278E+02  0.87849388624E+00 -0.96884712079E+02  0.20035563093E+03  0.17460447231E+03 0.  0.
        -24    2    5    5    0    0 -0.37529909872E+02 -0.35154384883E+02 -0.13794716061E+02  0.94854610402E+02  0.78503363060E+02 0.  0.
          5    1    3    3  501    0  0.16891939017E+02  0.45930323180E+02 -0.17168690562E+03  0.17858727769E+03  0.47000000000E+01 0. -1.
        -13    1    4    4    0    0 -0.13084062398E+02  0.15730212850E+02  0.39566998358E+01  0.20839571942E+02  0.00000000000E+00 0.  1.
         14    1    4    4    0    0 -0.20185846897E+02 -0.62539029917E+02 -0.83020923290E+02  0.10588235161E+03  0.00000000000E+00 0. -1.
         -5    1    5    5    0  502  0.53907880151E+02  0.36032878770E+02 -0.83089996018E+02  0.10550102053E+03  0.47000000000E+01 0.  1.
         11    1    6    6    0    0 -0.49884038773E+02 -0.49645541238E+02 -0.22540494736E+02  0.73899736076E+02  0.00000000000E+00 0. -1.
        -12    1    6    6    0    0  0.12354128901E+02  0.14491156355E+02  0.87457786747E+01  0.20954874326E+02  0.00000000000E+00 0.  1.
</event>
<event>
12    1  0.8251070E-002  0.2200995E+03  0.7818608E-02  0.1134149E+00
         21   -1    0    0  503  502  0.00000000000E+00  0.00000000000E+00  0.40313228682E+02  0.40313228682E+02  0.00000000000E+00 0. -1.
         21   -1    0    0  501  503 -0.00000000000E+00 -0.00000000000E+00 -0.14206970961E+04  0.14206970961E+04  0.00000000000E+00 0.  1.
          6    2    1    2  501    0 -0.13137370497E+03  0.35086075532E+02 -0.98581298532E+03  0.10100846682E+04  0.17307140696E+03 0.  0.
         24    2    3    3    0    0 -0.94271766543E+02  0.90262386764E+02 -0.67715032305E+03  0.69430672689E+03  0.80590362720E+02 0.  0.
         -6    2    1    2    0  502  0.13137370497E+03 -0.35086075532E+02 -0.39457088214E+03  0.45092565660E+03  0.17075621129E+03 0.  0.
        -24    2    5    5    0    0  0.16190649248E+03 -0.31263471171E+02 -0.29966498168E+03  0.35104531139E+03  0.79010078243E+02 0.  0.
          5    1    3    3  501    0 -0.37101938424E+02 -0.55176311232E+02 -0.30866266227E+03  0.31577794134E+03  0.47000000000E+01 0. -1.
        -11    1    4    4    0    0 -0.82329691327E+02  0.24131194290E+02 -0.35468631426E+03  0.36491488616E+03  0.00000000000E+00 0.  1.
         12    1    4    4    0    0 -0.11942075216E+02  0.66131192474E+02 -0.32246400879E+03  0.32939184073E+03  0.00000000000E+00 0. -1.
         -5    1    5    5    0  502 -0.30532787515E+02 -0.38226043610E+01 -0.94905900457E+02  0.99880345209E+02  0.47000000000E+01 0.  1.
         13    1    6    6    0    0  0.75601208061E+02 -0.52579328977E+01 -0.65630233173E+02  0.10025226194E+03  0.00000000000E+00 0. -1.
        -14    1    6    6    0    0  0.86305284421E+02 -0.26005538274E+02 -0.23403474851E+03  0.25079304944E+03  0.00000000000E+00 0.  1.
</event>
<event>
12    1  0.8251070E-002  0.3517538E+03  0.7818608E-02  0.1062188E+00
         21   -1    0    0  501  502  0.00000000000E+00  0.00000000000E+00  0.46396938147E+03  0.46396938147E+03  0.00000000000E+00 0.  1.
         21   -1    0    0  502  503 -0.00000000000E+00 -0.00000000000E+00 -0.38484724325E+03  0.38484724325E+03  0.00000000000E+00 0.  1.
         -6    2    1    2    0  503 -0.30572473178E+03 -0.27366322148E+02 -0.19784760930E+03  0.40110802480E+03  0.16591396519E+03 0.  0.
        -24    2    3    3    0    0 -0.75631204954E+02 -0.43834367269E+02 -0.62053445108E+02  0.13338359068E+03  0.79366373836E+02 0.  0.
          6    2    1    2  501    0  0.30572473178E+03  0.27366322148E+02  0.27696974751E+03  0.44770859991E+03  0.17179703778E+03 0.  0.
         24    2    5    5    0    0  0.12255217154E+03  0.47137938888E+02  0.64342766623E+02  0.16632731650E+03  0.79270199731E+02 0.  0.
          5    1    5    5  501    0  0.18317256025E+03 -0.19771616740E+02  0.21262698089E+03  0.28138128342E+03  0.47000000000E+01 0. -1.
        -13    1    6    6    0    0  0.76299406473E+02  0.22356851399E+02  0.78756377884E+02  0.11191065762E+03  0.00000000000E+00 0.  1.
         14    1    6    6    0    0  0.46252765066E+02  0.24781087489E+02 -0.14413611261E+02  0.54416658874E+02  0.00000000000E+00 0. -1.
         -5    1    3    3    0  503 -0.23009352683E+03  0.16468045121E+02 -0.13579416419E+03  0.26772443412E+03  0.47000000000E+01 0.  1.
         11    1    4    4    0    0 -0.46017518225E+02 -0.52284829768E+01  0.90861065678E+01  0.47196465444E+02  0.00000000000E+00 0. -1.
        -12    1    4    4    0    0 -0.29613686729E+02 -0.38605884292E+02 -0.71139551676E+02  0.86187125235E+02  0.00000000000E+00 0.  1.
</event>
<event>
12    1  0.8251070E-002  0.2601337E+03  0.7818608E-02  0.1107385E+00
         21   -1    0    0  501  502  0.00000000000E+00  0.00000000000E+00  0.10686103286E+04  0.10686103286E+04  0.00000000000E+00 0.  1.
         21   -1    0    0  502  503 -0.00000000000E+00 -0.00000000000E+00 -0.77765864661E+02  0.77765864661E+02  0.00000000000E+00 0. -1.
         -6    2    1    2    0  503 -0.17804612129E+03 -0.76267304414E+02  0.74848140773E+03  0.79239761191E+03  0.17364456404E+03 0.  0.
        -24    2    3    3    0    0 -0.49247710226E+02 -0.12019812150E+02  0.46017861789E+03  0.47012853244E+03  0.81772023361E+02 0.  0.
          6    2    1    2  501    0  0.17804612129E+03  0.76267304414E+02  0.24236305621E+03  0.35397858135E+03  0.17042259829E+03 0.  0.
         24    2    5    5    0    0  0.97549030428E+02  0.21942803138E+02  0.45127405481E+02  0.13408104840E+03  0.77096983523E+02 0.  0.
          5    1    5    5  501    0  0.80497090866E+02  0.54324501275E+02  0.19723565073E+03  0.21989753295E+03  0.47000000000E+01 0. -1.
        -13    1    6    6    0    0  0.27413668947E+01  0.13359000837E+02 -0.15943323112E+02  0.20980170344E+02  0.00000000000E+00 0.  1.
         14    1    6    6    0    0  0.94807663533E+02  0.85838023010E+01  0.61070728594E+02  0.11310087806E+03  0.00000000000E+00 0. -1.
         -5    1    3    3    0  503 -0.12879841107E+03 -0.64247492263E+02  0.28830278984E+03  0.32226907947E+03  0.47000000000E+01 0.  1.
         11    1    4    4    0    0  0.15361543956E+02  0.75459169548E+00  0.20948469620E+02  0.25988166938E+02  0.00000000000E+00 0. -1.
        -12    1    4    4    0    0 -0.64609254182E+02 -0.12774403846E+02  0.43923014827E+03  0.44414036550E+03  0.00000000000E+00 0.  1.
</event>
<event>
12    1  0.8251070E-002  0.1994040E+03  0.7818608E-02  0.1150269E+00
         21   -1    0    0  503  502  0.00000000000E+00  0.00000000000E+00  0.91627134222E+03  0.91627134222E+03  0.00000000000E+00 0. -1.
         21   -1    0    0  501  503 -0.00000000000E+00 -0.00000000000E+00 -0.50526333133E+02  0.50526333133E+02  0.00000000000E+00 0.  1.
          6    2    1    2  501    0  0.44513359865E+01 -0.10030965554E+03  0.25081644439E+03  0.32034652762E+03  0.17213706048E+03 0.  0.
         24    2    3    3    0    0  0.42179246375E+02 -0.22054031092E+02  0.60193363974E+02  0.11080754134E+03  0.79934980079E+02 0.  0.
         -6    2    1    2    0  502 -0.44513359865E+01  0.10030965554E+03  0.61492856469E+03  0.64645114773E+03  0.17227914949E+03 0.  0.
        -24    2    5    5    0    0 -0.29999448600E+02  0.10422343482E+03  0.28042842601E+03  0.31092103507E+03  0.79178890195E+02 0.  0.
          5    1    3    3  501    0 -0.37727910389E+02 -0.78255624443E+02  0.19062308042E+03  0.20953898627E+03  0.47000000000E+01 0. -1.
        -13    1    4    4    0    0 -0.19766315546E+02 -0.87780707763E+01 -0.23857194403E+01  0.21758984675E+02  0.00000000000E+00 0.  1.
         14    1    4    4    0    0  0.61945561921E+02 -0.13275960316E+02  0.62579083414E+02  0.89048556670E+02  0.00000000000E+00 0. -1.
         -5    1    5    5    0  502  0.25548112613E+02 -0.39137792882E+01  0.33450013868E+03  0.33553011266E+03  0.47000000000E+01 0.  1.
         13    1    6    6    0    0 -0.27934501005E+02  0.33240840345E+02  0.19527089980E+03  0.20004003130E+03  0.00000000000E+00 0. -1.
        -14    1    6    6    0    0 -0.20649475951E+01  0.70982594478E+02  0.85157526212E+02  0.11088100377E+03  0.00000000000E+00 0.  1.
</event>
<event>
12    1  0.8251070E-002  0.1967774E+03  0.7818608E-02  0.1152566E+00
         21   -1    0    0  501  502  0.00000000000E+00  0.00000000000E+00  0.64790279248E+02  0.64790279248E+02  0.00000000000E+00 0.  1.
         21   -1    0    0  502  503 -0.00000000000E+00 -0.00000000000E+00 -0.60787006217E+03  0.60787006217E+03  0.00000000000E+00 0.  1.
         -6    2    1    2    0  503 -0.88501689331E+02 -0.37003336776E+02 -0.31722797344E+03  0.37311003584E+03  0.17139345310E+03 0.  0.
        -24    2    3    3    0    0 -0.83052580128E+02 -0.56411873054E+02 -0.32621032431E+03  0.35054553499E+03  0.79931007277E+02 0.  0.
          6    2    1    2  501    0  0.88501689331E+02  0.37003336776E+02 -0.22585180949E+03  0.29955030558E+03  0.17181254255E+03 0.  0.
         24    2    5    5    0    0  0.99291886554E+02  0.74753273690E+02 -0.20810401268E+03  0.25620794311E+03  0.82995779140E+02 0.  0.
          5    1    5    5  501    0 -0.10790197223E+02 -0.37749936914E+02 -0.17747796805E+02  0.43342362471E+02  0.47000000000E+01 0. -1.
        -13    1    6    6    0    0  0.30801751772E+02  0.54172840687E+02 -0.41411857245E+02  0.74822366315E+02  0.00000000000E+00 0.  1.
         14    1    6    6    0    0  0.68490134782E+02  0.20580433003E+02 -0.16669215544E+03  0.18138557680E+03  0.00000000000E+00 0. -1.
         -5    1    3    3    0  503 -0.54491092029E+01  0.19408536278E+02  0.89823508737E+01  0.22564500853E+02  0.47000000000E+01 0.  1.
         11    1    4    4    0    0  0.15989507727E+02 -0.94938084370E+01 -0.53410223994E+02  0.56554829883E+02  0.00000000000E+00 0. -1.
        -12    1    4    4    0    0 -0.99042087855E+02 -0.46918064617E+02 -0.27280010032E+03  0.29399070510E+03  0.00000000000E+00 0.  1.
</event>
<event>
12    1  0.8251070E-002  0.2017002E+03  0.7818608E-02  0.1149188E+00
         21   -1    0    0  501  502  0.00000000000E+00  0.00000000000E+00  0.18976512786E+04  0.18976512786E+04  0.00000000000E+00 0. -1.
         21   -1    0    0  502  503 -0.00000000000E+00 -0.00000000000E+00 -0.26049733886E+02  0.26049733886E+02  0.00000000000E+00 0. -1.
         -6    2    1    2    0  503  0.11510336545E+03 -0.81546781754E+01  0.50446387374E+03  0.54176455426E+03  0.16034259833E+03 0.  0.
        -24    2    3    3    0    0  0.12112218008E+02 -0.39222374613E+02  0.25697675417E+03  0.27186764327E+03  0.78675680981E+02 0.  0.
          6    2    1    2  501    0 -0.11510336545E+03  0.81546781754E+01  0.13671376709E+04  0.13819364582E+04  0.16543179754E+03 0.  0.
         24    2    5    5    0    0 -0.13732025707E+03 -0.26181907702E+02  0.10683656839E+04  0.10803417274E+04  0.78680798879E+02 0.  0.
          5    1    5    5  501    0  0.22216891615E+02  0.34336585877E+02  0.29877198701E+03  0.30159473076E+03  0.47000000000E+01 0. -1.
        -13    1    6    6    0    0 -0.50952061978E+02  0.27956150025E+02  0.35361183523E+03  0.35835595287E+03  0.00000000000E+00 0.  1.
         14    1    6    6    0    0 -0.86368195087E+02 -0.54138057727E+02  0.71475384870E+03  0.72198577454E+03  0.00000000000E+00 0. -1.
         -5    1    3    3    0  503  0.10299114744E+03  0.31067696438E+02  0.24748711957E+03  0.26989691099E+03  0.47000000000E+01 0.  1.
         13    1    4    4    0    0 -0.11231013536E+02 -0.54337642908E+02  0.12155749304E+03  0.13362237543E+03  0.00000000000E+00 0. -1.
        -14    1    4    4    0    0  0.23343231544E+02  0.15115268294E+02  0.13541926113E+03  0.13824526784E+03  0.00000000000E+00 0.  1.
</event>
<event>
12    1  0.8251070E-002  0.1938577E+03  0.7818608E-02  0.1155118E+00
         21   -1    0    0  501  502  0.00000000000E+00  0.00000000000E+00  0.61848400982E+03  0.61848400982E+03  0.00000000000E+00 0.  1.
         21   -1    0    0  502  503 -0.00000000000E+00 -0.00000000000E+00 -0.60697111907E+02  0.60697111907E+02  0.00000000000E+00 0.  1.
         -6    2    1    2    0  503 -0.67531710274E+02  0.57664441508E+02  0.26754820747E+03  0.33015489017E+03  0.17185601089E+03 0.  0.
        -24    2    3    3    0    0 -0.16072522255E+02  0.89064778447E+02  0.11344631831E+03  0.16461483027E+03  0.77698870487E+02 0.  0.
          6    2    1    2  501    0  0.67531710274E+02 -0.57664441508E+02  0.29023869045E+03  0.34902623156E+03  0.17232264266E+03 0.  0.
         24    2    5    5    0    0  0.93189947085E+02 -0.32927456078E+02  0.12054283621E+03  0.17556431495E+03  0.80769237479E+02 0.  0.
          5    1    5    5  501    0 -0.25658236811E+02 -0.24736985430E+02  0.16969585424E+03  0.17346191660E+03  0.47000000000E+01 0. -1.
        -11    1    6    6    0    0  0.48222509754E+02 -0.37324053002E+02  0.18113770370E+02  0.63612923659E+02  0.00000000000E+00 0.  1.
         12    1    6    6    0    0  0.44967437331E+02  0.43965969240E+01  0.10242906584E+03  0.11195139129E+03  0.00000000000E+00 0. -1.
         -5    1    3    3    0  503 -0.51459188019E+02 -0.31400336939E+02  0.15410188916E+03  0.16554005990E+03  0.47000000000E+01 0.  1.
         13    1    4    4    0    0  0.20839585602E+02  0.57418979482E+02  0.94310413623E+02  0.11236405854E+03  0.00000000000E+00 0. -1.
        -14    1    4    4    0    0 -0.36912107857E+02  0.31645798966E+02  0.19135904688E+02  0.52250771734E+02  0.00000000000E+00 0.  1.
</event>
<event>
12    1  0.8251070E-002  0.3079771E+03  0.7818608E-02  0.1081424E+00
         21   -1    0    0  501  502  0.00000000000E+00  0.00000000000E+00  0.68999718025E+03  0.68999718025E+03  0.00000000000E+00 0.  1.
         21   -1    0    0  502  503 -0.00000000000E+00 -0.00000000000E+00 -0.13774995988E+03  0.13774995988E+03  0.00000000000E+00 0. -1.
         -6    2    1    2    0  503  0.25355185021E+03 -0.26079132531E+02  0.30542330846E+03  0.43374333880E+03  0.17286186596E+03 0.  0.
        -24    2    3    3    0    0  0.18940792027E+03  0.44097599297E+01  0.12721579510E+03  0.24184747086E+03  0.80072057527E+02 0.  0.
          6    2    1    2  501    0 -0.25355185021E+03  0.26079132531E+02  0.24682391191E+03  0.39400380133E+03  0.17131342643E+03 0.  0.
         24    2    5    5    0    0 -0.15680375008E+03  0.27805313385E+02  0.23728576187E+03  0.29665781587E+03  0.79628986163E+02 0.  0.
          5    1    5    5  501    0 -0.96748100125E+02 -0.17261808537E+01  0.95381500333E+01  0.97345985455E+02  0.47000000000E+01 0. -1.
        -13    1    6    6    0    0 -0.31190264658E+02 -0.22938283765E+02  0.81337530736E+02  0.90082136841E+02  0.00000000000E+00 0.  1.
         14    1    6    6    0    0 -0.12561348542E+03  0.50743597150E+02  0.15594823114E+03  0.20657567903E+03  0.00000000000E+00 0. -1.
         -5    1    3    3    0  503  0.64143929936E+02 -0.30488892461E+02  0.17820751336E+03  0.19189586793E+03  0.47000000000E+01 0.  1.
         13    1    4    4    0    0  0.18140991991E+02  0.13234306561E+02 -0.75997838305E+01  0.23706521778E+02  0.00000000000E+00 0. -1.
        -14    1    4    4    0    0  0.17126692828E+03 -0.88245466314E+01  0.13481557893E+03  0.21814094908E+03  0.00000000000E+00 0.  1.
</event>
<event>
12    1  0.8251070E-002  0.1839609E+03  0.7818608E-02  0.1164259E+00
         21   -1    0    0  501  502  0.00000000000E+00  0.00000000000E+00  0.14271757155E+04  0.14271757155E+04  0.00000000000E+00 0. -1.
         21   -1    0    0  502  503 -0.00000000000E+00 -0.00000000000E+00 -0.35049275067E+02  0.35049275067E+02  0.00000000000E+00 0. -1.
         -6    2    1    2    0  503  0.59672813942E+02  0.29397378489E+02  0.27918095698E+03  0.33434057147E+03  0.17151256632E+03 0.  0.
        -24    2    3    3    0    0  0.35541367343E+02  0.80873253888E+02  0.13082204897E+03  0.17539231558E+03  0.76448570178E+02 0.  0.
          6    2    1    2  501    0 -0.59672813942E+02 -0.29397378489E+02  0.11129454834E+04  0.11278844191E+04  0.17044225743E+03 0.  0.
         24    2    5    5    0    0 -0.48117473096E+02 -0.74097423558E+02  0.98057992102E+03  0.98761912742E+03  0.77774288435E+02 0.  0.
          5    1    5    5  501    0 -0.11555340845E+02  0.44700045069E+02  0.13236556242E+03  0.14026529167E+03  0.47000000000E+01 0. -1.
        -13    1    6    6    0    0  0.16265640546E+02  0.36720927257E+01  0.12763916246E+03  0.12872377838E+03  0.00000000000E+00 0.  1.
         14    1    6    6    0    0 -0.64383113643E+02 -0.77769516284E+02  0.85294075855E+03  0.85889534903E+03  0.00000000000E+00 0. -1.
         -5    1    3    3    0  503  0.24131446598E+02 -0.51475875398E+02  0.14835890801E+03  0.15894825589E+03  0.47000000000E+01 0.  1.
         11    1    4    4    0    0  0.57093396993E+02  0.43828421414E+02  0.65825655264E+02  0.97537702428E+02  0.00000000000E+00 0. -1.
        -12    1    4    4    0    0 -0.21552029650E+02  0.37044832473E+02  0.64996393705E+02  0.77854613156E+02  0.00000000000E+00 0.  1.
</event>
<event>
12    1  0.8251070E-002  0.2574824E+03  0.7818608E-02  0.1108776E+00
         21   -1    0    0  501  502  0.00000000000E+00  0.00000000000E+00  0.61263454773E+03  0.61263454773E+03  0.00000000000E+00 0.  1.
         21   -1    0    0  502  503 -0.00000000000E+00 -0.00000000000E+00 -0.26553676915E+03  0.26553676915E+03  0.00000000000E+00 0.  1.
         -6    2    1    2    0  503  0.12288674996E+03  0.14711554416E+03 -0.16484910357E+03  0.30512087668E+03  0.17081974649E+03 0.  0.
        -24    2    3    3    0    0  0.47732425681E+02  0.30252998153E+02 -0.15276604445E+02  0.10091742517E+03  0.82202942163E+02 0.  0.
          6    2    1    2  501    0 -0.12288674996E+03 -0.14711554416E+03  0.51194688215E+03  0.57305044020E+03  0.17191003525E+03 0.  0.
         24    2    5    5    0    0 -0.32334812669E+02 -0.11403043238E+03  0.40260010171E+03  0.42719747876E+03  0.79764430297E+02 0.  0.
          5    1    5    5  501    0 -0.90551937288E+02 -0.33085111778E+02  0.10934678044E+03  0.14585296144E+03  0.47000000000E+01 0. -1.
        -13    1    6    6    0    0  0.13014707404E+02 -0.88482792541E+02  0.22486900023E+03  0.24200135216E+03  0.00000000000E+00 0.  1.
         14    1    6    6    0    0 -0.45349520073E+02 -0.25547639842E+02  0.17773110148E+03  0.18519612659E+03  0.00000000000E+00 0. -1.
         -5    1    3    3    0  503  0.75154324276E+02  0.11686254601E+03 -0.14957249913E+03  0.20420345152E+03  0.47000000000E+01 0.  1.
         13    1    4    4    0    0  0.26490155646E+02  0.84493007738E+01 -0.48470174111E+02  0.55879126766E+02  0.00000000000E+00 0. -1.
        -14    1    4    4    0    0  0.21242270034E+02  0.21803697379E+02  0.33193569666E+02  0.45038298400E+02  0.00000000000E+00 0.  1.
</event>
<event>
12    1  0.8251070E-002  0.1761172E+03  0.7818608E-02  0.1171691E+00
         21   -1    0    0  501  502  0.00000000000E+00  0.00000000000E+00  0.45882489913E+03  0.45882489913E+03  0.00000000000E+00 0.  1.
         21   -1    0    0  502  503 -0.00000000000E+00 -0.00000000000E+00 -0.16328516747E+03  0.16328516747E+03  0.00000000000E+00 0.  1.
         -6    2    1    2    0  503 -0.13399688779E+02 -0.28734897443E+02 -0.90542051155E+02  0.19775595345E+03  0.17292862142E+03 0.  0.
        -24    2    3    3    0    0  0.92079418513E+01 -0.45917783043E+02  0.99064863587E+01  0.93265019830E+02  0.80043715925E+02 0.  0.
          6    2    1    2  501    0  0.13399688779E+02  0.28734897443E+02  0.38608178281E+03  0.42435411315E+03  0.17323978854E+03 0.  0.
         24    2    5    5    0    0 -0.53464815819E+02  0.33711292821E+02  0.16438963181E+03  0.19269676640E+03  0.78186667277E+02 0.  0.
          5    1    5    5  501    0  0.66864504597E+02 -0.49763953783E+01  0.22169215100E+03  0.23165734675E+03  0.47000000000E+01 0. -1.
        -13    1    6    6    0    0 -0.29818765946E+02  0.46582622251E+02  0.15435517653E+03  0.16396530127E+03  0.00000000000E+00 0.  1.
         14    1    6    6    0    0 -0.23646049873E+02 -0.12871329429E+02  0.10034455281E+02  0.28731465132E+02  0.00000000000E+00 0. -1.
         -5    1    3    3    0  503 -0.22607630630E+02  0.17182885600E+02 -0.10044853751E+03  0.10449093362E+03  0.47000000000E+01 0.  1.
         13    1    4    4    0    0 -0.18006575627E+02 -0.26588417367E+02  0.37918052901E+02  0.49688624853E+02  0.00000000000E+00 0. -1.
        -14    1    4    4    0    0  0.27214517478E+02 -0.19329365676E+02 -0.28011566543E+02  0.43576394977E+02  0.00000000000E+00 0.  1.
</event>
<event>
12    1  0.8251070E-002  0.4352820E+03  0.7818608E-02  0.1032793E+00
         21   -1    0    0  501  502  0.00000000000E+00  0.00000000000E+00  0.36419894350E+03  0.36419894350E+03  0.00000000000E+00 0. -1.
         21   -1    0    0  502  503 -0.00000000000E+00 -0.00000000000E+00 -0.58612176394E+03  0.58612176394E+03  0.00000000000E+00 0.  1.
         -6    2    1    2    0  503 -0.38547123757E+03  0.10517826139E+03  0.59623896034E+02  0.43192033038E+03  0.15280582828E+03 0.  0.
        -24    2    3    3    0    0 -0.37198903438E+03  0.80520106046E+02  0.79972066956E+02  0.39690701166E+03  0.79248439956E+02 0.  0.
          6    2    1    2  501    0  0.38547123757E+03 -0.10517826139E+03 -0.28154671647E+03  0.51840037706E+03  0.17268426597E+03 0.  0.
         24    2    5    5    0    0  0.35967123604E+03 -0.13524276775E+03 -0.27234977679E+03  0.47745909812E+03  0.78350400081E+02 0.  0.
          5    1    5    5  501    0  0.25800001528E+02  0.30064506364E+02 -0.91969396875E+01  0.40941278941E+02  0.47000000000E+01 0. -1.
        -11    1    6    6    0    0  0.11568663547E+02 -0.24126832645E+02 -0.18751936338E+02  0.32673737866E+02  0.00000000000E+00 0.  1.
         12    1    6    6    0    0  0.34810257250E+03 -0.11111593511E+03 -0.25359784045E+03  0.44478536025E+03  0.00000000000E+00 0. -1.
         -5    1    3    3    0  503 -0.13482203187E+02  0.24658155344E+02 -0.20348170923E+02  0.35013318718E+02  0.47000000000E+01 0.  1.
         13    1    4    4    0    0 -0.92156285028E+02  0.44452493134E+01  0.51138498057E+02  0.10548785283E+03  0.00000000000E+00 0. -1.
        -14    1    4    4    0    0 -0.27983274936E+03  0.76074856733E+02  0.28833568899E+02  0.29141915883E+03  0.00000000000E+00 0.  1.
</event>
<event>
12    1  0.8251070E-002  0.1827816E+03  0.7818608E-02  0.1168051E+00
         21   -1    0    0  501  502  0.00000000000E+00  0.00000000000E+00  0.36725947583E+02  0.36725947583E+02  0.00000000000E+00 0. -1.
         21   -1    0    0  502  503 -0.00000000000E+00 -0.00000000000E+00 -0.85929268744E+03  0.85929268744E+03  0.00000000000E+00 0. -1.
         -6    2    1    2    0  503 -0.12324532753E+02 -0.13490814105E+02 -0.35544200938E+03  0.39440662114E+03  0.16995194789E+03 0.  0.
        -24    2    3    3    0    0  0.54766601876E+02 -0.16710447643E+02 -0.16312819115E+03  0.19064626909E+03  0.80352805968E+02 0.  0.
          6    2    1    2  501    0  0.12324532753E+02  0.13490814105E+02 -0.46712473047E+03  0.50161201388E+03  0.18186589147E+03 0.  0.
         24    2    5    5    0    0  0.70671603493E+02 -0.27080964146E+02 -0.31412653495E+03  0.33284890272E+03  0.79906557465E+02 0.  0.
          5    1    5    5  501    0 -0.58347070740E+02  0.40571778251E+02 -0.15299819553E+03  0.16876311116E+03  0.47000000000E+01 0. -1.
        -13    1    6    6    0    0  0.81851054306E+02 -0.12457795331E+02 -0.18850156934E+03  0.20588257187E+03  0.00000000000E+00 0.  1.
         14    1    6    6    0    0 -0.11179450813E+02 -0.14623168814E+02 -0.12562496561E+03  0.12696633085E+03  0.00000000000E+00 0. -1.
         -5    1    3    3    0  503 -0.67091134629E+02  0.32196335379E+01 -0.19231381823E+03  0.20376035205E+03  0.47000000000E+01 0.  1.
         13    1    4    4    0    0  0.13076463862E+02 -0.44908792767E+02 -0.61785714617E+02  0.77493664939E+02  0.00000000000E+00 0. -1.
        -14    1    4    4    0    0  0.41690138014E+02  0.28198345124E+02 -0.10134247653E+03  0.11315260415E+03  0.00000000000E+00 0.  1.
</event>
<event>
12    1  0.8251070E-002  0.1955218E+03  0.7818608E-02  0.1153592E+00
         21   -1    0    0  503  502  0.00000000000E+00  0.00000000000E+00  0.28158706221E+04  0.28158706221E+04  0.00000000000E+00 0. -1.
         21   -1    0    0  501  503 -0.00000000000E+00 -0.00000000000E+00 -0.19374498244E+02  0.19374498244E+02  0.00000000000E+00 0. -1.
          6    2    1    2  501    0  0.59051196246E+02 -0.74692605504E+02  0.62253692042E+03  0.65251895716E+03  0.17077102525E+03 0.  0.
         24    2    3    3    0    0 -0.15130593395E+02 -0.30286097543E+02  0.41783874117E+03  0.43026165030E+03  0.96900420699E+02 0.  0.
         -6    2    1    2    0  502 -0.59051196246E+02  0.74692605504E+02  0.21739592035E+04  0.21827261632E+04  0.17067177908E+03 0.  0.
        -24    2    5    5    0    0 -0.96320599517E+02  0.53813413315E+02  0.18574684338E+04  0.18633307243E+04  0.98177718460E+02 0.  0.
          5    1    3    3  501    0  0.74181789641E+02 -0.44406507961E+02  0.20469817925E+03  0.22225730686E+03  0.47000000000E+01 0. -1.
        -11    1    4    4    0    0  0.94229558244E+01 -0.57548250227E+02  0.32927761323E+03  0.33440146497E+03  0.00000000000E+00 0.  1.
         12    1    4    4    0    0 -0.24553549220E+02  0.27262152685E+02  0.88561127938E+02  0.95860185322E+02  0.00000000000E+00 0. -1.
         -5    1    5    5    0  502  0.37269403272E+02  0.20879192189E+02  0.31649076969E+03  0.31939543889E+03  0.47000000000E+01 0.  1.
         11    1    6    6    0    0 -0.93189307931E+01  0.20593516780E+02  0.10897580459E+04  0.10899924468E+04  0.00000000000E+00 0. -1.
        -12    1    6    6    0    0 -0.87001668724E+02  0.33219896535E+02  0.76771038783E+03  0.77333827752E+03  0.00000000000E+00 0.  1.
</event>
<event>
12    1  0.8251070E-002  0.2177655E+03  0.7818608E-02  0.1137573E+00
         21   -1    0    0  503  502  0.00000000000E+00  0.00000000000E+00  0.23776014411E+02  0.23776014411E+02  0.00000000000E+00 0. -1.
         21   -1    0    0  501  503 -0.00000000000E+00 -0.00000000000E+00 -0.19435748128E+04  0.19435748128E+04  0.00000000000E+00 0. -1.
          6    2    1    2  501    0  0.20707211875E+02  0.12445840082E+03 -0.11290922587E+04  0.11499004979E+04  0.17749125103E+03 0.  0.
         24    2    3    3    0    0  0.17789399331E+02  0.44693750374E+02 -0.23844382372E+03  0.25567030501E+03  0.78726448817E+02 0.  0.
         -6    2    1    2    0  502 -0.20707211875E+02 -0.12445840082E+03 -0.79070653967E+03  0.81745032932E+03  0.16458896340E+03 0.  0.
        -24    2    5    5    0    0 -0.61722820643E+02 -0.28634130577E+02 -0.32791746067E+03  0.34304502521E+03  0.74299450099E+02 0.  0.
          5    1    3    3  501    0  0.29178125440E+01  0.79764650442E+02 -0.89064843503E+03  0.89423019291E+03  0.47000000000E+01 0. -1.
        -11    1    4    4    0    0 -0.15161818730E+02 -0.16328068661E+02 -0.46010221493E+02  0.51121688697E+02  0.00000000000E+00 0.  1.
         12    1    4    4    0    0  0.32951218061E+02  0.61021819035E+02 -0.19243360223E+03  0.20454861631E+03  0.00000000000E+00 0. -1.
         -5    1    5    5    0  502  0.41015608768E+02 -0.95824270239E+02 -0.46278907900E+03  0.47440530411E+03  0.47000000000E+01 0.  1.
         13    1    6    6    0    0 -0.22524007925E+01 -0.33310367668E+02 -0.60961318035E+02  0.69504936516E+02  0.00000000000E+00 0. -1.
        -14    1    6    6    0    0 -0.59470419850E+02  0.46762370911E+01 -0.26695614264E+03  0.27354008870E+03  0.00000000000E+00 0.  1.
</event>
<event>
12    1  0.8251070E-002  0.2510531E+03  0.7818608E-02  0.1112653E+00
         21   -1    0    0  503  502  0.00000000000E+00  0.00000000000E+00  0.10653098240E+04  0.10653098240E+04  0.00000000000E+00 0. -1.
         21   -1    0    0  501  503 -0.00000000000E+00 -0.00000000000E+00 -0.75429902891E+02  0.75429902891E+02  0.00000000000E+00 0.  1.
          6    2    1    2  501    0 -0.17999185320E+03 -0.28132147713E+02  0.22998864455E+03  0.34047386478E+03  0.17274024148E+03 0.  0.
         24    2    3    3    0    0 -0.12069856053E+02  0.29071515833E+01  0.74697031845E+02  0.10960851398E+03  0.79248008268E+02 0.  0.
         -6    2    1    2    0  502  0.17999185320E+03  0.28132147713E+02  0.75989127660E+03  0.80026586215E+03  0.17263317441E+03 0.  0.
        -24    2    5    5    0    0  0.20166015992E+03  0.40546489267E+02  0.71980831961E+03  0.75280677626E+03  0.79266559819E+02 0.  0.
          5    1    3    3  501    0 -0.16792199715E+03 -0.31039299297E+02  0.15529161270E+03  0.23086535080E+03  0.47000000000E+01 0. -1.
        -11    1    4    4    0    0 -0.72135204383E+01 -0.37999490954E+02  0.41239265430E+02  0.56539129840E+02  0.00000000000E+00 0.  1.
         12    1    4    4    0    0 -0.48563356146E+01  0.40906642537E+02  0.33457766416E+02  0.53069384138E+02  0.00000000000E+00 0. -1.
         -5    1    5    5    0  502 -0.21668306720E+02 -0.12414341553E+02  0.40082956990E+02  0.47459085889E+02  0.47000000000E+01 0.  1.
         13    1    6    6    0    0  0.11485126518E+03 -0.15657546072E+02  0.41790274167E+03  0.43368038157E+03  0.00000000000E+00 0. -1.
        -14    1    6    6    0    0  0.86808894739E+02  0.56204035339E+02  0.30190557794E+03  0.31912639469E+03  0.00000000000E+00 0.  1.
</event>
<event>
12    1  0.8251070E-002  0.2550871E+03  0.7818608E-02  0.1110293E+00
         21   -1    0    0  503  502  0.00000000000E+00  0.00000000000E+00  0.36685767782E+03  0.36685767782E+03  0.00000000000E+00 0.  1.
         21   -1    0    0  501  503 -0.00000000000E+00 -0.00000000000E+00 -0.24354911362E+03  0.24354911362E+03  0.00000000000E+00 0. -1.
          6    2    1    2  501    0  0.18053889971E+03  0.49092087482E+02 -0.98404595580E+02  0.27243319531E+03  0.17184892817E+03 0.  0.
         24    2    3    3    0    0  0.32600671350E+02  0.41589169382E+02 -0.57301858338E+00  0.94851888162E+02  0.78766043161E+02 0.  0.
         -6    2    1    2    0  502 -0.18053889971E+03 -0.49092087482E+02  0.22171315978E+03  0.33797359614E+03  0.17339290384E+03 0.  0.
        -24    2    5    5    0    0 -0.19020941857E+03 -0.36472653016E+01  0.16663059862E+03  0.26575912845E+03  0.81665369049E+02 0.  0.
          5    1    3    3  501    0  0.14793822836E+03  0.75029180996E+01 -0.97831576997E+02  0.17758130714E+03  0.47000000000E+01 0. -1.
        -11    1    4    4    0    0  0.49169916069E+02  0.27612484391E+02  0.24692487585E+02  0.61561748543E+02  0.00000000000E+00 0.  1.
         12    1    4    4    0    0 -0.16569244719E+02  0.13976684991E+02 -0.25265506169E+02  0.33290139619E+02  0.00000000000E+00 0. -1.
         -5    1    5    5    0  502  0.96705188655E+01 -0.45444822180E+02  0.55082561170E+02  0.72214467686E+02  0.47000000000E+01 0.  1.
         11    1    6    6    0    0 -0.13807481495E+03 -0.23777586283E+02  0.76293667409E+02  0.15953291766E+03  0.00000000000E+00 0. -1.
        -12    1    6    6    0    0 -0.52134603626E+02  0.20130320981E+02  0.90336931207E+02  0.10622621079E+03  0.00000000000E+00 0.  1.
</event>
<event>
12    1  0.8251070E-002  0.1967895E+03  0.7818608E-02  0.1152771E+00
         21   -1    0    0  503  502  0.00000000000E+00  0.00000000000E+00  0.16999599830E+03  0.16999599830E+03  0.00000000000E+00 0. -1.
         21   -1    0    0  501  503 -0.00000000000E+00 -0.00000000000E+00 -0.67110673680E+03  0.67110673680E+03  0.00000000000E+00 0.  1.
          6    2    1    2  501    0 -0.45085430267E+02  0.82553962684E+02 -0.59266797077E+03  0.62405701479E+03  0.17130085041E+03 0.  0.
         24    2    3    3    0    0 -0.56128828201E+01  0.11559405185E+03 -0.36791156070E+03  0.39343337471E+03  0.77700801575E+02 0.  0.
         -6    2    1    2    0  502  0.45085430267E+02 -0.82553962684E+02  0.91557232272E+02  0.21704572032E+03  0.17285330529E+03 0.  0.
        -24    2    5    5    0    0  0.62893552675E+02 -0.11494841178E+03  0.58085012418E+02  0.16695571076E+03  0.85624788160E+02 0.  0.
          5    1    3    3  501    0 -0.39472547446E+02 -0.33040089162E+02 -0.22475641007E+03  0.23062364007E+03  0.47000000000E+01 0. -1.
        -13    1    4    4    0    0 -0.29470924641E+02  0.10966751249E+02 -0.10004504153E+03  0.10487046947E+03  0.00000000000E+00 0.  1.
         14    1    4    4    0    0  0.23858041821E+02  0.10462730060E+03 -0.26786651917E+03  0.28856290524E+03  0.00000000000E+00 0. -1.
         -5    1    5    5    0  502 -0.17808122408E+02  0.32394449096E+02  0.33472219854E+02  0.50090009562E+02  0.47000000000E+01 0.  1.
         13    1    6    6    0    0  0.80831142235E+02 -0.82005201442E+02  0.27072337446E+02  0.11828540938E+03  0.00000000000E+00 0. -1.
        -14    1    6    6    0    0 -0.17937589560E+02 -0.32943210338E+02  0.31012674972E+02  0.48670301371E+02  0.00000000000E+00 0.  1.
</event>
<event>
12    1  0.8251070E-002  0.1822325E+03  0.7818608E-02  0.1166092E+00
         21   -1    0    0  503  502  0.00000000000E+00  0.00000000000E+00  0.42896349911E+03  0.42896349911E+03  0.00000000000E+00 0. -1.
         21   -1    0    0  501  503 -0.00000000000E+00 -0.00000000000E+00 -0.69509229841E+03  0.69509229841E+03  0.00000000000E+00 0. -1.
          6    2    1    2  501    0  0.37888566517E+02  0.41703320586E+02 -0.66327066108E+03  0.68784929997E+03  0.17330314252E+03 0.  0.
         24    2    3    3    0    0  0.75974487599E+02  0.56289410655E+02 -0.33450153864E+03  0.35652692331E+03  0.79243593906E+02 0.  0.
         -6    2    1    2    0  502 -0.37888566517E+02 -0.41703320586E+02  0.39714186177E+03  0.43620649755E+03  0.17140519160E+03 0.  0.
        -24    2    5    5    0    0  0.14983766218E+02 -0.23836567102E+02  0.36038745358E+03  0.36921634177E+03  0.75159132196E+02 0.  0.
          5    1    3    3  501    0 -0.38085921082E+02 -0.14586090070E+02 -0.32876912244E+03  0.33132237666E+03  0.47000000000E+01 0. -1.
        -11    1    4    4    0    0  0.24483218371E+01 -0.80262462032E+01 -0.36026909059E+00  0.83990893406E+01  0.00000000000E+00 0.  1.
         12    1    4    4    0    0  0.73526165762E+02  0.64315656859E+02 -0.33414126955E+03  0.34812783397E+03  0.00000000000E+00 0. -1.
         -5    1    5    5    0  502 -0.52872332735E+02 -0.17866753484E+02  0.36754408193E+02  0.66990155774E+02  0.47000000000E+01 0.  1.
         13    1    6    6    0    0 -0.19721944456E+02 -0.36504400348E+02  0.15110944413E+03  0.15670223497E+03  0.00000000000E+00 0. -1.
        -14    1    6    6    0    0  0.34705710674E+02  0.12667833246E+02  0.20927800945E+03  0.21251410680E+03  0.00000000000E+00 0.  1.
</event>
<event>
12    1  0.8251070E-002  0.1759352E+03  0.7818608E-02  0.1172014E+00
         21   -1    0    0  501  502  0.00000000000E+00  0.00000000000E+00  0.13881723890E+03  0.13881723890E+03  0.00000000000E+00 0.  1.
         21   -1    0    0  502  503 -0.00000000000E+00 -0.00000000000E+00 -0.75809382565E+03  0.75809382565E+03  0.00000000000E+00 0.  1.
         -6    2    1    2    0  503 -0.32301192724E+02  0.10214128334E+02 -0.68657636700E+03  0.70854317969E+03  0.17175166460E+03 0.  0.
        -24    2    3    3    0    0  0.17784106786E+02  0.11709571998E+01 -0.61721361625E+03  0.62238287931E+03  0.78039443684E+02 0.  0.
          6    2    1    2  501    0  0.32301192724E+02 -0.10214128334E+02  0.67299780247E+02  0.18836788486E+03  0.17264270664E+03 0.  0.
         24    2    5    5    0    0  0.18556952600E+02 -0.38215993888E+02 -0.21652536741E+02  0.93987731709E+02  0.80994065744E+02 0.  0.
          5    1    5    5  501    0  0.13744240123E+02  0.28001865554E+02  0.88952316988E+02  0.94380153150E+02  0.47000000000E+01 0. -1.
        -11    1    6    6    0    0  0.35011085938E+02 -0.47818962400E+02  0.68965243057E+01  0.59665663083E+02  0.00000000000E+00 0.  1.
         12    1    6    6    0    0 -0.16454133337E+02  0.96029685123E+01 -0.28549061046E+02  0.34322068626E+02  0.00000000000E+00 0. -1.
         -5    1    3    3    0  503 -0.50085299510E+02  0.90431711342E+01 -0.69362750746E+02  0.86160300384E+02  0.47000000000E+01 0.  1.
         11    1    4    4    0    0  0.19460798968E+02 -0.15190821504E+02 -0.59390014830E+02  0.64316853281E+02  0.00000000000E+00 0. -1.
        -12    1    4    4    0    0 -0.16766921828E+01  0.16361778704E+02 -0.55782360142E+03  0.55806602602E+03  0.00000000000E+00 0.  1.
</event>
<event>
12    1  0.8251070E-002  0.2350207E+03  0.7818608E-02  0.1123766E+00
         21   -1    0    0  503  502  0.00000000000E+00  0.00000000000E+00  0.88147779008E+03  0.88147779008E+03  0.00000000000E+00 0. -1.
         21   -1    0    0  501  503 -0.00000000000E+00 -0.00000000000E+00 -0.61983020717E+02  0.61983020717E+02  0.00000000000E+00 0. -1.
          6    2    1    2  501    0  0.14832123842E+03 -0.43939412115E+02  0.37592869448E+03  0.44147914937E+03  0.17219638293E+03 0.  0.
         24    2    3    3    0    0  0.13514457766E+03 -0.86989798108E+02  0.33629897507E+03  0.38131633043E+03  0.80460309289E+02 0.  0.
         -6    2    1    2    0  502 -0.14832123842E+03  0.43939412115E+02  0.44356607488E+03  0.50198166143E+03  0.17693180584E+03 0.  0.
        -24    2    5    5    0    0 -0.17025985933E+03  0.18417272160E+02  0.30057246504E+03  0.35500565940E+03  0.79734533639E+02 0.  0.
          5    1    3    3  501    0  0.13176660756E+02  0.43050385993E+02  0.39629719407E+02  0.60162818942E+02  0.47000000000E+01 0. -1.
        -13    1    4    4    0    0  0.14303401080E+03 -0.77076683991E+02  0.32837317124E+03  0.36637205550E+03  0.00000000000E+00 0.  1.
         14    1    4    4    0    0 -0.78894331413E+01 -0.99131141168E+01  0.79258038354E+01  0.14944274931E+02  0.00000000000E+00 0. -1.
         -5    1    5    5    0  502  0.21938620909E+02  0.25522139955E+02  0.14299360985E+03  0.14697600203E+03  0.47000000000E+01 0.  1.
         11    1    6    6    0    0 -0.41498289942E+02 -0.16331361621E+02  0.13630200967E+03  0.14341220060E+03  0.00000000000E+00 0. -1.
        -12    1    6    6    0    0 -0.12876156938E+03  0.34748633781E+02  0.16427045536E+03  0.21159345879E+03  0.00000000000E+00 0.  1.
</event>
<event>
12    1  0.8251070E-002  0.2155089E+03  0.7818608E-02  0.1138169E+00
         21   -1    0    0  501  502  0.00000000000E+00  0.00000000000E+00  0.11549556949E+03  0.11549556949E+03  0.00000000000E+00 0. -1.
         21   -1    0    0  502  503 -0.00000000000E+00 -0.00000000000E+00 -0.47891960780E+03  0.47891960780E+03  0.00000000000E+00 0. -1.
         -6    2    1    2    0  503 -0.10530941776E+03  0.63722282430E+02 -0.30555423648E+03  0.37127173700E+03  0.17125626563E+03 0.  0.
        -24    2    3    3    0    0 -0.99466307754E+02 -0.12973898365E+02 -0.14788122215E+03  0.19577439933E+03  0.79980567328E+02 0.  0.
          6    2    1    2  501    0  0.10530941776E+03 -0.63722282430E+02 -0.57869801822E+02  0.22314344029E+03  0.17689962756E+03 0.  0.
         24    2    5    5    0    0  0.40644006478E+02 -0.84963739803E+02 -0.85430531216E+02  0.14956016275E+03  0.78734327170E+02 0.  0.
          5    1    5    5  501    0  0.64665411285E+02  0.21241457372E+02  0.27560729394E+02  0.73583277534E+02  0.47000000000E+01 0. -1.
        -13    1    6    6    0    0  0.20626618697E+02 -0.95484934369E+02 -0.80095393027E+02  0.12632538175E+03  0.00000000000E+00 0.  1.
         14    1    6    6    0    0  0.20017387782E+02  0.10521194567E+02 -0.53351381886E+01  0.23234781002E+02  0.00000000000E+00 0. -1.
         -5    1    3    3    0  503 -0.58431100095E+01  0.76696180795E+02 -0.15767301433E+03  0.17549733768E+03  0.47000000000E+01 0.  1.
         13    1    4    4    0    0 -0.60562941657E+01 -0.16113569453E+02 -0.75840314568E+02  0.77769397152E+02  0.00000000000E+00 0. -1.
        -14    1    4    4    0    0 -0.93410013588E+02  0.31396710887E+01 -0.72040907583E+02  0.11800500218E+03  0.00000000000E+00 0.  1.
</event>
<event>
12    1  0.8251070E-002  0.2312484E+03  0.7818608E-02  0.1126225E+00
         21   -1    0    0  501  502  0.00000000000E+00  0.00000000000E+00  0.29024935646E+03  0.29024935646E+03  0.00000000000E+00 0.  1.
         21   -1    0    0  502  503 -0.00000000000E+00 -0.00000000000E+00 -0.25073316598E+03  0.25073316598E+03  0.00000000000E+00 0. -1.
         -6    2    1    2    0  503  0.37960186018E+02  0.15026469847E+03 -0.12161550893E+03  0.26127788642E+03  0.17162560004E+03 0.  0.
        -24    2    3    3    0    0 -0.19831365181E+02  0.10294664044E+03 -0.13847322590E+03  0.18456325530E+03  0.62429697208E+02 0.  0.
          6    2    1    2  501    0 -0.37960186018E+02 -0.15026469847E+03  0.16113169941E+03  0.27970463603E+03  0.16807975349E+03 0.  0.
         24    2    5    5    0    0 -0.30277546059E+02 -0.39067209846E+02  0.86072493784E+01  0.90734526515E+02  0.75602201552E+02 0.  0.
          5    1    5    5  501    0 -0.76826399582E+01 -0.11119748863E+03  0.15252445003E+03  0.18897010951E+03  0.47000000000E+01 0. -1.
        -13    1    6    6    0    0 -0.48149315201E+02 -0.35162128085E+02  0.26409330884E+02  0.65208776737E+02  0.00000000000E+00 0.  1.
         14    1    6    6    0    0  0.17871769142E+02 -0.39050817614E+01 -0.17802081505E+02  0.25525749778E+02  0.00000000000E+00 0. -1.
         -5    1    3    3    0  503  0.57791551198E+02  0.47318058031E+02  0.16857716969E+02  0.76714631116E+02  0.47000000000E+01 0.  1.
         13    1    4    4    0    0  0.23670201883E+01  0.60053473635E+02 -0.33013771102E+02  0.68570631924E+02  0.00000000000E+00 0. -1.
        -14    1    4    4    0    0 -0.22198385369E+02  0.42893166805E+02 -0.10545945480E+03  0.11599262338E+03  0.00000000000E+00 0.  1.
</event>
<event>
12    1  0.8251070E-002  0.2182065E+03  0.7818608E-02  0.1135255E+00
         21   -1    0    0  503  502  0.00000000000E+00  0.00000000000E+00  0.11561559894E+03  0.11561559894E+03  0.00000000000E+00 0. -1.
         21   -1    0    0  501  503 -0.00000000000E+00 -0.00000000000E+00 -0.14170015810E+04  0.14170015810E+04  0.00000000000E+00 0.  1.
          6    2    1    2  501    0 -0.13239615729E+03 -0.21694439768E+02 -0.12961327489E+04  0.13143474819E+04  0.17190057898E+03 0.  0.
         24    2    3    3    0    0 -0.12997079413E+03 -0.46835915185E+02 -0.12598171493E+04  0.12698627772E+04  0.79537494069E+02 0.  0.
         -6    2    1    2    0  502  0.13239615729E+03  0.21694439768E+02 -0.52532331215E+01  0.21826969807E+03  0.17208914392E+03 0.  0.
        -24    2    5    5    0    0  0.15930306173E+03  0.34350242611E+02  0.14936305281E+02  0.18202251456E+03  0.79697540419E+02 0.  0.
          5    1    3    3  501    0 -0.24253631663E+01  0.25141475417E+02 -0.36315599611E+02  0.44484704649E+02  0.47000000000E+01 0. -1.
        -13    1    4    4    0    0 -0.42960961115E+01 -0.28731317450E+02 -0.35396996655E+03  0.35516007977E+03  0.00000000000E+00 0.  1.
         14    1    4    4    0    0 -0.12567469802E+03 -0.18104597735E+02 -0.90584718277E+03  0.91470269745E+03  0.00000000000E+00 0. -1.
         -5    1    5    5    0  502 -0.26906904430E+02 -0.12655802843E+02 -0.20189538402E+02  0.36247183512E+02  0.47000000000E+01 0.  1.
         13    1    6    6    0    0  0.19519138847E+02 -0.45289319264E-01  0.31564143914E+02  0.37111912016E+02  0.00000000000E+00 0. -1.
        -14    1    6    6    0    0  0.13978392288E+03  0.34395531931E+02 -0.16627838634E+02  0.14491060254E+03  0.00000000000E+00 0.  1.
</event>
<event>
12    1  0.8251070E-002  0.1881019E+03  0.7818608E-02  0.1160558E+00
         21   -1    0    0  501  502  0.00000000000E+00  0.00000000000E+00  0.38108574988E+02  0.38108574988E+02  0.00000000000E+00 0. -1.
         21   -1    0    0  502  503 -0.00000000000E+00 -0.00000000000E+00 -0.10700223819E+04  0.10700223819E+04  0.00000000000E+00 0. -1.
         -6    2    1    2    0  503  0.45241189550E+02  0.73963340993E+02 -0.31073472727E+03  0.36323324622E+03  0.16692806650E+03 0.  0.
        -24    2    3    3    0    0  0.76141564446E+02  0.97318389313E+02 -0.26953911275E+03  0.30649295977E+03  0.77577022053E+02 0.  0.
          6    2    1    2  501    0 -0.45241189550E+02 -0.73963340993E+02 -0.72117907962E+03  0.74489771065E+03  0.16509389268E+03 0.  0.
         24    2    5    5    0    0 -0.87531566747E+02 -0.79850313308E+02 -0.49218416909E+03  0.51190867336E+03  0.75943306793E+02 0.  0.
          5    1    5    5  501    0  0.42290377197E+02  0.58869723151E+01 -0.22899491053E+03  0.23298903729E+03  0.47000000000E+01 0. -1.
        -11    1    6    6    0    0  0.31690854491E+00 -0.27729856871E+02 -0.42343025614E+02  0.50615977826E+02  0.00000000000E+00 0.  1.
         12    1    6    6    0    0 -0.87848475292E+02 -0.52120456437E+02 -0.44984114347E+03  0.46129269553E+03  0.00000000000E+00 0. -1.
         -5    1    3    3    0  503 -0.30900374896E+02 -0.23355048320E+02 -0.41195614517E+02  0.56740286447E+02  0.47000000000E+01 0.  1.
         13    1    4    4    0    0  0.51385527802E+02  0.19546699409E+02 -0.16467795407E+03  0.17361271405E+03  0.00000000000E+00 0. -1.
        -14    1    4    4    0    0  0.24756036644E+02  0.77771689905E+02 -0.10486115868E+03  0.13288024572E+03  0.00000000000E+00 0.  1.
</event>
<event>
12    1  0.8251070E-002  0.1987959E+03  0.7818608E-02  0.1151112E+00
         21   -1    0    0  503  502  0.00000000000E+00  0.00000000000E+00  0.13170366945E+03  0.13170366945E+03  0.00000000000E+00 0.  1.
         21   -1    0    0  501  503 -0.00000000000E+00 -0.00000000000E+00 -0.33739615823E+03  0.33739615823E+03  0.00000000000E+00 0. -1.
          6    2    1    2  501    0  0.97983380517E+02  0.12689981543E+02 -0.22647413643E+02  0.20008175789E+03  0.17250514776E+03 0.  0.
         24    2    3    3    0    0  0.66093383116E+02 -0.56347436958E+02  0.53498326837E+01  0.11890865342E+03  0.81038745079E+02 0.  0.
         -6    2    1    2    0  502 -0.97983380517E+02 -0.12689981543E+02 -0.18304507514E+03  0.26901806980E+03  0.17059731492E+03 0.  0.
        -24    2    5    5    0    0 -0.52145886537E+02  0.21483638458E+01 -0.16333969001E+02  0.95421021272E+02  0.78195676397E+02 0.  0.
          5    1    3    3  501    0  0.31889997400E+02  0.69037418501E+02 -0.27997246326E+02  0.81173104471E+02  0.47000000000E+01 0. -1.
        -13    1    4    4    0    0  0.36404252879E+02  0.14008345627E+02  0.15299695687E+02  0.41899690488E+02  0.00000000000E+00 0.  1.
         14    1    4    4    0    0  0.29689130237E+02 -0.70355782585E+02 -0.99498630037E+01  0.77008962928E+02  0.00000000000E+00 0. -1.
         -5    1    5    5    0  502 -0.45837493979E+02 -0.14838345389E+02 -0.16671110614E+03  0.17359704853E+03  0.47000000000E+01 0.  1.
         13    1    6    6    0    0 -0.41012040343E+02  0.35261248595E+02 -0.24760276611E+02  0.59484572819E+02  0.00000000000E+00 0. -1.
        -14    1    6    6    0    0 -0.11133846194E+02 -0.33112884749E+02  0.84263076104E+01  0.35936448453E+02  0.00000000000E+00 0.  1.
</event>
<event>
12    1  0.8251070E-002  0.2406213E+03  0.7818608E-02  0.1119538E+00
         21   -1    0    0  503  502  0.00000000000E+00  0.00000000000E+00  0.12408933512E+04  0.12408933512E+04  0.00000000000E+00 0.  1.
         21   -1    0    0  501  503 -0.00000000000E+00 -0.00000000000E+00 -0.15337763718E+03  0.15337763718E+03  0.00000000000E+00 0. -1.
          6    2    1    2  501    0 -0.37470160428E+02  0.16147515181E+03 -0.38579852466E+02  0.24275465979E+03  0.17309876446E+03 0.  0.
         24    2    3    3    0    0 -0.57803423940E+02  0.55661432394E+02 -0.68960485718E+02  0.13070530594E+03  0.76739152556E+02 0.  0.
         -6    2    1    2    0  502  0.37470160428E+02 -0.16147515181E+03  0.11260955665E+04  0.11515163286E+04  0.17441442763E+03 0.  0.
        -24    2    5    5    0    0  0.14267067725E+02 -0.18584123212E+03  0.87393139069E+03  0.89707389711E+03  0.79025239416E+02 0.  0.
          5    1    3    3  501    0  0.20333263512E+02  0.10581371941E+03  0.30380633252E+02  0.11204935385E+03  0.47000000000E+01 0. -1.
        -13    1    4    4    0    0 -0.28400014098E+02 -0.14447334989E+02 -0.69858516881E+01  0.32620368067E+02  0.00000000000E+00 0.  1.
         14    1    4    4    0    0 -0.29403409842E+02  0.70108767382E+02 -0.61974634030E+02  0.98084937872E+02  0.00000000000E+00 0. -1.
         -5    1    5    5    0  502  0.23203092702E+02  0.24366080311E+02  0.25216417583E+03  0.25444243151E+03  0.47000000000E+01 0.  1.
         13    1    6    6    0    0 -0.30227092352E+02 -0.99575954077E+02  0.40082801742E+03  0.41411610364E+03  0.00000000000E+00 0. -1.
        -14    1    6    6    0    0  0.44494160077E+02 -0.86265278042E+02  0.47310337326E+03  0.48295779347E+03  0.00000000000E+00 0.  1.
</event>
<event>
12    1  0.8251070E-002  0.2241128E+03  0.7818608E-02  0.1132066E+00
         21   -1    0    0  501  502  0.00000000000E+00  0.00000000000E+00  0.36261835646E+03  0.36261835646E+03  0.00000000000E+00 0. -1.
         21   -1    0    0  502  503 -0.00000000000E+00 -0.00000000000E+00 -0.18813034368E+03  0.18813034368E+03  0.00000000000E+00 0. -1.
         -6    2    1    2    0  503  0.95180944465E+02 -0.10651880498E+03 -0.58864800650E+02  0.23171451880E+03  0.17268724754E+03 0.  0.
        -24    2    3    3    0    0  0.46594066820E+02 -0.11158046235E+03  0.12089319644E+02  0.14544237821E+03  0.79913247264E+02 0.  0.
          6    2    1    2  501    0 -0.95180944465E+02  0.10651880498E+03  0.23335281343E+03  0.31903418134E+03  0.16408414099E+03 0.  0.
         24    2    5    5    0    0 -0.90503825635E+02  0.19203711958E+02  0.92702082817E+02  0.15335220003E+03  0.79771524287E+02 0.  0.
          5    1    5    5  501    0 -0.46771188308E+01  0.87315093022E+02  0.14065073061E+03  0.16568198131E+03  0.47000000000E+01 0. -1.
        -11    1    6    6    0    0 -0.45741083344E+02  0.49967906759E+02  0.48312248869E+02  0.83205239030E+02  0.00000000000E+00 0.  1.
         12    1    6    6    0    0 -0.44762742291E+02 -0.30764194801E+02  0.44389833948E+02  0.70146960997E+02  0.00000000000E+00 0. -1.
         -5    1    3    3    0  503  0.48586877646E+02  0.50616573746E+01 -0.70954120294E+02  0.86272140587E+02  0.47000000000E+01 0.  1.
         13    1    4    4    0    0  0.56314118930E+02 -0.56173640282E+02  0.32046817077E+02  0.85754045608E+02  0.00000000000E+00 0. -1.
        -14    1    4    4    0    0 -0.97200521100E+01 -0.55406822073E+02 -0.19957497433E+02  0.59688332604E+02  0.00000000000E+00 0.  1.
</event>
<event>
12    1  0.8251070E-002  0.1885569E+03  0.7818608E-02  0.1160205E+00
         21   -1    0    0  503  502  0.00000000000E+00  0.00000000000E+00  0.36707395075E+03  0.36707395075E+03  0.00000000000E+00 0. -1.
         21   -1    0    0  501  503 -0.00000000000E+00 -0.00000000000E+00 -0.16751841704E+03  0.16751841704E+03  0.00000000000E+00 0.  1.
          6    2    1    2  501    0  0.16927374191E+02 -0.70392021822E+02 -0.75303764767E+02  0.20127371462E+03  0.17204324595E+03 0.  0.
         24    2    3    3    0    0  0.66816825510E+01 -0.10514649794E+03 -0.18420215353E+02  0.13366693980E+03  0.80169293076E+02 0.  0.
         -6    2    1    2    0  502 -0.16927374191E+02  0.70392021822E+02  0.27485929847E+03  0.33331865316E+03  0.17410375601E+03 0.  0.
        -24    2    5    5    0    0  0.12707467551E+02  0.11124734026E+03  0.15755567114E+03  0.20553128338E+03  0.69870369226E+02 0.  0.
          5    1    3    3  501    0  0.10245691640E+02  0.34754476117E+02 -0.56883549413E+02  0.67606774818E+02  0.47000000000E+01 0. -1.
        -13    1    4    4    0    0 -0.24726367505E+02 -0.95200373336E+02 -0.21155045362E+02  0.10060835093E+03  0.00000000000E+00 0.  1.
         14    1    4    4    0    0  0.31408050056E+02 -0.99461246034E+01  0.27348300089E+01  0.33058588871E+02  0.00000000000E+00 0. -1.
         -5    1    5    5    0  502 -0.29634841742E+02 -0.40855318437E+02  0.11730362734E+03  0.12778736978E+03  0.47000000000E+01 0.  1.
         13    1    6    6    0    0  0.50782702149E+01 -0.29121052356E+01  0.43802649792E+02  0.44192095606E+02  0.00000000000E+00 0. -1.
        -14    1    6    6    0    0  0.76291973361E+01  0.11415944549E+03  0.11375302134E+03  0.16133918778E+03  0.00000000000E+00 0.  1.
</event>
<event>
12    1  0.8251070E-002  0.1949101E+03  0.7818608E-02  0.1154254E+00
         21   -1    0    0  503  502  0.00000000000E+00  0.00000000000E+00  0.85224804395E+02  0.85224804395E+02  0.00000000000E+00 0. -1.
         21   -1    0    0  501  503 -0.00000000000E+00 -0.00000000000E+00 -0.55564051507E+03  0.55564051507E+03  0.00000000000E+00 0. -1.
          6    2    1    2  501    0  0.91351409656E+02 -0.36002250336E+01 -0.37903082979E+03  0.42620923829E+03  0.17213919717E+03 0.  0.
         24    2    3    3    0    0 -0.29837816379E+01  0.97852892498E+01 -0.83366874930E+02  0.11553647715E+03  0.79334651178E+02 0.  0.
         -6    2    1    2    0  502 -0.91351409656E+02  0.36002250336E+01 -0.91384880880E+02  0.21465608117E+03  0.17137092830E+03 0.  0.
        -24    2    5    5    0    0 -0.45867879495E+02 -0.63452227475E+02 -0.78021593677E+02  0.13240372347E+03  0.72892587878E+02 0.  0.
          5    1    3    3  501    0  0.94335191294E+02 -0.13385514283E+02 -0.29566395486E+03  0.31067276114E+03  0.47000000000E+01 0. -1.
        -13    1    4    4    0    0  0.35729884517E+02  0.17193964914E+02 -0.50557989378E+02  0.64252372462E+02  0.00000000000E+00 0.  1.
         14    1    4    4    0    0 -0.38713666155E+02 -0.74086756641E+01 -0.32808885552E+02  0.51284104686E+02  0.00000000000E+00 0. -1.
         -5    1    5    5    0  502 -0.45483530161E+02  0.67052452508E+02 -0.13363287203E+02  0.82252357706E+02  0.47000000000E+01 0.  1.
         11    1    6    6    0    0 -0.30191559431E+02 -0.37670958631E+02  0.50550083321E+00  0.48279259689E+02  0.00000000000E+00 0. -1.
        -12    1    6    6    0    0 -0.15676320064E+02 -0.25781268844E+02 -0.78527094510E+02  0.84124463779E+02  0.00000000000E+00 0.  1.
</event>
<event>
12    1  0.8251070E-002  0.1750902E+03  0.7818608E-02  0.1172762E+00
         21   -1    0    0  501  502  0.00000000000E+00  0.00000000000E+00  0.13290835555E+03  0.13290835555E+03  0.00000000000E+00 0. -1.
         21   -1    0    0  502  503 -0.00000000000E+00 -0.00000000000E+00 -0.34003450175E+03  0.34003450175E+03  0.00000000000E+00 0. -1.
         -6    2    1    2    0  503  0.42397676245E+01  0.29181277804E+02 -0.23796939538E+03  0.29515675222E+03  0.17210041440E+03 0.  0.
        -24    2    3    3    0    0 -0.96624846271E+00  0.44049568480E+01 -0.24087161413E+02  0.79730039177E+02  0.75870616983E+02 0.  0.
          6    2    1    2  501    0 -0.42397676245E+01 -0.29181277804E+02  0.30843249181E+02  0.17778610508E+03  0.17258931177E+03 0.  0.
         24    2    5    5    0    0 -0.52914319702E+02 -0.37860672870E+02  0.60185601713E+02  0.12010068603E+03  0.81046359278E+02 0.  0.
          5    1    5    5  501    0  0.48674552078E+02  0.86793950664E+01 -0.29342352532E+02  0.57685419048E+02  0.47000000000E+01 0. -1.
        -11    1    6    6    0    0  0.62612935549E+01 -0.39348284664E+02  0.68612659587E+01  0.40429794379E+02  0.00000000000E+00 0.  1.
         12    1    6    6    0    0 -0.59175613257E+02  0.14876117940E+01  0.53324335754E+02  0.79670891653E+02  0.00000000000E+00 0. -1.
         -5    1    3    3    0  503  0.52060160872E+01  0.24776320956E+02 -0.21388223397E+03  0.21542671304E+03  0.47000000000E+01 0.  1.
         13    1    4    4    0    0 -0.15548613630E+02 -0.78886684421E+01 -0.46875636030E+02  0.50013155558E+02  0.00000000000E+00 0. -1.
        -14    1    4    4    0    0  0.14582365167E+02  0.12293625290E+02  0.22788474618E+02  0.29716883619E+02  0.00000000000E+00 0.  1.
</event>
<event>
12    1  0.8251070E-002  0.1996812E+03  0.7818608E-02  0.1150065E+00
         21   -1    0    0  501  502  0.00000000000E+00  0.00000000000E+00  0.10822120937E+03  0.10822120937E+03  0.00000000000E+00 0.  1.
         21   -1    0    0  502  503 -0.00000000000E+00 -0.00000000000E+00 -0.46169496843E+03  0.46169496843E+03  0.00000000000E+00 0.  1.
         -6    2    1    2    0  503 -0.92990944771E+02  0.43824346016E+02 -0.30524272348E+03  0.36475432497E+03  0.17118618003E+03 0.  0.
        -24    2    3    3    0    0 -0.30713031707E+00  0.25169785263E+02 -0.69935777064E+02  0.11112126102E+03  0.82603325096E+02 0.  0.
          6    2    1    2  501    0  0.92990944771E+02 -0.43824346016E+02 -0.48231035578E+02  0.20516185283E+03  0.17087206896E+03 0.  0.
         24    2    5    5    0    0  0.99166638257E+02 -0.70447951375E+02 -0.77600085555E+02  0.16476894938E+03  0.79561909272E+02 0.  0.
          5    1    5    5  501    0 -0.61756934853E+01  0.26623605359E+02  0.29369049977E+02  0.40392903447E+02  0.47000000000E+01 0. -1.
        -13    1    6    6    0    0  0.24946965920E+02 -0.28626309667E+01  0.14108566216E+02  0.28802732602E+02  0.00000000000E+00 0.  1.
         14    1    6    6    0    0  0.74219672336E+02 -0.67585320408E+02 -0.91708651771E+02  0.13596621678E+03  0.00000000000E+00 0. -1.
         -5    1    3    3    0  503 -0.92683814454E+02  0.18654560753E+02 -0.23530694642E+03  0.25363306396E+03  0.47000000000E+01 0.  1.
         13    1    4    4    0    0 -0.37195042662E+02  0.23082105965E+02 -0.17878522065E+02  0.47285265840E+02  0.00000000000E+00 0. -1.
        -14    1    4    4    0    0  0.36887912345E+02  0.20876792981E+01 -0.52057254999E+02  0.63835995175E+02  0.00000000000E+00 0.  1.
</event>
<event>
12    1  0.8251070E-002  0.2186423E+03  0.7818608E-02  0.1135015E+00
         21   -1    0    0  503  502  0.00000000000E+00  0.00000000000E+00  0.53005742859E+03  0.53005742859E+03  0.00000000000E+00 0. -1.
         21   -1    0    0  501  503 -0.00000000000E+00 -0.00000000000E+00 -0.10937485627E+03  0.10937485627E+03  0.00000000000E+00 0. -1.
          6    2    1    2  501    0  0.65035648753E+02 -0.11431963587E+03  0.75793316597E+02  0.23140677454E+03  0.17465925028E+03 0.  0.
         24    2    3    3    0    0  0.10394262533E+03 -0.10287680651E+03  0.89142356039E+02  0.18845356716E+03  0.78617305067E+02 0.  0.
         -6    2    1    2    0  502 -0.65035648753E+02  0.11431963587E+03  0.34488925573E+03  0.40802551033E+03  0.17388963053E+03 0.  0.
        -24    2    5    5    0    0  0.21581698540E+02  0.95949989504E+02  0.23098577327E+03  0.26367835214E+03  0.80620566465E+02 0.  0.
          5    1    3    3  501    0 -0.38906976577E+02 -0.11442829355E+02 -0.13349039442E+02  0.42953207378E+02  0.47000000000E+01 0. -1.
        -13    1    4    4    0    0  0.79200425321E+02 -0.26672631481E+02  0.29704349015E+02  0.88693207133E+02  0.00000000000E+00 0.  1.
         14    1    4    4    0    0  0.24742200009E+02 -0.76204175031E+02  0.59438007024E+02  0.99760360026E+02  0.00000000000E+00 0. -1.
         -5    1    5    5    0  502 -0.86617347293E+02  0.18369646362E+02  0.11390348245E+03  0.14434715818E+03  0.47000000000E+01 0.  1.
         13    1    6    6    0    0 -0.23448684305E+02  0.29630161549E+02  0.12626516937E+03  0.13179787656E+03  0.00000000000E+00 0. -1.
        -14    1    6    6    0    0  0.45030382845E+02  0.66319827956E+02  0.10472060391E+03  0.13188047559E+03  0.00000000000E+00 0.  1.
</event>
<event>
12    1  0.8251070E-002  0.2408704E+03  0.7818608E-02  0.1119516E+00
         21   -1    0    0  501  502  0.00000000000E+00  0.00000000000E+00  0.26156037934E+04  0.26156037934E+04  0.00000000000E+00 0.  1.
         21   -1    0    0  502  503 -0.00000000000E+00 -0.00000000000E+00 -0.15820095463E+03  0.15820095463E+03  0.00000000000E+00 0.  1.
         -6    2    1    2    0  503  0.71340647362E+01 -0.16584088616E+03 -0.57440605996E+02  0.24762462061E+03  0.17454064029E+03 0.  0.
        -24    2    3    3    0    0  0.69311581296E+01 -0.18536195897E+03 -0.81458147454E+02  0.21631893818E+03  0.75837698022E+02 0.  0.
          6    2    1    2  501    0 -0.71340647362E+01  0.16584088616E+03  0.25148434447E+04  0.25261801274E+04  0.17203020116E+03 0.  0.
         24    2    5    5    0    0 -0.40901870116E+01  0.27932761472E+02  0.63604857808E+03  0.64232234163E+03  0.84989576272E+02 0.  0.
          5    1    5    5  501    0 -0.30438777246E+01  0.13790812468E+03  0.18787948666E+04  0.18838577858E+04  0.47000000000E+01 0. -1.
        -11    1    6    6    0    0 -0.37816737485E+02 -0.66821784286E+01  0.36341106535E+03  0.36543448053E+03  0.00000000000E+00 0.  1.
         12    1    6    6    0    0  0.33726550473E+02  0.34614939901E+02  0.27263751273E+03  0.27688786109E+03  0.00000000000E+00 0. -1.
         -5    1    3    3    0  503  0.20290660658E+00  0.19521072812E+02  0.24017541458E+02  0.31305682432E+02  0.47000000000E+01 0.  1.
         11    1    4    4    0    0 -0.14124025235E+02 -0.43512787665E+00 -0.36984666253E+01  0.14606713542E+02  0.00000000000E+00 0. -1.
        -12    1    4    4    0    0  0.21055183365E+02 -0.18492683109E+03 -0.77759680828E+02  0.20171222463E+03  0.00000000000E+00 0.  1.
</event>
<event>
12    1  0.8251070E-002  0.1769420E+03  0.7818608E-02  0.1171050E+00
         21   -1    0    0  503  502  0.00000000000E+00  0.00000000000E+00  0.38740644612E+03  0.38740644612E+03  0.00000000000E+00 0.  1.
         21   -1    0    0  501  503 -0.00000000000E+00 -0.00000000000E+00 -0.84853788911E+02  0.84853788911E+02  0.00000000000E+00 0.  1.
          6    2    1    2  501    0 -0.39366946833E+02  0.14208230077E+02  0.20527279736E+03  0.27033981601E+03  0.17086563283E+03 0.  0.
         24    2    3    3    0    0 -0.72695612372E+02 -0.18098223464E+02  0.81870454214E+02  0.13841280900E+03  0.82723253505E+02 0.  0.
         -6    2    1    2    0  502  0.39366946833E+02 -0.14208230077E+02  0.97279859845E+02  0.20192041901E+03  0.17192106962E+03 0.  0.
        -24    2    5    5    0    0  0.87876182757E+02 -0.19328607287E+02  0.93836213204E+02  0.15279493749E+03  0.80282248714E+02 0.  0.
          5    1    3    3  501    0  0.33328665539E+02  0.32306453541E+02  0.12340234315E+03  0.13192700702E+03  0.47000000000E+01 0. -1.
        -11    1    4    4    0    0 -0.15406839120E+02  0.25435828122E+02  0.53221425853E+02  0.60966156297E+02  0.00000000000E+00 0.  1.
         12    1    4    4    0    0 -0.57288773252E+02 -0.43534051586E+02  0.28649028361E+02  0.77446652699E+02  0.00000000000E+00 0. -1.
         -5    1    5    5    0  502 -0.48509235923E+02  0.51203772097E+01  0.34436466402E+01  0.49125481522E+02  0.47000000000E+01 0.  1.
         13    1    6    6    0    0  0.80930586766E+02 -0.25645965767E+02  0.10702331850E+03  0.13660697690E+03  0.00000000000E+00 0. -1.
        -14    1    6    6    0    0  0.69455959901E+01  0.63173584795E+01 -0.13187105300E+02  0.16187960588E+02  0.00000000000E+00 0.  1.
</event>
<event>
12    1  0.8251070E-002  0.1916352E+03  0.7818608E-02  0.1157174E+00
         21   -1    0    0  503  502  0.00000000000E+00  0.00000000000E+00  0.68951566768E+02  0.68951566768E+02  0.00000000000E+00 0. -1.
         21   -1    0    0  501  503 -0.00000000000E+00 -0.00000000000E+00 -0.76482532862E+03  0.76482532862E+03  0.00000000000E+00 0. -1.
          6    2    1    2  501    0  0.27388035993E+02 -0.77723646426E+02 -0.57925323717E+03  0.61012980537E+03  0.17301155137E+03 0.  0.
         24    2    3    3    0    0  0.62159894203E+01 -0.23718317365E+01 -0.11651624977E+03  0.14079648988E+03  0.78761354673E+02 0.  0.
         -6    2    1    2    0  502 -0.27388035993E+02  0.77723646426E+02 -0.11662052468E+03  0.22364709001E+03  0.17212380534E+03 0.  0.
        -24    2    5    5    0    0  0.25347518043E+02 -0.12776241443E+02 -0.66417953629E+02  0.10739883625E+03  0.79482302724E+02 0.  0.
          5    1    3    3  501    0  0.21172046573E+02 -0.75351814689E+02 -0.46273698739E+03  0.46933331550E+03  0.47000000000E+01 0. -1.
        -11    1    4    4    0    0  0.33656826206E+02  0.37596678024E+01 -0.18012720514E+02  0.38358508216E+02  0.00000000000E+00 0.  1.
         12    1    4    4    0    0 -0.27440836786E+02 -0.61314995389E+01 -0.98503529260E+02  0.10243798166E+03  0.00000000000E+00 0. -1.
         -5    1    5    5    0  502 -0.52735554036E+02  0.90499887869E+02 -0.50202571053E+02  0.11624825377E+03  0.47000000000E+01 0.  1.
         11    1    6    6    0    0 -0.61785174138E+01  0.25300799872E+02 -0.18915679416E+01  0.26112881513E+02  0.00000000000E+00 0. -1.
        -12    1    6    6    0    0  0.31526035457E+02 -0.38077041315E+02 -0.64526385688E+02  0.81285954733E+02  0.00000000000E+00 0.  1.
</event>
<event>
12    1  0.8251070E-002  0.2360314E+03  0.7818608E-02  0.1122512E+00
         21   -1    0    0  503  502  0.00000000000E+00  0.00000000000E+00  0.10693765332E+04  0.10693765332E+04  0.00000000000E+00 0.  1.
         21   -1    0    0  501  503 -0.00000000000E+00 -0.00000000000E+00 -0.67918945487E+02  0.67918945487E+02  0.00000000000E+00 0. -1.
          6    2    1    2  501    0 -0.15405033080E+03 -0.48111864841E+02  0.22551656581E+03  0.32624967021E+03  0.17185712060E+03 0.  0.
         24    2    3    3    0    0 -0.10796409181E+03 -0.92213060665E+02  0.15049584486E+03  0.22766440017E+03  0.94987294447E+02 0.  0.
         -6    2    1    2    0  502  0.15405033080E+03  0.48111864841E+02  0.77594102187E+03  0.81104580845E+03  0.17223407914E+03 0.  0.
        -24    2    5    5    0    0  0.15085019624E+03 -0.17078906403E+02  0.63909977424E+03  0.65936293344E+03  0.57126927216E+02 0.  0.
          5    1    3    3  501    0 -0.46086238988E+02  0.44101195824E+02  0.75020720953E+02  0.98585270043E+02  0.47000000000E+01 0. -1.
        -11    1    4    4    0    0 -0.17293637466E+02 -0.48602795007E+02  0.10552193956E+03  0.11745714669E+03  0.00000000000E+00 0.  1.
         12    1    4    4    0    0 -0.90670454346E+02 -0.43610265658E+02  0.44973905299E+02  0.11020725348E+03  0.00000000000E+00 0. -1.
         -5    1    5    5    0  502  0.32001345650E+01  0.65190771244E+02  0.13684124763E+03  0.15168287500E+03  0.47000000000E+01 0.  1.
         11    1    6    6    0    0  0.85147477833E+02 -0.94707379063E+01  0.24029832979E+03  0.25511384744E+03  0.00000000000E+00 0. -1.
        -12    1    6    6    0    0  0.65702718403E+02 -0.76081684970E+01  0.39880144445E+03  0.40424908600E+03  0.00000000000E+00 0.  1.
</event>
<event>
12    1  0.8251070E-002  0.2106165E+03  0.7818608E-02  0.1141652E+00
         21   -1    0    0  501  502  0.00000000000E+00  0.00000000000E+00  0.17326281575E+03  0.17326281575E+03  0.00000000000E+00 0. -1.
         21   -1    0    0  502  503 -0.00000000000E+00 -0.00000000000E+00 -0.58360238489E+03  0.58360238489E+03  0.00000000000E+00 0.  1.
         -6    2    1    2    0  503  0.48963819879E+02  0.10846898586E+03 -0.49080974105E+03  0.53409129909E+03  0.17377093343E+03 0.  0.
        -24    2    3    3    0    0 -0.31126266948E+02  0.25915714998E+02 -0.16189927142E+03  0.18561798366E+03  0.81253879860E+02 0.  0.
          6    2    1    2  501    0 -0.48963819879E+02 -0.10846898586E+03  0.80470171912E+02  0.22277390154E+03  0.17026387195E+03 0.  0.
         24    2    5    5    0    0  0.16207634187E+02 -0.49662324184E+02 -0.10962831626E+02  0.95936895829E+02  0.79716186906E+02 0.  0.
          5    1    5    5  501    0 -0.65171454066E+02 -0.58806661679E+02  0.91433003538E+02  0.12683700572E+03  0.47000000000E+01 0. -1.
        -11    1    6    6    0    0  0.11435117080E+02  0.63061156587E+01  0.25722166020E+02  0.28847163155E+02  0.00000000000E+00 0.  1.
         12    1    6    6    0    0  0.47725171074E+01 -0.55968439843E+02 -0.36684997646E+02  0.67089732674E+02  0.00000000000E+00 0. -1.
         -5    1    3    3    0  503  0.80090086827E+02  0.82553270865E+02 -0.32891046963E+03  0.34847331543E+03  0.47000000000E+01 0.  1.
         13    1    4    4    0    0  0.60331047859E+01 -0.26135178786E+02 -0.46435188056E+02  0.53625298259E+02  0.00000000000E+00 0. -1.
        -14    1    4    4    0    0 -0.37159371734E+02  0.52050893784E+02 -0.11546408337E+03  0.13199268540E+03  0.00000000000E+00 0.  1.
</event>
<event>
12    1  0.8251070E-002  0.1972104E+03  0.7818608E-02  0.1152855E+00
         21   -1    0    0  501  502  0.00000000000E+00  0.00000000000E+00  0.45316369121E+02  0.45316369121E+02  0.00000000000E+00 0. -1.
         21   -1    0    0  502  503 -0.00000000000E+00 -0.00000000000E+00 -0.85269098251E+03  0.85269098251E+03  0.00000000000E+00 0.  1.
         -6    2    1    2    0  503  0.86317037031E+02  0.68895107734E+01 -0.35341424116E+03  0.40306091143E+03  0.17337351651E+03 0.  0.
        -24    2    3    3    0    0  0.10917848524E+03  0.14414507460E+02 -0.17037207660E+03  0.21838336706E+03  0.80851288527E+02 0.  0.
          6    2    1    2  501    0 -0.86317037031E+02 -0.68895107734E+01 -0.45396037223E+03  0.49494644020E+03  0.17718313372E+03 0.  0.
         24    2    5    5    0    0 -0.18242640772E+02 -0.47088402837E+02 -0.35580663253E+03  0.36882617631E+03  0.82971543010E+02 0.  0.
          5    1    5    5  501    0 -0.68074396259E+02  0.40198892063E+02 -0.98153739695E+02  0.12612026390E+03  0.47000000000E+01 0. -1.
        -11    1    6    6    0    0 -0.34071075672E+02 -0.61784289487E+02 -0.21265273106E+03  0.22405204898E+03  0.00000000000E+00 0.  1.
         12    1    6    6    0    0  0.15828434900E+02  0.14695886650E+02 -0.14315390148E+03  0.14477412733E+03  0.00000000000E+00 0. -1.
         -5    1    3    3    0  503 -0.22861448210E+02 -0.75249966867E+01 -0.18304216455E+03  0.18467754437E+03  0.47000000000E+01 0.  1.
         11    1    4    4    0    0  0.40093898218E+02  0.44321810537E+02 -0.92036356944E+02  0.10973893823E+03  0.00000000000E+00 0. -1.
        -12    1    4    4    0    0  0.69084587022E+02 -0.29907303077E+02 -0.78335719661E+02  0.10864442883E+03  0.00000000000E+00 0.  1.
</event>
<event>
12    1  0.8251070E-002  0.2106211E+03  0.7818608E-02  0.1141403E+00
         21   -1    0    0  503  502  0.00000000000E+00  0.00000000000E+00  0.88272229849E+02  0.88272229849E+02  0.00000000000E+00 0.  1.
         21   -1    0    0  501  503 -0.00000000000E+00 -0.00000000000E+00 -0.68161267751E+03  0.68161267751E+03  0.00000000000E+00 0.  1.
          6    2    1    2  501    0 -0.11653931542E+03  0.25662961042E+02 -0.49698388936E+03  0.53977238884E+03  0.17355473447E+03 0.  0.
         24    2    3    3    0    0 -0.13619934625E+03  0.60276887967E+01 -0.48311293450E+03  0.50836292979E+03  0.80300472937E+02 0.  0.
         -6    2    1    2    0  502  0.11653931542E+03 -0.25662961042E+02 -0.96356558302E+02  0.23011251853E+03  0.17154353747E+03 0.  0.
        -24    2    5    5    0    0  0.13469702152E+02 -0.20415834108E+02 -0.94587878961E+02  0.12678732437E+03  0.80807918036E+02 0.  0.
          5    1    3    3  501    0  0.19660030837E+02  0.19635272245E+02 -0.13870954864E+02  0.31409459045E+02  0.47000000000E+01 0. -1.
        -13    1    4    4    0    0 -0.41728090340E+02 -0.11065035993E+02 -0.28457773373E+03  0.28783355447E+03  0.00000000000E+00 0.  1.
         14    1    4    4    0    0 -0.94471255914E+02  0.17092724789E+02 -0.19853520077E+03  0.22052937532E+03  0.00000000000E+00 0. -1.
         -5    1    5    5    0  502  0.10306961327E+03 -0.52471269338E+01 -0.17686793407E+01  0.10332519415E+03  0.47000000000E+01 0.  1.
         11    1    6    6    0    0  0.41060633743E+02 -0.29066859385E+02 -0.37338336399E+02  0.62649894836E+02  0.00000000000E+00 0. -1.
        -12    1    6    6    0    0 -0.27590931590E+02  0.86510252770E+01 -0.57249542562E+02  0.64137429539E+02  0.00000000000E+00 0.  1.
</event>
<event>
12    1  0.8251070E-002  0.1857587E+03  0.7818608E-02  0.1166939E+00
         21   -1    0    0  503  502  0.00000000000E+00  0.00000000000E+00  0.28070666344E+03  0.28070666344E+03  0.00000000000E+00 0. -1.
         21   -1    0    0  501  503 -0.00000000000E+00 -0.00000000000E+00 -0.11086255392E+03  0.11086255392E+03  0.00000000000E+00 0. -1.
          6    2    1    2  501    0  0.70417062253E+02 -0.16279900821E+02  0.89772833915E+02  0.20631393530E+03  0.17112182901E+03 0.  0.
         24    2    3    3    0    0 -0.10694165229E+02  0.34581678260E+02  0.31702769637E+02  0.94241843258E+02  0.81032103372E+02 0.  0.
         -6    2    1    2    0  502 -0.70417062253E+02  0.16279900821E+02  0.80071275609E+02  0.18525528206E+03  0.15061378598E+03 0.  0.
        -24    2    5    5    0    0 -0.31935986557E+02  0.63898800564E+02  0.29609100229E+02  0.10577651795E+03  0.72173464537E+02 0.  0.
          5    1    3    3  501    0  0.81111227482E+02 -0.50861579081E+02  0.58070064278E+02  0.11207209205E+03  0.47000000000E+01 0. -1.
        -11    1    4    4    0    0  0.10474010164E+02  0.56018363085E+02  0.29137869872E+02  0.64006072777E+02  0.00000000000E+00 0.  1.
         12    1    4    4    0    0 -0.21168175393E+02 -0.21436684826E+02  0.25648997648E+01  0.30235770481E+02  0.00000000000E+00 0. -1.
         -5    1    5    5    0  502 -0.38481075697E+02 -0.47618899743E+02  0.50462175380E+02  0.79478764104E+02  0.47000000000E+01 0.  1.
         11    1    6    6    0    0 -0.52691353385E+02  0.28321763122E+02  0.12158906700E+02  0.61043754799E+02  0.00000000000E+00 0. -1.
        -12    1    6    6    0    0  0.20755366828E+02  0.35577037442E+02  0.17450193529E+02  0.44732763155E+02  0.00000000000E+00 0.  1.
</event>
<event>
12    1  0.8251070E-002  0.1838245E+03  0.7818608E-02  0.1164339E+00
         21   -1    0    0  503  502  0.00000000000E+00  0.00000000000E+00  0.11254215793E+04  0.11254215793E+04  0.00000000000E+00 0. -1.
         21   -1    0    0  501  503 -0.00000000000E+00 -0.00000000000E+00 -0.54088492028E+02  0.54088492028E+02  0.00000000000E+00 0. -1.
          6    2    1    2  501    0 -0.61997085380E+02  0.10204807686E+02  0.14188887152E+03  0.23221517353E+03  0.17275317150E+03 0.  0.
         24    2    3    3    0    0 -0.37498873965E+02 -0.49530629008E+01  0.17067332943E+03  0.19122055901E+03  0.77493344415E+02 0.  0.
         -6    2    1    2    0  502  0.61997085380E+02 -0.10204807686E+02  0.92944421573E+03  0.94729489777E+03  0.17191072244E+03 0.  0.
        -24    2    5    5    0    0 -0.11217765615E+02 -0.65043742252E+01  0.72342121509E+03  0.72856750029E+03  0.85464629474E+02 0.  0.
          5    1    3    3  501    0 -0.24498211415E+02  0.15157870587E+02 -0.28784457908E+02  0.40994614528E+02  0.47000000000E+01 0. -1.
        -11    1    4    4    0    0  0.15126321952E+02  0.84321758944E+01  0.10304520059E+03  0.10449028936E+03  0.00000000000E+00 0.  1.
         12    1    4    4    0    0 -0.52625195917E+02 -0.13385238795E+02  0.67628128836E+02  0.86730269645E+02  0.00000000000E+00 0. -1.
         -5    1    5    5    0  502  0.73214850995E+02 -0.37004334613E+01  0.20602300065E+03  0.21872739748E+03  0.47000000000E+01 0.  1.
         13    1    6    6    0    0 -0.22804933602E+01  0.39136299965E+02  0.28424735246E+03  0.28693798634E+03  0.00000000000E+00 0. -1.
        -14    1    6    6    0    0 -0.89372722546E+01 -0.45640674190E+02  0.43917386262E+03  0.44162951394E+03  0.00000000000E+00 0.  1.
</event>
<event>
12    1  0.8251070E-002  0.2265577E+03  0.7818608E-02  0.1131874E+00
         21   -1    0    0  503  502  0.00000000000E+00  0.00000000000E+00  0.48058852784E+03  0.48058852784E+03  0.00000000000E+00 0. -1.
         21   -1    0    0  501  503 -0.00000000000E+00 -0.00000000000E+00 -0.12384644779E+03  0.12384644779E+03  0.00000000000E+00 0. -1.
          6    2    1    2  501    0  0.10709080993E+02 -0.12707672539E+03  0.30639793127E+03  0.37235114820E+03  0.16882685427E+03 0.  0.
         24    2    3    3    0    0  0.45840488967E+01 -0.11733969864E+03  0.11925876086E+03  0.18479986238E+03  0.78349975827E+02 0.  0.
         -6    2    1    2    0  502 -0.10709080993E+02  0.12707672539E+03  0.50344148784E+02  0.23208382743E+03  0.18725701879E+03 0.  0.
        -24    2    5    5    0    0  0.23661421630E+02  0.37823686099E+02  0.90544395113E+02  0.12823015018E+03  0.79083435850E+02 0.  0.
          5    1    3    3  501    0  0.61250320963E+01 -0.97370267478E+01  0.18713917041E+03  0.18755128582E+03  0.47000000000E+01 0. -1.
        -11    1    4    4    0    0 -0.24419420499E+02 -0.27350772670E+02  0.58178654288E+01  0.37124391191E+02  0.00000000000E+00 0.  1.
         12    1    4    4    0    0  0.29003469396E+02 -0.89988925973E+02  0.11344089543E+03  0.14767547119E+03  0.00000000000E+00 0. -1.
         -5    1    5    5    0  502 -0.34370502623E+02  0.89253039292E+02 -0.40200246329E+02  0.10385367725E+03  0.47000000000E+01 0.  1.
         13    1    6    6    0    0 -0.24056776473E+02 -0.52554024421E+01  0.14204871557E+02  0.28427559253E+02  0.00000000000E+00 0. -1.
        -14    1    6    6    0    0  0.47718198103E+02  0.43079088541E+02  0.76339523556E+02  0.99802590930E+02  0.00000000000E+00 0.  1.
</event>
<event>
12    1  0.8251070E-002  0.1981552E+03  0.7818608E-02  0.1151407E+00
         21   -1    0    0  501  502  0.00000000000E+00  0.00000000000E+00  0.61235461264E+02  0.61235461264E+02  0.00000000000E+00 0. -1.
         21   -1    0    0  502  503 -0.00000000000E+00 -0.00000000000E+00 -0.71500338054E+03  0.71500338054E+03  0.00000000000E+00 0. -1.
         -6    2    1    2    0  503  0.96958078886E+02 -0.13042204202E+02 -0.45250904400E+03  0.49380190625E+03  0.17176996118E+03 0.  0.
        -24    2    3    3    0    0  0.13106741350E+03 -0.28400127999E+02 -0.39812829432E+03  0.42763039828E+03  0.79852267619E+02 0.  0.
          6    2    1    2  501    0 -0.96958078886E+02  0.13042204202E+02 -0.20125887528E+03  0.28243693556E+03  0.17232097823E+03 0.  0.
         24    2    5    5    0    0 -0.47641020161E+02  0.35320270995E+02 -0.20491290079E+03  0.22799498075E+03  0.80468788907E+02 0.  0.
          5    1    5    5  501    0 -0.49317058725E+02 -0.22278066793E+02  0.36540255150E+01  0.54441954812E+02  0.47000000000E+01 0. -1.
        -13    1    6    6    0    0 -0.68128461144E+02  0.38408739583E+02 -0.14739549220E+03  0.16685967042E+03  0.00000000000E+00 0.  1.
         14    1    6    6    0    0  0.20487440984E+02 -0.30884685879E+01 -0.57517408599E+02  0.61135310322E+02  0.00000000000E+00 0. -1.
         -5    1    3    3    0  503 -0.34109334612E+02  0.15357923797E+02 -0.54380749674E+02  0.66171507963E+02  0.47000000000E+01 0.  1.
         13    1    4    4    0    0  0.11437736343E+03 -0.18502449184E+02 -0.38954805657E+03  0.40641384114E+03  0.00000000000E+00 0. -1.
        -14    1    4    4    0    0  0.16690050066E+02 -0.98976788149E+01 -0.85802377508E+01  0.21216557142E+02  0.00000000000E+00 0.  1.
</event>
<event>
12    1  0.8251070E-002  0.4310533E+03  0.7818608E-02  0.1033557E+00
         21   -1    0    0  501  502  0.00000000000E+00  0.00000000000E+00  0.13056142443E+04  0.13056142443E+04  0.00000000000E+00 0.  1.
         21   -1    0    0  502  503 -0.00000000000E+00 -0.00000000000E+00 -0.14259264832E+03  0.14259264832E+03  0.00000000000E+00 0.  1.
         -6    2    1    2    0  503  0.36725475759E+03  0.14647996118E+03  0.54292920266E+03  0.69301053295E+03  0.17076019348E+03 0.  0.
        -24    2    3    3    0    0  0.31229353557E+03  0.16139827942E+03  0.51956265610E+03  0.63127417702E+03  0.70605070643E+02 0.  0.
          6    2    1    2  501    0 -0.36725475759E+03 -0.14647996118E+03  0.62009239328E+03  0.75519635963E+03  0.17168147656E+03 0.  0.
         24    2    5    5    0    0 -0.33054626363E+03 -0.16500481423E+03  0.49504230232E+03  0.62347582609E+03  0.84662881496E+02 0.  0.
          5    1    5    5  501    0 -0.36708493960E+02  0.18524853050E+02  0.12505009096E+03  0.13172053354E+03  0.47000000000E+01 0. -1.
        -11    1    6    6    0    0 -0.20779160984E+03 -0.82691246077E+02  0.23528120833E+03  0.32461121714E+03  0.00000000000E+00 0.  1.
         12    1    6    6    0    0 -0.12275465379E+03 -0.82313568153E+02  0.25976109399E+03  0.29886460895E+03  0.00000000000E+00 0. -1.
         -5    1    3    3    0  503  0.54961222028E+02 -0.14918318237E+02  0.23366546559E+02  0.61736355933E+02  0.47000000000E+01 0.  1.
         11    1    4    4    0    0  0.11070234951E+02 -0.72714946867E+01  0.16806938687E+02  0.21398549597E+02  0.00000000000E+00 0. -1.
        -12    1    4    4    0    0  0.30122330061E+03  0.16866977410E+03  0.50275571741E+03  0.60987562742E+03  0.00000000000E+00 0.  1.
</event>
<event>
12    1  0.8251070E-002  0.1759129E+03  0.7818608E-02  0.1171866E+00
         21   -1    0    0  503  502  0.00000000000E+00  0.00000000000E+00  0.11637175446E+03  0.11637175446E+03  0.00000000000E+00 0. -1.
         21   -1    0    0  501  503 -0.00000000000E+00 -0.00000000000E+00 -0.70921548893E+03  0.70921548893E+03  0.00000000000E+00 0. -1.
          6    2    1    2  501    0 -0.28855310410E+02 -0.26777459305E+02 -0.62282393313E+03  0.64713790788E+03  0.17125466086E+03 0.  0.
         24    2    3    3    0    0  0.48752698504E+02  0.41625409164E+01 -0.23494493302E+03  0.25033506592E+03  0.71234621619E+02 0.  0.
         -6    2    1    2    0  502  0.28855310410E+02  0.26777459305E+02  0.29980198654E+02  0.17844933551E+03  0.17145171847E+03 0.  0.
        -24    2    5    5    0    0 -0.23389373893E+02  0.52986406037E+02  0.57029709123E+02  0.11387238960E+03  0.79749052374E+02 0.  0.
          5    1    3    3  501    0 -0.77608008915E+02 -0.30940000222E+02 -0.38787900011E+03  0.39680284196E+03  0.47000000000E+01 0. -1.
        -11    1    4    4    0    0  0.20036070358E+02  0.36814827478E+02 -0.13456477978E+03  0.14094131969E+03  0.00000000000E+00 0.  1.
         12    1    4    4    0    0  0.28716628146E+02 -0.32652286561E+02 -0.10038015324E+03  0.10939374623E+03  0.00000000000E+00 0. -1.
         -5    1    5    5    0  502  0.52244684304E+02 -0.26208946731E+02 -0.27049510468E+02  0.64576945912E+02  0.47000000000E+01 0.  1.
         13    1    6    6    0    0  0.10606032471E+02  0.32052695584E+02  0.64921985111E+02  0.73176002690E+02  0.00000000000E+00 0. -1.
        -14    1    6    6    0    0 -0.33995406364E+02  0.20933710453E+02 -0.78922759883E+01  0.40696386909E+02  0.00000000000E+00 0.  1.
</event>
<event>
12    1  0.8251070E-002  0.2075852E+03  0.7818608E-02  0.1143762E+00
         21   -1    0    0  503  502  0.00000000000E+00  0.00000000000E+00  0.47724728481E+03  0.47724728481E+03  0.00000000000E+00 0.  1.
         21   -1    0    0  501  503 -0.00000000000E+00 -0.00000000000E+00 -0.10245916219E+03  0.10245916219E+03  0.00000000000E+00 0.  1.
          6    2    1    2  501    0 -0.88255372336E+02  0.75697375169E+02  0.29015952829E+03  0.35676909588E+03  0.17196666120E+03 0.  0.
         24    2    3    3    0    0 -0.10804563048E+03  0.77199231501E+02  0.29724463416E+03  0.33517746290E+03  0.79724397072E+02 0.  0.
         -6    2    1    2    0  502  0.88255372336E+02 -0.75697375169E+02  0.84628594332E+02  0.22293735112E+03  0.17035245872E+03 0.  0.
        -24    2    5    5    0    0  0.24537100743E+02 -0.10677165244E+03  0.55216043696E+02  0.14604250748E+03  0.79229713068E+02 0.  0.
          5    1    3    3  501    0  0.19790258141E+02 -0.15018563321E+01 -0.70851058668E+01  0.21591632983E+02  0.47000000000E+01 0. -1.
        -13    1    4    4    0    0 -0.53673011887E+02  0.12851569223E+02  0.19519757994E+03  0.20284982192E+03  0.00000000000E+00 0.  1.
         14    1    4    4    0    0 -0.54372618589E+02  0.64347662279E+02  0.10204705422E+03  0.13232764098E+03  0.00000000000E+00 0. -1.
         -5    1    5    5    0  502  0.63718271592E+02  0.31074277272E+02  0.29412550636E+02  0.76894843635E+02  0.47000000000E+01 0.  1.
         13    1    6    6    0    0  0.15043603193E+01 -0.25342642764E+02 -0.20391457559E+02  0.32562619422E+02  0.00000000000E+00 0. -1.
        -14    1    6    6    0    0  0.23032740424E+02 -0.81429009677E+02  0.75607501255E+02  0.11347988806E+03  0.00000000000E+00 0.  1.
</event>
<event>
12    1  0.8251070E-002  0.1973216E+03  0.7818608E-02  0.1152329E+00
         21   -1    0    0  503  502  0.00000000000E+00  0.00000000000E+00  0.38675751219E+03  0.38675751219E+03  0.00000000000E+00 0.  1.
         21   -1    0    0  501  503 -0.00000000000E+00 -0.00000000000E+00 -0.10538784296E+03  0.10538784296E+03  0.00000000000E+00 0.  1.
          6    2    1    2  501    0  0.70859377251E+02  0.61361606897E+02  0.19614398053E+03  0.27720533318E+03  0.17200010902E+03 0.  0.
         24    2    3    3    0    0  0.51982982182E+01  0.82747195443E+02  0.74615991111E+02  0.13734875340E+03  0.80143703893E+02 0.  0.
         -6    2    1    2    0  502 -0.70859377251E+02 -0.61361606897E+02  0.85225688706E+02  0.21494002196E+03  0.17363610477E+03 0.  0.
        -24    2    5    5    0    0 -0.10849868444E+03 -0.19272191837E+02  0.36136702356E+02  0.13997299663E+03  0.78378546967E+02 0.  0.
          5    1    3    3  501    0  0.65661079033E+02 -0.21385588546E+02  0.12152798941E+03  0.13985657978E+03  0.47000000000E+01 0. -1.
        -11    1    4    4    0    0  0.38691490714E+02  0.19530732847E+02  0.22468255401E+02  0.48819089299E+02  0.00000000000E+00 0.  1.
         12    1    4    4    0    0 -0.33493192495E+02  0.63216462596E+02  0.52147735710E+02  0.88529664104E+02  0.00000000000E+00 0. -1.
         -5    1    5    5    0  502  0.37639307191E+02 -0.42089415059E+02  0.49088986350E+02  0.74967025329E+02  0.47000000000E+01 0.  1.
         13    1    6    6    0    0  0.39208272114E+01 -0.17944153761E+01  0.25326051539E+02  0.25690498226E+02  0.00000000000E+00 0. -1.
        -14    1    6    6    0    0 -0.11241951165E+03 -0.17477776461E+02  0.10810650817E+02  0.11428249840E+03  0.00000000000E+00 0.  1.
</event>
<event>
12    1  0.8251070E-002  0.2083583E+03  0.7818608E-02  0.1142918E+00
         21   -1    0    0  503  502  0.00000000000E+00  0.00000000000E+00  0.94322525108E+02  0.94322525108E+02  0.00000000000E+00 0. -1.
         21   -1    0    0  501  503 -0.00000000000E+00 -0.00000000000E+00 -0.17093868521E+04  0.17093868521E+04  0.00000000000E+00 0. -1.
          6    2    1    2  501    0 -0.24404075341E+02  0.11445408504E+03 -0.15787397598E+04  0.15924297244E+04  0.17238880908E+03 0.  0.
         24    2    3    3    0    0  0.48765447242E+02  0.75296899161E+02 -0.75906284027E+03  0.76854902512E+03  0.80271518347E+02 0.  0.
         -6    2    1    2    0  502  0.24404075341E+02 -0.11445408504E+03 -0.36324567149E+02  0.21127965277E+03  0.17211717235E+03 0.  0.
        -24    2    5    5    0    0  0.46156492427E+02 -0.93028347670E+02  0.36173729776E+02  0.13247405063E+03  0.73865689609E+02 0.  0.
          5    1    3    3  501    0 -0.73169522583E+02  0.39157185879E+02 -0.81967691957E+03  0.82388069932E+03  0.47000000000E+01 0. -1.
        -11    1    4    4    0    0  0.42657620231E+02  0.14980961330E+02 -0.15521876975E+03  0.16166931759E+03  0.00000000000E+00 0.  1.
         12    1    4    4    0    0  0.61078270108E+01  0.60315937832E+02 -0.60384407052E+03  0.60687970753E+03  0.00000000000E+00 0. -1.
         -5    1    5    5    0  502 -0.21752417087E+02 -0.21425737371E+02 -0.72498296924E+02  0.78805602135E+02  0.47000000000E+01 0.  1.
         13    1    6    6    0    0  0.62638190715E+02 -0.63719712405E+02  0.10093070444E+02  0.89920046464E+02  0.00000000000E+00 0. -1.
        -14    1    6    6    0    0 -0.16481698288E+02 -0.29308635265E+02  0.26080659331E+02  0.42554004167E+02  0.00000000000E+00 0.  1.
</event>
<event>
12    1  0.8251070E-002  0.2136064E+03  0.7818608E-02  0.1139616E+00
         21   -1    0    0  501  502  0.00000000000E+00  0.00000000000E+00  0.39080279416E+03  0.39080279416E+03  0.00000000000E+00 0.  1.
         21   -1    0    0  502  503 -0.00000000000E+00 -0.00000000000E+00 -0.12658062630E+03  0.12658062630E+03  0.00000000000E+00 0.  1.
         -6    2    1    2    0  503 -0.98649069638E+02  0.78482916282E+02  0.50368316592E+02  0.21512330286E+03  0.16688277631E+03 0.  0.
        -24    2    3    3    0    0 -0.68292898597E+02  0.11322693272E+03  0.62863161760E+02  0.16709357296E+03  0.80524696362E+02 0.  0.
          6    2    1    2  501    0  0.98649069638E+02 -0.78482916282E+02  0.21385385126E+03  0.30226011760E+03  0.17244274964E+03 0.  0.
         24    2    5    5    0    0  0.11242087325E+03 -0.84864365891E+02  0.22852860284E+03  0.28063088258E+03  0.81779927875E+02 0.  0.
          5    1    5    5  501    0 -0.13771803611E+02  0.63814496090E+01 -0.14674751574E+02  0.21629235021E+02  0.47000000000E+01 0. -1.
        -13    1    6    6    0    0  0.21340080328E+02 -0.23486448073E+02  0.57508325279E+01  0.32250338700E+02  0.00000000000E+00 0.  1.
         14    1    6    6    0    0  0.91080792921E+02 -0.61377917818E+02  0.22277777031E+03  0.24838054388E+03  0.00000000000E+00 0. -1.
         -5    1    3    3    0  503 -0.30356171041E+02 -0.34744016442E+02 -0.12494845168E+02  0.48029729903E+02  0.47000000000E+01 0.  1.
         13    1    4    4    0    0  0.72930187090E+01  0.12698339482E+02 -0.13529483111E+02  0.19936972206E+02  0.00000000000E+00 0. -1.
        -14    1    4    4    0    0 -0.75585917306E+02  0.10052859324E+03  0.76392644871E+02  0.14715660075E+03  0.00000000000E+00 0.  1.
</event>
<event>
12    1  0.8251070E-002  0.1801876E+03  0.7818608E-02  0.1167762E+00
         21   -1    0    0  503  502  0.00000000000E+00  0.00000000000E+00  0.26194784925E+03  0.26194784925E+03  0.00000000000E+00 0.  1.
         21   -1    0    0  501  503 -0.00000000000E+00 -0.00000000000E+00 -0.13810219199E+03  0.13810219199E+03  0.00000000000E+00 0.  1.
          6    2    1    2  501    0 -0.85592825704E+01  0.50929278145E+02 -0.29199509356E+01  0.18021125301E+03  0.17262826220E+03 0.  0.
         24    2    3    3    0    0  0.22746041555E+01  0.98656749504E+02 -0.17333173828E+02  0.12897537088E+03  0.81215019127E+02 0.  0.
         -6    2    1    2    0  502  0.85592825704E+01 -0.50929278145E+02  0.12676560820E+03  0.21983878823E+03  0.17202476768E+03 0.  0.
        -24    2    5    5    0    0 -0.81484330829E+01 -0.93394341625E+02  0.12157741766E+03  0.17367130292E+03  0.81189611181E+02 0.  0.
          5    1    3    3  501    0 -0.10833886726E+02 -0.47727471359E+02  0.14413222892E+02  0.51235882134E+02  0.47000000000E+01 0. -1.
        -11    1    4    4    0    0 -0.83078095340E+01  0.10553347357E+03 -0.31065965212E+02  0.11032419471E+03  0.00000000000E+00 0.  1.
         12    1    4    4    0    0  0.10582413689E+02 -0.68767240679E+01  0.13732791384E+02  0.18651176172E+02  0.00000000000E+00 0. -1.
         -5    1    5    5    0  502  0.16707715653E+02  0.42465063480E+02  0.51881905433E+01  0.46167485310E+02  0.47000000000E+01 0.  1.
         11    1    6    6    0    0 -0.15614598718E+02 -0.46354107440E+01 -0.66076885518E+01  0.17577379608E+02  0.00000000000E+00 0. -1.
        -12    1    6    6    0    0  0.74661656350E+01 -0.88758930881E+02  0.12818510621E+03  0.15609392331E+03  0.00000000000E+00 0.  1.
</event>
<event>
12    1  0.8251070E-002  0.1869371E+03  0.7818608E-02  0.1161286E+00
         21   -1    0    0  501  502  0.00000000000E+00  0.00000000000E+00  0.44342979700E+03  0.44342979700E+03  0.00000000000E+00 0.  1.
         21   -1    0    0  502  503 -0.00000000000E+00 -0.00000000000E+00 -0.18801454606E+03  0.18801454606E+03  0.00000000000E+00 0.  1.
         -6    2    1    2    0  503  0.52813382609E+02  0.49581567807E+02 -0.11299984566E+03  0.21831582604E+03  0.17217795890E+03 0.  0.
        -24    2    3    3    0    0 -0.15426785926E+02 -0.19265277425E+02 -0.55808051183E+02  0.10566770109E+03  0.86266956815E+02 0.  0.
          6    2    1    2  501    0 -0.52813382609E+02 -0.49581567807E+02  0.36841509660E+03  0.41312851701E+03  0.17233079504E+03 0.  0.
         24    2    5    5    0    0 -0.72752054980E+02 -0.42377746082E+02  0.37310174266E+03  0.39091364914E+03  0.80745500417E+02 0.  0.
          5    1    5    5  501    0  0.19938672371E+02 -0.72038217257E+01 -0.46866460649E+01  0.22214867875E+02  0.47000000000E+01 0. -1.
        -13    1    6    6    0    0 -0.42649363358E+02 -0.53984826942E+02  0.14445371899E+03  0.16000064583E+03  0.00000000000E+00 0.  1.
         14    1    6    6    0    0 -0.30102691622E+02  0.11607080860E+02  0.22864802367E+03  0.23091300331E+03  0.00000000000E+00 0. -1.
         -5    1    3    3    0  503  0.68240168536E+02  0.68846845233E+02 -0.57191794474E+02  0.11264812495E+03  0.47000000000E+01 0.  1.
         13    1    4    4    0    0 -0.13070057706E+02 -0.94220683811E+01  0.21963876490E+02  0.27239927524E+02  0.00000000000E+00 0. -1.
        -14    1    4    4    0    0 -0.23567282202E+01 -0.98432090441E+01 -0.77771927673E+02  0.78427773564E+02  0.00000000000E+00 0.  1.
</event>
<event>
12    1  0.8251070E-002  0.1888608E+03  0.7818608E-02  0.1159717E+00
         21   -1    0    0  503  502  0.00000000000E+00  0.00000000000E+00  0.28444696443E+03  0.28444696443E+03  0.00000000000E+00 0. -1.
         21   -1    0    0  501  503 -0.00000000000E+00 -0.00000000000E+00 -0.14416839572E+03  0.14416839572E+03  0.00000000000E+00 0. -1.
          6    2    1    2  501    0  0.57625651962E+02  0.48127660986E+02 -0.86845052212E+01  0.18807762032E+03  0.17222306210E+03 0.  0.
         24    2    3    3    0    0 -0.10383567255E+02  0.73130153803E+02 -0.32252171198E+02  0.11173691411E+03  0.77389259999E+02 0.  0.
         -6    2    1    2    0  502 -0.57625651962E+02 -0.48127660986E+02  0.14896307393E+03  0.24053773983E+03  0.17329575693E+03 0.  0.
        -24    2    5    5    0    0 -0.83051788660E+02  0.79822745641E+01  0.14070915326E+03  0.17820772698E+03  0.70693789249E+02 0.  0.
          5    1    3    3  501    0  0.68009219217E+02 -0.25002492818E+02  0.23567665976E+02  0.76340706213E+02  0.47000000000E+01 0. -1.
        -11    1    4    4    0    0 -0.17834858045E+02  0.57012387862E+02  0.14717219209E+02  0.61523093814E+02  0.00000000000E+00 0.  1.
         12    1    4    4    0    0  0.74512907900E+01  0.16117765941E+02 -0.46969390406E+02  0.50213820294E+02  0.00000000000E+00 0. -1.
         -5    1    5    5    0  502  0.25426136698E+02 -0.56109935550E+02  0.82539206778E+01  0.62330012846E+02  0.47000000000E+01 0.  1.
         13    1    6    6    0    0 -0.12255301751E+02 -0.24216843758E+02  0.16824666587E+02  0.31933013456E+02  0.00000000000E+00 0. -1.
        -14    1    6    6    0    0 -0.70796486909E+02  0.32199118322E+02  0.12388448667E+03  0.14627471352E+03  0.00000000000E+00 0.  1.
</event>
<event>
12    1  0.8251070E-002  0.2204598E+03  0.7818608E-02  0.1133541E+00
         21   -1    0    0  501  502  0.00000000000E+00  0.00000000000E+00  0.12797167896E+04  0.12797167896E+04  0.00000000000E+00 0. -1.
         21   -1    0    0  502  503 -0.00000000000E+00 -0.00000000000E+00 -0.82617854240E+02  0.82617854240E+02  0.00000000000E+00 0. -1.
         -6    2    1    2    0  503 -0.11650349062E+03 -0.73157143337E+02  0.97854587189E+02  0.24120120662E+03  0.17227150343E+03 0.  0.
        -24    2    3    3    0    0  0.80343973579E+01 -0.36051745043E+02  0.59762621759E+02  0.10570366437E+03  0.78977299527E+02 0.  0.
          6    2    1    2  501    0  0.11650349062E+03  0.73157143337E+02  0.10992443481E+04  0.11211334372E+04  0.17227018348E+03 0.  0.
         24    2    5    5    0    0 -0.87952821134E-01  0.21469995574E+02  0.25131924526E+03  0.26365795881E+03  0.76767100766E+02 0.  0.
          5    1    5    5  501    0  0.11659144344E+03  0.51687147763E+02  0.84792510289E+03  0.85747547838E+03  0.47000000000E+01 0. -1.
        -13    1    6    6    0    0  0.21251384064E+01 -0.25970401902E+02  0.45524475246E+02  0.52454321410E+02  0.00000000000E+00 0.  1.
         14    1    6    6    0    0 -0.22130912276E+01  0.47440397477E+02  0.20579477001E+03  0.21120363740E+03  0.00000000000E+00 0. -1.
         -5    1    3    3    0  503 -0.12453788798E+03 -0.37105398294E+02  0.38091965430E+02  0.13549754225E+03  0.47000000000E+01 0.  1.
         13    1    4    4    0    0 -0.22244575474E+02 -0.41087777331E+02  0.10863935799E+02  0.47969278555E+02  0.00000000000E+00 0. -1.
        -14    1    4    4    0    0  0.30278972832E+02  0.50360322884E+01  0.48898685961E+02  0.57734385817E+02  0.00000000000E+00 0.  1.
</event>
<event>
12    1  0.8251070E-002  0.2473929E+03  0.7818608E-02  0.1115023E+00
         21   -1    0    0  503  502  0.00000000000E+00  0.00000000000E+00  0.12405826474E+04  0.12405826474E+04  0.00000000000E+00 0.  1.
         21   -1    0    0  501  503 -0.00000000000E+00 -0.00000000000E+00 -0.53892512720E+02  0.53892512720E+02  0.00000000000E+00 0.  1.
          6    2    1    2  501    0 -0.17307745387E+03  0.36235298663E+02  0.40318063237E+03  0.47283630423E+03  0.17248404671E+03 0.  0.
         24    2    3    3    0    0 -0.97927480243E+02  0.36876175230E+02  0.11229610168E+03  0.17236362751E+03  0.78416592306E+02 0.  0.
         -6    2    1    2    0  502  0.17307745387E+03 -0.36235298663E+02  0.78350950231E+03  0.82163885589E+03  0.17301580101E+03 0.  0.
        -24    2    5    5    0    0  0.14756916402E+03  0.15856145487E+01  0.73863736372E+03  0.75747739434E+03  0.80047957570E+02 0.  0.
          5    1    3    3  501    0 -0.75149973625E+02 -0.64087656712E+00  0.29088453069E+03  0.30047267672E+03  0.47000000000E+01 0. -1.
        -11    1    4    4    0    0 -0.95327897049E+02  0.51397123119E+01  0.65556691689E+02  0.11580804991E+03  0.00000000000E+00 0.  1.
         12    1    4    4    0    0 -0.25995831947E+01  0.31736462918E+02  0.46739409991E+02  0.56555577600E+02  0.00000000000E+00 0. -1.
         -5    1    5    5    0  502  0.25508289845E+02 -0.37820913212E+02  0.44872138586E+02  0.64161461550E+02  0.47000000000E+01 0.  1.
         13    1    6    6    0    0  0.37629324784E+02  0.32196975530E+02  0.15270834540E+03  0.16053800196E+03  0.00000000000E+00 0. -1.
        -14    1    6    6    0    0  0.10993983924E+03 -0.30611360981E+02  0.58592901832E+03  0.59693939239E+03  0.00000000000E+00 0.  1.
</event>
<event>
12    1  0.8251070E-002  0.1977173E+03  0.7818608E-02  0.1152012E+00
         21   -1    0    0  501  502  0.00000000000E+00  0.00000000000E+00  0.22221290084E+03  0.22221290084E+03  0.00000000000E+00 0.  1.
         21   -1    0    0  502  503 -0.00000000000E+00 -0.00000000000E+00 -0.24351964685E+03  0.24351964685E+03  0.00000000000E+00 0.  1.
         -6    2    1    2    0  503 -0.14048497416E+02 -0.97570488838E+02 -0.13455197733E+03  0.23788034290E+03  0.16960383947E+03 0.  0.
        -24    2    3    3    0    0  0.44589677714E+01 -0.81435381646E+02 -0.21286300425E+02  0.12188865563E+03  0.88046203820E+02 0.  0.
          6    2    1    2  501    0  0.14048497416E+02  0.97570488838E+02  0.11324523132E+03  0.22785220479E+03  0.17139073557E+03 0.  0.
         24    2    5    5    0    0  0.60851074837E+02  0.39421396942E+02  0.10827682435E+03  0.15289506230E+03  0.79975805971E+02 0.  0.
          5    1    5    5  501    0 -0.46802577421E+02  0.58149091896E+02  0.49684069695E+01  0.74957142484E+02  0.47000000000E+01 0. -1.
        -13    1    6    6    0    0 -0.10372812938E+02 -0.41721221055E+01 -0.49320597424E+01  0.12219945352E+02  0.00000000000E+00 0.  1.
         14    1    6    6    0    0  0.71223887775E+02  0.43593519048E+02  0.11320888409E+03  0.14067511695E+03  0.00000000000E+00 0. -1.
         -5    1    3    3    0  503 -0.18507465188E+02 -0.16135107192E+02 -0.11326567690E+03  0.11599168727E+03  0.47000000000E+01 0.  1.
         13    1    4    4    0    0  0.14680831882E+02 -0.48141017775E+01 -0.39549684927E+02  0.42460334178E+02  0.00000000000E+00 0. -1.
        -14    1    4    4    0    0 -0.10221864111E+02 -0.76621279868E+02  0.18263384502E+02  0.79428321448E+02  0.00000000000E+00 0.  1.
</event>
<event>
12    1  0.8251070E-002  0.2562984E+03  0.7818608E-02  0.1109483E+00
         21   -1    0    0  501  502  0.00000000000E+00  0.00000000000E+00  0.80813559691E+03  0.80813559691E+03  0.00000000000E+00 0. -1.
         21   -1    0    0  502  503 -0.00000000000E+00 -0.00000000000E+00 -0.11135904824E+03  0.11135904824E+03  0.00000000000E+00 0. -1.
         -6    2    1    2    0  503 -0.12017792720E+03  0.14642722937E+03  0.10899472741E+03  0.27851166123E+03  0.17264190438E+03 0.  0.
        -24    2    3    3    0    0 -0.13267859426E+03  0.15781942198E+03  0.63406129440E+02  0.22966026416E+03  0.78822080370E+02 0.  0.
          6    2    1    2  501    0  0.12017792720E+03 -0.14642722937E+03  0.58778182126E+03  0.64098298393E+03  0.17172084498E+03 0.  0.
         24    2    5    5    0    0  0.16501298558E+02 -0.12026227093E+03  0.39542387857E+03  0.42085321200E+03  0.77602033742E+02 0.  0.
          5    1    5    5  501    0  0.10367662864E+03 -0.26164958433E+02  0.19235794268E+03  0.22012977193E+03  0.47000000000E+01 0. -1.
        -13    1    6    6    0    0 -0.30723032751E+02 -0.60954030490E+02  0.18618190865E+03  0.19830028160E+03  0.00000000000E+00 0.  1.
         14    1    6    6    0    0  0.47224331309E+02 -0.59308240444E+02  0.20924196992E+03  0.22255293039E+03  0.00000000000E+00 0. -1.
         -5    1    3    3    0  503  0.12500667069E+02 -0.11392192616E+02  0.45588597974E+02  0.48851397063E+02  0.47000000000E+01 0.  1.
         11    1    4    4    0    0 -0.25626090224E+02  0.52702679435E+02  0.53418428117E+02  0.79295632807E+02  0.00000000000E+00 0. -1.
        -12    1    4    4    0    0 -0.10705250404E+03  0.10511674255E+03  0.99877013236E+01  0.15036463136E+03  0.00000000000E+00 0.  1.
</event>
<event>
12    1  0.8251070E-002  0.2486882E+03  0.7818608E-02  0.1114367E+00
         21   -1    0    0  503  502  0.00000000000E+00  0.00000000000E+00  0.30169694492E+03  0.30169694492E+03  0.00000000000E+00 0. -1.
         21   -1    0    0  501  503 -0.00000000000E+00 -0.00000000000E+00 -0.42582334640E+03  0.42582334640E+03  0.00000000000E+00 0.  1.
          6    2    1    2  501    0 -0.15422913211E+03  0.91766121351E+02 -0.32463549863E+03  0.40806808320E+03  0.17006971316E+03 0.  0.
         24    2    3    3    0    0 -0.88332536068E+02  0.11377558001E+03 -0.16290434900E+03  0.23198335246E+03  0.80814165570E+02 0.  0.
         -6    2    1    2    0  502  0.15422913211E+03 -0.91766121351E+02  0.20050909715E+03  0.31945220812E+03  0.17215739604E+03 0.  0.
        -24    2    5    5    0    0  0.13482401585E+03 -0.83994723609E+02  0.22532158575E+03  0.28666954882E+03  0.78593793472E+02 0.  0.
          5    1    3    3  501    0 -0.65896596045E+02 -0.22009458663E+02 -0.16173114963E+03  0.17608473074E+03  0.47000000000E+01 0. -1.
        -13    1    4    4    0    0 -0.82523580384E+02  0.46504868708E+02 -0.11603386780E+03  0.14978886010E+03  0.00000000000E+00 0.  1.
         14    1    4    4    0    0 -0.58089556846E+01  0.67270711306E+02 -0.46870481204E+02  0.82194492358E+02  0.00000000000E+00 0. -1.
         -5    1    5    5    0  502  0.19405116262E+02 -0.77713977420E+01 -0.24812488599E+02  0.32782659296E+02  0.47000000000E+01 0.  1.
         11    1    6    6    0    0  0.68584810441E+02 -0.27101993223E+02  0.45189836304E+02  0.86489973783E+02  0.00000000000E+00 0. -1.
        -12    1    6    6    0    0  0.66239205411E+02 -0.56892730386E+02  0.18013174945E+03  0.20017957504E+03  0.00000000000E+00 0.  1.
</event>
<event>
12    1  0.8251070E-002  0.2092705E+03  0.7818608E-02  0.1142200E+00
         21   -1    0    0  503  502  0.00000000000E+00  0.00000000000E+00  0.28392589792E+03  0.28392589792E+03  0.00000000000E+00 0.  1.
         21   -1    0    0  501  503 -0.00000000000E+00 -0.00000000000E+00 -0.36402488730E+03  0.36402488730E+03  0.00000000000E+00 0.  1.
          6    2    1    2  501    0 -0.10640665883E+03  0.51363459960E+02 -0.28609748673E+03  0.35430212462E+03  0.17238805509E+03 0.  0.
         24    2    3    3    0    0 -0.95215913447E+02 -0.24316114374E+02 -0.21576877909E+03  0.25027882016E+03  0.80162199303E+02 0.  0.
         -6    2    1    2    0  502  0.10640665883E+03 -0.51363459960E+02  0.20599849735E+03  0.29364866060E+03  0.17272397893E+03 0.  0.
        -24    2    5    5    0    0  0.66140224933E+02 -0.55382932289E+02  0.41678192820E+02  0.12435366853E+03  0.79277768498E+02 0.  0.
          5    1    3    3  501    0 -0.11190745382E+02  0.75679574334E+02 -0.70328707642E+02  0.10402330447E+03  0.47000000000E+01 0. -1.
        -13    1    4    4    0    0 -0.50478872179E+02  0.21014599422E+02 -0.14553803586E+03  0.15547041457E+03  0.00000000000E+00 0.  1.
         14    1    4    4    0    0 -0.44737041268E+02 -0.45330713796E+02 -0.70230743230E+02  0.94808405584E+02  0.00000000000E+00 0. -1.
         -5    1    5    5    0  502  0.40266433896E+02  0.40194723290E+01  0.16432030453E+03  0.16929499207E+03  0.47000000000E+01 0.  1.
         13    1    6    6    0    0  0.62685091479E+01  0.13665752174E+02 -0.11217730649E+02  0.18758583910E+02  0.00000000000E+00 0. -1.
        -14    1    6    6    0    0  0.59871715785E+02 -0.69048684463E+02  0.52895923469E+02  0.10559508462E+03  0.00000000000E+00 0.  1.
</event>
<event>
12    1  0.8251070E-002  0.2191459E+03  0.7818608E-02  0.1134658E+00
         21   -1    0    0  501  502  0.00000000000E+00  0.00000000000E+00  0.21345365821E+03  0.21345365821E+03  0.00000000000E+00 0.  1.
         21   -1    0    0  502  503 -0.00000000000E+00 -0.00000000000E+00 -0.61532331284E+03  0.61532331284E+03  0.00000000000E+00 0.  1.
         -6    2    1    2    0  503  0.76147422067E+02 -0.11310764055E+03 -0.53141889753E+03  0.57483126300E+03  0.17156097469E+03 0.  0.
        -24    2    3    3    0    0  0.76613724667E+02 -0.83241930977E+02 -0.20643680152E+03  0.24844555442E+03  0.79436506758E+02 0.  0.
          6    2    1    2  501    0 -0.76147422067E+02  0.11310764055E+03  0.12954924290E+03  0.25394570805E+03  0.17062721958E+03 0.  0.
         24    2    5    5    0    0 -0.10027023349E+03  0.31774533492E+02  0.63496051688E+02  0.14632555006E+03  0.79471235794E+02 0.  0.
          5    1    5    5  501    0  0.24122811423E+02  0.81333107060E+02  0.66053191215E+02  0.10762015798E+03  0.47000000000E+01 0. -1.
        -13    1    6    6    0    0 -0.97152327117E+01  0.22071456270E+02  0.48310551870E+02  0.53994854852E+02  0.00000000000E+00 0.  1.
         14    1    6    6    0    0 -0.90555000778E+02  0.97030772226E+01  0.15185499818E+02  0.92330695211E+02  0.00000000000E+00 0. -1.
         -5    1    3    3    0  503 -0.46630260047E+00 -0.29865709576E+02 -0.32498209600E+03  0.32638570858E+03  0.47000000000E+01 0.  1.
         13    1    4    4    0    0  0.47112421450E+02 -0.21464414780E+02 -0.31527918653E+02  0.60616095316E+02  0.00000000000E+00 0. -1.
        -14    1    4    4    0    0  0.29501303217E+02 -0.61777516196E+02 -0.17490888287E+03  0.18782945910E+03  0.00000000000E+00 0.  1.
</event>
<event>
12    1  0.8251070E-002  0.1960974E+03  0.7818608E-02  0.1153337E+00
         21   -1    0    0  503  502  0.00000000000E+00  0.00000000000E+00  0.51134103888E+02  0.51134103888E+02  0.00000000000E+00 0. -1.
         21   -1    0    0  501  503 -0.00000000000E+00 -0.00000000000E+00 -0.77373700263E+03  0.77373700263E+03  0.00000000000E+00 0. -1.
          6    2    1    2  501    0  0.63711573890E+02 -0.63182925297E+02 -0.28626731232E+03  0.34699156377E+03  0.17436434419E+03 0.  0.
         24    2    3    3    0    0 -0.19434075517E+02 -0.57562338197E+02 -0.95206287481E+02  0.13849409321E+03  0.80157785705E+02 0.  0.
         -6    2    1    2    0  502 -0.63711573890E+02  0.63182925297E+02 -0.43633558642E+03  0.47787954275E+03  0.17299961475E+03 0.  0.
        -24    2    5    5    0    0 -0.19891453153E+02  0.10579965904E+03 -0.29586733227E+03  0.32461568726E+03  0.79048265945E+02 0.  0.
          5    1    3    3  501    0  0.83145649407E+02 -0.56205871007E+01 -0.19106102484E+03  0.20849747055E+03  0.47000000000E+01 0. -1.
        -13    1    4    4    0    0 -0.22788012637E+02 -0.62806918362E+02 -0.10642761427E+03  0.12566160748E+03  0.00000000000E+00 0.  1.
         14    1    4    4    0    0  0.33539371207E+01  0.52445801655E+01  0.11221326788E+02  0.12832485738E+02  0.00000000000E+00 0. -1.
         -5    1    5    5    0  502 -0.43820120737E+02 -0.42616733739E+02 -0.14046825415E+03  0.15326385549E+03  0.47000000000E+01 0.  1.
         11    1    6    6    0    0 -0.18886024891E+02  0.46402870586E+02 -0.46785163632E+02  0.68547500836E+02  0.00000000000E+00 0. -1.
        -12    1    6    6    0    0 -0.10054282627E+01  0.59396788450E+02 -0.24908216864E+03  0.25606818642E+03  0.00000000000E+00 0.  1.
</event>
<event>
12    1  0.8251070E-002  0.2161448E+03  0.7818608E-02  0.1136860E+00
         21   -1    0    0  503  502  0.00000000000E+00  0.00000000000E+00  0.14875366469E+04  0.14875366469E+04  0.00000000000E+00 0. -1.
         21   -1    0    0  501  503 -0.00000000000E+00 -0.00000000000E+00 -0.31663068487E+02  0.31663068487E+02  0.00000000000E+00 0. -1.
          6    2    1    2  501    0 -0.95416219208E+02 -0.89736126743E+02  0.65227995177E+03  0.68704511494E+03  0.17147894085E+03 0.  0.
         24    2    3    3    0    0 -0.11198958560E+03 -0.27261981540E+02  0.33507703074E+03  0.36328983946E+03  0.80112470981E+02 0.  0.
         -6    2    1    2    0  502  0.95416219208E+02  0.89736126743E+02  0.80359362665E+03  0.83215460045E+03  0.17193526377E+03 0.  0.
        -24    2    5    5    0    0  0.13196832237E+03  0.52761831937E+02  0.57528705233E+03  0.59795567517E+03  0.79977170967E+02 0.  0.
          5    1    3    3  501    0  0.16573366391E+02 -0.62474145203E+02  0.31720292103E+03  0.32375527548E+03  0.47000000000E+01 0. -1.
        -11    1    4    4    0    0 -0.77865206792E+01  0.18289119304E+02  0.10235397648E+03  0.10426628549E+03  0.00000000000E+00 0.  1.
         12    1    4    4    0    0 -0.10420306492E+03 -0.45551100843E+02  0.23272305426E+03  0.25902355397E+03  0.00000000000E+00 0. -1.
         -5    1    5    5    0  502 -0.36552103167E+02  0.36974294806E+02  0.22830657432E+03  0.23419892528E+03  0.47000000000E+01 0.  1.
         13    1    6    6    0    0  0.89582914294E+02  0.71961472701E+02  0.44547514636E+03  0.46005614669E+03  0.00000000000E+00 0. -1.
        -14    1    6    6    0    0  0.42385408081E+02 -0.19199640765E+02  0.12981190597E+03  0.13789952848E+03  0.00000000000E+00 0.  1.
</event>
<event>
12    1  0.8251070E-002  0.2938373E+03  0.7818608E-02  0.1089731E+00
         21   -1    0    0  501  502  0.00000000000E+00  0.00000000000E+00  0.30602351792E+03  0.30602351792E+03  0.00000000000E+00 0.  1.
         21   -1    0    0  502  503 -0.00000000000E+00 -0.00000000000E+00 -0.41649105425E+03  0.41649105425E+03  0.00000000000E+00 0. -1.
         -6    2    1    2    0  503 -0.87293458047E+02 -0.20797685248E+03 -0.26850863992E+03  0.39804174345E+03  0.18832371287E+03 0.  0.
        -24    2    3    3    0    0 -0.11971233643E+03 -0.20959544597E+03 -0.20585576786E+03  0.32732345799E+03  0.80639658521E+02 0.  0.
          6    2    1    2  501    0  0.87293458047E+02  0.20797685248E+03  0.15804110360E+03  0.32447282873E+03  0.17155496837E+03 0.  0.
         24    2    5    5    0    0  0.10056931045E+03  0.18287982687E+03  0.76151398546E+02  0.23767350416E+03  0.84441943371E+02 0.  0.
          5    1    5    5  501    0 -0.13275852405E+02  0.25097025608E+02  0.81889705051E+02  0.86799324564E+02  0.47000000000E+01 0. -1.
        -11    1    6    6    0    0  0.61811753873E+02  0.17394579518E+03  0.69993360137E+02  0.19742568992E+03  0.00000000000E+00 0.  1.
         12    1    6    6    0    0  0.38757556579E+02  0.89340316893E+01  0.61580384086E+01  0.40247814242E+02  0.00000000000E+00 0. -1.
         -5    1    3    3    0  503  0.32418878383E+02  0.16185934898E+01 -0.62652872062E+02  0.70718285458E+02  0.47000000000E+01 0.  1.
         11    1    4    4    0    0 -0.53482113451E+02 -0.11000648538E+03 -0.15476706591E+03  0.19726785844E+03  0.00000000000E+00 0. -1.
        -12    1    4    4    0    0 -0.66230222978E+02 -0.99588960591E+02 -0.51088701954E+02  0.13005559955E+03  0.00000000000E+00 0.  1.
</event>
<event>
12    1  0.8251070E-002  0.1910953E+03  0.7818608E-02  0.1157667E+00
         21   -1    0    0  501  502  0.00000000000E+00  0.00000000000E+00  0.20130583170E+03  0.20130583170E+03  0.00000000000E+00 0.  1.
         21   -1    0    0  502  503 -0.00000000000E+00 -0.00000000000E+00 -0.18074741252E+03  0.18074741252E+03  0.00000000000E+00 0.  1.
         -6    2    1    2    0  503 -0.78720447613E+02  0.20636719963E+02  0.15745397397E+02  0.19089730842E+03  0.17196244282E+03 0.  0.
        -24    2    3    3    0    0  0.29686987082E+01 -0.57527016324E+01  0.55128393137E+02  0.96331836118E+02  0.78732307041E+02 0.  0.
          6    2    1    2  501    0  0.78720447613E+02 -0.20636719963E+02  0.48130217785E+01  0.19115593580E+03  0.17290067533E+03 0.  0.
         24    2    5    5    0    0  0.59952489483E+02 -0.76656109159E+02  0.24668934807E+02  0.12865189193E+03  0.80450561744E+02 0.  0.
          5    1    5    5  501    0  0.18767958129E+02  0.56019389196E+02 -0.19855913029E+02  0.62504043873E+02  0.47000000000E+01 0. -1.
        -11    1    6    6    0    0  0.37935999438E+02 -0.69801254662E+02 -0.16801988107E+02  0.81201367045E+02  0.00000000000E+00 0.  1.
         12    1    6    6    0    0  0.22016490046E+02 -0.68548544974E+01  0.41470922914E+02  0.47450524881E+02  0.00000000000E+00 0. -1.
         -5    1    3    3    0  503 -0.81689146321E+02  0.26389421596E+02 -0.39382995740E+02  0.94565472305E+02  0.47000000000E+01 0.  1.
         11    1    4    4    0    0 -0.63042167736E+01  0.26265233558E+02  0.56863655997E+02  0.62953006412E+02  0.00000000000E+00 0. -1.
        -12    1    4    4    0    0  0.92729154818E+01 -0.32017935190E+02 -0.17352628598E+01  0.33378829706E+02  0.00000000000E+00 0.  1.
</event>
<event>
12    1  0.8251070E-002  0.2014723E+03  0.7818608E-02  0.1149047E+00
         21   -1    0    0  501  502  0.00000000000E+00  0.00000000000E+00  0.73008663140E+02  0.73008663140E+02  0.00000000000E+00 0.  1.
         21   -1    0    0  502  503 -0.00000000000E+00 -0.00000000000E+00 -0.12215000624E+04  0.12215000624E+04  0.00000000000E+00 0.  1.
         -6    2    1    2    0  503 -0.21053719473E+02 -0.98425618288E+02 -0.10528823290E+04  0.10715016135E+04  0.17153322588E+03 0.  0.
        -24    2    3    3    0    0  0.12831169111E+02 -0.12616465337E+03 -0.89473102005E+03  0.90733229157E+03  0.81401046813E+02 0.  0.
          6    2    1    2  501    0  0.21053719473E+02  0.98425618288E+02 -0.95609070347E+02  0.22300711212E+03  0.17452855436E+03 0.  0.
         24    2    5    5    0    0  0.59441234871E+02  0.11715419415E+03 -0.54816516638E+02  0.16375778023E+03  0.80953038717E+02 0.  0.
          5    1    5    5  501    0 -0.38387515398E+02 -0.18728575864E+02 -0.40792553709E+02  0.59249331899E+02  0.47000000000E+01 0. -1.
        -13    1    6    6    0    0  0.17656170954E+02  0.37536715092E+02 -0.60844535317E+02  0.73639682445E+02  0.00000000000E+00 0.  1.
         14    1    6    6    0    0  0.41785063917E+02  0.79617479060E+02  0.60280186782E+01  0.90118097780E+02  0.00000000000E+00 0. -1.
         -5    1    3    3    0  503 -0.33884888584E+02  0.27739035081E+02 -0.15815130890E+03  0.16416932188E+03  0.47000000000E+01 0.  1.
         11    1    4    4    0    0  0.13995660914E+02 -0.18776417894E+02 -0.41795288562E+03  0.41860846503E+03  0.00000000000E+00 0. -1.
        -12    1    4    4    0    0 -0.11644918026E+01 -0.10738823547E+03 -0.47677813443E+03  0.48872382655E+03  0.00000000000E+00 0.  1.
</event>
<event>
12    1  0.8251070E-002  0.4213768E+03  0.7818608E-02  0.1036711E+00
         21   -1    0    0  503  502  0.00000000000E+00  0.00000000000E+00  0.38688438946E+03  0.38688438946E+03  0.00000000000E+00 0.  1.
         21   -1    0    0  501  503 -0.00000000000E+00 -0.00000000000E+00 -0.10532357946E+04  0.10532357946E+04  0.00000000000E+00 0. -1.
          6    2    1    2  501    0  0.29711363416E+03  0.24490660518E+03 -0.87442871735E+03  0.97016847771E+03  0.16836132733E+03 0.  0.
         24    2    3    3    0    0  0.10718818234E+03  0.41969969195E+02 -0.33844207261E+03  0.36638148810E+03  0.80259414175E+02 0.  0.
         -6    2    1    2    0  502 -0.29711363416E+03 -0.24490660518E+03  0.20807731218E+03  0.46995170638E+03  0.17118026061E+03 0.  0.
        -24    2    5    5    0    0 -0.13426301675E+03 -0.18816323148E+03  0.88914287414E+02  0.26028041478E+03  0.80051136564E+02 0.  0.
          5    1    3    3  501    0  0.18992545182E+03  0.20293663598E+03 -0.53598664475E+03  0.60378698961E+03  0.47000000000E+01 0. -1.
        -13    1    4    4    0    0  0.11833161998E+03  0.42646771860E+02 -0.28103551689E+03  0.30789946604E+03  0.00000000000E+00 0.  1.
         14    1    4    4    0    0 -0.11143437639E+02 -0.67680266478E+00 -0.57406555719E+02  0.58482022056E+02  0.00000000000E+00 0. -1.
         -5    1    5    5    0  502 -0.16285061741E+03 -0.56743373697E+02  0.11916302476E+03  0.20967129160E+03  0.47000000000E+01 0.  1.
         13    1    6    6    0    0 -0.43023350633E+01 -0.27490755340E+02 -0.12001685020E+02  0.30303335781E+02  0.00000000000E+00 0. -1.
        -14    1    6    6    0    0 -0.12996068169E+03 -0.16067247614E+03  0.10091597243E+03  0.22997707900E+03  0.00000000000E+00 0.  1.
</event>
<event>
12    1  0.8251070E-002  0.1825960E+03  0.7818608E-02  0.1165393E+00
         21   -1    0    0  501  502  0.00000000000E+00  0.00000000000E+00  0.11331814768E+03  0.11331814768E+03  0.00000000000E+00 0.  1.
         21   -1    0    0  502  503 -0.00000000000E+00 -0.00000000000E+00 -0.33606166211E+03  0.33606166211E+03  0.00000000000E+00 0.  1.
         -6    2    1    2    0  503  0.15754077769E+02  0.57918679017E+02 -0.19124341544E+03  0.26441512596E+03  0.17244868960E+03 0.  0.
        -24    2    3    3    0    0 -0.30792732860E+02  0.84641967366E+02 -0.88149971279E+02  0.14809192128E+03  0.77771104367E+02 0.  0.
          6    2    1    2  501    0 -0.15754077769E+02 -0.57918679017E+02 -0.31500098991E+02  0.18496468383E+03  0.17209565271E+03 0.  0.
         24    2    5    5    0    0 -0.75334387996E+02 -0.39647097405E+02 -0.33621726175E+02  0.12243264913E+03  0.81315255366E+02 0.  0.
          5    1    5    5  501    0  0.59580310227E+02 -0.18271581613E+02  0.21216271838E+01  0.62532034697E+02  0.47000000000E+01 0. -1.
        -11    1    6    6    0    0 -0.52375780351E+02 -0.33790540285E+02  0.18634379850E+02  0.65055845952E+02  0.00000000000E+00 0.  1.
         12    1    6    6    0    0 -0.22958607645E+02 -0.58565571197E+01 -0.52256106025E+02  0.57376803180E+02  0.00000000000E+00 0. -1.
         -5    1    3    3    0  503  0.46546810629E+02 -0.26723288349E+02 -0.10309344416E+03  0.11632320469E+03  0.47000000000E+01 0.  1.
         11    1    4    4    0    0 -0.17333768195E+02 -0.10617975740E+02 -0.28104859041E+02  0.34685501731E+02  0.00000000000E+00 0. -1.
        -12    1    4    4    0    0 -0.13458964665E+02  0.95259943106E+02 -0.60045112238E+02  0.11340641955E+03  0.00000000000E+00 0.  1.
</event>
<event>
12    1  0.8251070E-002  0.2017583E+03  0.7818608E-02  0.1148903E+00
         21   -1    0    0  503  502  0.00000000000E+00  0.00000000000E+00  0.42055343798E+02  0.42055343798E+02  0.00000000000E+00 0.  1.
         21   -1    0    0  501  503 -0.00000000000E+00 -0.00000000000E+00 -0.10635614397E+04  0.10635614397E+04  0.00000000000E+00 0.  1.
          6    2    1    2  501    0  0.74069436521E+02 -0.70368558722E+02 -0.68518402134E+03  0.71341917683E+03  0.17044577813E+03 0.  0.
         24    2    3    3    0    0  0.30548294621E+02 -0.39551917821E+02 -0.62860465109E+03  0.63552777623E+03  0.79083465305E+02 0.  0.
         -6    2    1    2    0  502 -0.74069436521E+02  0.70368558722E+02 -0.33632207459E+03  0.39219760670E+03  0.17397818645E+03 0.  0.
        -24    2    5    5    0    0 -0.75635482963E+02  0.10105043973E+03 -0.18542488910E+03  0.23813307181E+03  0.79956567813E+02 0.  0.
          5    1    3    3  501    0  0.43521141900E+02 -0.30816640901E+02 -0.56579370253E+02  0.77891400597E+02  0.47000000000E+01 0. -1.
        -13    1    4    4    0    0  0.56001023268E+01  0.11155158298E+02 -0.39454964143E+03  0.39474703071E+03  0.00000000000E+00 0.  1.
         14    1    4    4    0    0  0.24948192294E+02 -0.50707076119E+02 -0.23405500965E+03  0.24078074552E+03  0.00000000000E+00 0. -1.
         -5    1    5    5    0  502  0.15660464427E+01 -0.30681881008E+02 -0.15089718548E+03  0.15406453489E+03  0.47000000000E+01 0.  1.
         11    1    6    6    0    0 -0.62334854934E+02  0.33140769331E+02 -0.13555130646E+03  0.15283357424E+03  0.00000000000E+00 0. -1.
        -12    1    6    6    0    0 -0.13300628029E+02  0.67909670399E+02 -0.49873582643E+02  0.85299497568E+02  0.00000000000E+00 0.  1.
</event>
<event>
12    1  0.8251070E-002  0.1796089E+03  0.7818608E-02  0.1168228E+00
         21   -1    0    0  501  502  0.00000000000E+00  0.00000000000E+00  0.18443222489E+03  0.18443222489E+03  0.00000000000E+00 0. -1.
         21   -1    0    0  502  503 -0.00000000000E+00 -0.00000000000E+00 -0.22667308656E+03  0.22667308656E+03  0.00000000000E+00 0. -1.
         -6    2    1    2    0  503  0.25152629203E+02  0.42609851932E+02 -0.11952982607E+03  0.21574688582E+03  0.17265886940E+03 0.  0.
        -24    2    3    3    0    0  0.22375657090E+02  0.13456412742E+02  0.89972967466E+01  0.83841821892E+02  0.79162836453E+02 0.  0.
          6    2    1    2  501    0 -0.25152629203E+02 -0.42609851932E+02  0.77288964402E+02  0.19535842564E+03  0.17246181088E+03 0.  0.
         24    2    5    5    0    0 -0.75917621071E+02  0.33305109078E+01  0.48256279353E+02  0.12084273509E+03  0.80620844909E+02 0.  0.
          5    1    5    5  501    0  0.50764991868E+02 -0.45940362840E+02  0.29032685048E+02  0.74515690551E+02  0.47000000000E+01 0. -1.
        -13    1    6    6    0    0  0.90794447079E+01 -0.99334701816E+01 -0.10156049550E+02  0.16859878069E+02  0.00000000000E+00 0.  1.
         14    1    6    6    0    0 -0.84997065779E+02  0.13263981089E+02  0.58412328903E+02  0.10398285702E+03  0.00000000000E+00 0. -1.
         -5    1    3    3    0  503  0.27769721134E+01  0.29153439190E+02 -0.12852712281E+03  0.13190506393E+03  0.47000000000E+01 0.  1.
         11    1    4    4    0    0  0.72218777017E+01  0.40071255485E+02 -0.16556901565E+02  0.43954431211E+02  0.00000000000E+00 0. -1.
        -12    1    4    4    0    0  0.15153779388E+02 -0.26614842743E+02  0.25554198311E+02  0.39887390681E+02  0.00000000000E+00 0.  1.
</event>
<event>
12    1  0.8251070E-002  0.1967255E+03  0.7818608E-02  0.1152819E+00
         21   -1    0    0  501  502  0.00000000000E+00  0.00000000000E+00  0.15800316960E+04  0.15800316960E+04  0.00000000000E+00 0. -1.
         21   -1    0    0  502  503 -0.00000000000E+00 -0.00000000000E+00 -0.10691969812E+03  0.10691969812E+03  0.00000000000E+00 0. -1.
         -6    2    1    2    0  503  0.91063191289E+02  0.39187414734E+02 -0.42033119932E+01  0.19677039469E+03  0.16991986968E+03 0.  0.
        -24    2    3    3    0    0  0.57688224927E+02  0.57543175666E+02 -0.60348739477E+02  0.12876141465E+03  0.79362353696E+02 0.  0.
          6    2    1    2  501    0 -0.91063191289E+02 -0.39187414734E+02  0.14773153099E+04  0.14901809995E+04  0.16837674431E+03 0.  0.
         24    2    5    5    0    0 -0.11417949220E+03  0.89074531461E+01  0.11364065807E+04  0.11450892272E+04  0.81811504616E+02 0.  0.
          5    1    5    5  501    0  0.23116300913E+02 -0.48094867881E+02  0.34090872917E+03  0.34509177230E+03  0.47000000000E+01 0. -1.
        -13    1    6    6    0    0  0.10003204940E+02 -0.99717173105E+01  0.79532109222E+02  0.80776578613E+02  0.00000000000E+00 0.  1.
         14    1    6    6    0    0 -0.12418269714E+03  0.18879170457E+02  0.10568744715E+04  0.10643126486E+04  0.00000000000E+00 0. -1.
         -5    1    3    3    0  503  0.33374966362E+02 -0.18355760931E+02  0.56145427484E+02  0.68008980042E+02  0.47000000000E+01 0.  1.
         11    1    4    4    0    0  0.64784897004E+02  0.21810357053E+02 -0.62009651406E+02  0.92292856832E+02  0.00000000000E+00 0. -1.
        -12    1    4    4    0    0 -0.70966720771E+01  0.35732818613E+02  0.16609119291E+01  0.36468557814E+02  0.00000000000E+00 0.  1.
</event>
<event>
12    1  0.8251070E-002  0.2288380E+03  0.7818608E-02  0.1127719E+00
         21   -1    0    0  501  502  0.00000000000E+00  0.00000000000E+00  0.36773551699E+03  0.36773551699E+03  0.00000000000E+00 0.  1.
         21   -1    0    0  502  503 -0.00000000000E+00 -0.00000000000E+00 -0.17957250688E+03  0.17957250688E+03  0.00000000000E+00 0. -1.
         -6    2    1    2    0  503  0.14918237198E+03 -0.12783030807E+02 -0.32161565717E+02  0.22964510320E+03  0.17112486998E+03 0.  0.
        -24    2    3    3    0    0  0.41861079062E+02 -0.48173631074E+02  0.20717968044E+02  0.10479042931E+03  0.80490690167E+02 0.  0.
          6    2    1    2  501    0 -0.14918237198E+03  0.12783030807E+02  0.22032457582E+03  0.31766292067E+03  0.17305498106E+03 0.  0.
         24    2    5    5    0    0 -0.11895833262E+03  0.17421129420E+02  0.24084199470E+03  0.28054070371E+03  0.79016703149E+02 0.  0.
          5    1    5    5  501    0 -0.30224039368E+02 -0.46380986134E+01 -0.20517418882E+02  0.37122216960E+02  0.47000000000E+01 0. -1.
        -11    1    6    6    0    0 -0.73310908624E+02 -0.25953189026E+02  0.16149076626E+03  0.17924096889E+03  0.00000000000E+00 0.  1.
         12    1    6    6    0    0 -0.45647423993E+02  0.43374318446E+02  0.79351228444E+02  0.10129973481E+03  0.00000000000E+00 0. -1.
         -5    1    3    3    0  503  0.10732129292E+03  0.35390600267E+02 -0.52879533761E+02  0.12485467389E+03  0.47000000000E+01 0.  1.
         11    1    4    4    0    0 -0.72419175132E+01 -0.38776843675E+01 -0.23729380621E+02  0.25111059515E+02  0.00000000000E+00 0. -1.
        -12    1    4    4    0    0  0.49102996575E+02 -0.44295946706E+02  0.44447348664E+02  0.79679369793E+02  0.00000000000E+00 0.  1.
</event>
<event>
12    1  0.8251070E-002  0.2313634E+03  0.7818608E-02  0.1125686E+00
         21   -1    0    0  501  502  0.00000000000E+00  0.00000000000E+00  0.11551142904E+03  0.11551142904E+03  0.00000000000E+00 0.  1.
         21   -1    0    0  502  503 -0.00000000000E+00 -0.00000000000E+00 -0.61338404752E+03  0.61338404752E+03  0.00000000000E+00 0.  1.
         -6    2    1    2    0  503  0.15474671188E+03 -0.11026116235E+02 -0.42916682552E+03  0.48755838119E+03  0.17164175152E+03 0.  0.
        -24    2    3    3    0    0  0.49013795149E+02 -0.39209712847E+02 -0.62042911103E+02  0.10444505156E+03  0.55854205586E+02 0.  0.
          6    2    1    2  501    0 -0.15474671188E+03  0.11026116235E+02 -0.68705792956E+02  0.24133709537E+03  0.17162455402E+03 0.  0.
         24    2    5    5    0    0 -0.69334840582E+02  0.22285193842E+02  0.27947275440E+02  0.11177683828E+03  0.80056613650E+02 0.  0.
          5    1    5    5  501    0 -0.85411871293E+02 -0.11259077608E+02 -0.96653068396E+02  0.12956025709E+03  0.47000000000E+01 0. -1.
        -11    1    6    6    0    0 -0.33662509379E+02 -0.12893540268E+02  0.46072426102E+02  0.58498515923E+02  0.00000000000E+00 0.  1.
         12    1    6    6    0    0 -0.35672331203E+02  0.35178734110E+02 -0.18125150662E+02  0.53278322361E+02  0.00000000000E+00 0. -1.
         -5    1    3    3    0  503  0.10573291673E+03  0.28183596613E+02 -0.36712391442E+03  0.38311332963E+03  0.47000000000E+01 0.  1.
         11    1    4    4    0    0  0.34120849015E+02 -0.52456692160E+02 -0.54978908588E+02  0.83298363006E+02  0.00000000000E+00 0. -1.
        -12    1    4    4    0    0  0.14892946134E+02  0.13246979313E+02 -0.70640025148E+01  0.21146688559E+02  0.00000000000E+00 0.  1.
</event>
<event>
12    1  0.8251070E-002  0.1944835E+03  0.7818608E-02  0.1154724E+00
         21   -1    0    0  503  502  0.00000000000E+00  0.00000000000E+00  0.87929276506E+02  0.87929276506E+02  0.00000000000E+00 0. -1.
         21   -1    0    0  501  503 -0.00000000000E+00 -0.00000000000E+00 -0.55745385566E+03  0.55745385566E+03  0.00000000000E+00 0. -1.
          6    2    1    2  501    0 -0.87971156751E+02 -0.79707273075E+01 -0.38992974029E+03  0.43524227491E+03  0.17201214664E+03 0.  0.
         24    2    3    3    0    0 -0.23180207475E+02  0.30241255048E+00 -0.34764190841E+03  0.35728932322E+03  0.79141332666E+02 0.  0.
         -6    2    1    2    0  502  0.87971156751E+02  0.79707273075E+01 -0.79594838872E+02  0.21014085726E+03  0.17326680179E+03 0.  0.
        -24    2    5    5    0    0  0.85557225868E+02  0.57542973876E+02 -0.19052082581E+02  0.13171413968E+03  0.79714490524E+02 0.  0.
          5    1    3    3  501    0 -0.64790949276E+02 -0.82731398579E+01 -0.42287831881E+02  0.77952951685E+02  0.47000000000E+01 0. -1.
        -13    1    4    4    0    0  0.15668899780E+02 -0.27794784062E+02 -0.18486571583E+03  0.18759903340E+03  0.00000000000E+00 0.  1.
         14    1    4    4    0    0 -0.38849107255E+02  0.28097196612E+02 -0.16277619257E+03  0.16969028982E+03  0.00000000000E+00 0. -1.
         -5    1    5    5    0  502  0.24139308834E+01 -0.49572246569E+02 -0.60542756291E+02  0.78426717587E+02  0.47000000000E+01 0.  1.
         11    1    6    6    0    0  0.67269072526E+02  0.54929788976E+00 -0.24539023166E+02  0.71607216847E+02  0.00000000000E+00 0. -1.
        -12    1    6    6    0    0  0.18288153342E+02  0.56993675987E+02  0.54869405852E+01  0.60106922830E+02  0.00000000000E+00 0.  1.
</event>
<event>
12    1  0.8251070E-002  0.2502421E+03  0.7818608E-02  0.1113317E+00
         21   -1    0    0  503  502  0.00000000000E+00  0.00000000000E+00  0.54991298197E+03  0.54991298197E+03  0.00000000000E+00 0.  1.
         21   -1    0    0  501  503 -0.00000000000E+00 -0.00000000000E+00 -0.18900832049E+03  0.18900832049E+03  0.00000000000E+00 0.  1.
          6    2    1    2  501    0 -0.47348588881E+02 -0.17377129495E+03 -0.53447758875E+02  0.25486652633E+03  0.17222639605E+03 0.  0.
         24    2    3    3    0    0 -0.45379307827E+02 -0.19926275628E+03 -0.61537620835E+02  0.22764101375E+03  0.79174647116E+02 0.  0.
         -6    2    1    2    0  502  0.47348588881E+02  0.17377129495E+03  0.41435242035E+03  0.48405477614E+03  0.17373182273E+03 0.  0.
        -24    2    5    5    0    0  0.70475861415E+02  0.38182592471E+02  0.19866424375E+03  0.22819808480E+03  0.78626501585E+02 0.  0.
          5    1    3    3  501    0 -0.19692810541E+01  0.25491461327E+02  0.80898619595E+01  0.27225512575E+02  0.47000000000E+01 0. -1.
        -13    1    4    4    0    0  0.40374163767E+00 -0.87728284367E+02 -0.61390093992E+02  0.10707548051E+03  0.00000000000E+00 0.  1.
         14    1    4    4    0    0 -0.45783049465E+02 -0.11153447191E+03 -0.14752684261E+00  0.12056553325E+03  0.00000000000E+00 0. -1.
         -5    1    5    5    0  502 -0.23127272534E+02  0.13558870248E+03  0.21568817661E+03  0.25585669134E+03  0.47000000000E+01 0.  1.
         11    1    6    6    0    0  0.19872900284E+02  0.27352982664E+01 -0.92129225088E-01  0.20060471333E+02  0.00000000000E+00 0. -1.
        -12    1    6    6    0    0  0.50602961131E+02  0.35447294204E+02  0.19875637297E+03  0.20813761347E+03  0.00000000000E+00 0.  1.
</event>
<event>
12    1  0.8251070E-002  0.1879738E+03  0.7818608E-02  0.1160384E+00
         21   -1    0    0  501  502  0.00000000000E+00  0.00000000000E+00  0.71607284707E+03  0.71607284707E+03  0.00000000000E+00 0.  1.
         21   -1    0    0  502  503 -0.00000000000E+00 -0.00000000000E+00 -0.16953946916E+03  0.16953946916E+03  0.00000000000E+00 0.  1.
         -6    2    1    2    0  503 -0.73486034760E+02  0.17121337503E+02 -0.99643033184E+02  0.21275073191E+03  0.17216504396E+03 0.  0.
        -24    2    3    3    0    0 -0.54199721604E+02 -0.28567319898E+01  0.12806788783E+02  0.96827750598E+02  0.79156987735E+02 0.  0.
          6    2    1    2  501    0  0.73486034760E+02 -0.17121337503E+02  0.64617641109E+03  0.67286158433E+03  0.17177141762E+03 0.  0.
         24    2    5    5    0    0  0.23051792326E+02  0.52591363705E+02  0.39926846376E+03  0.41134849101E+03  0.80591800074E+02 0.  0.
          5    1    5    5  501    0  0.50434242434E+02 -0.69712701208E+02  0.24690794733E+03  0.26151309332E+03  0.47000000000E+01 0. -1.
        -13    1    6    6    0    0  0.31950162565E+02  0.71172423910E+02  0.32891992021E+03  0.33804532348E+03  0.00000000000E+00 0.  1.
         14    1    6    6    0    0 -0.88983702390E+01 -0.18581060205E+02  0.70348543546E+02  0.73303167533E+02  0.00000000000E+00 0. -1.
         -5    1    3    3    0  503 -0.19286313155E+02  0.19978069493E+02 -0.11244982197E+03  0.11592298131E+03  0.47000000000E+01 0.  1.
         13    1    4    4    0    0 -0.46416089763E+02  0.47518626238E+01 -0.28120711808E+02  0.54477591906E+02  0.00000000000E+00 0. -1.
        -14    1    4    4    0    0 -0.77836318416E+01 -0.76085946136E+01  0.40927500591E+02  0.42350158692E+02  0.00000000000E+00 0.  1.
</event>
<event>
12    1  0.8251070E-002  0.2238630E+03  0.7818608E-02  0.1131093E+00
         21   -1    0    0  503  502  0.00000000000E+00  0.00000000000E+00  0.16737421077E+02  0.16737421077E+02  0.00000000000E+00 0.  1.
         21   -1    0    0  501  503 -0.00000000000E+00 -0.00000000000E+00 -0.30533932504E+04  0.30533932504E+04  0.00000000000E+00 0. -1.
          6    2    1    2  501    0 -0.52601133767E+02  0.13372363843E+03 -0.12960118381E+04  0.13151502940E+04  0.17124462136E+03 0.  0.
         24    2    3    3    0    0 -0.54297232823E+02  0.58112796288E+02 -0.39542474181E+03  0.41138091835E+03  0.80921239267E+02 0.  0.
         -6    2    1    2    0  502  0.52601133767E+02 -0.13372363843E+03 -0.17406439911E+04  0.17549803775E+04  0.17165584957E+03 0.  0.
        -24    2    5    5    0    0  0.95202142268E+02 -0.74064017425E+02 -0.10278647321E+04  0.10384257889E+04  0.85283556296E+02 0.  0.
          5    1    3    3  501    0  0.16960990560E+01  0.75610842145E+02 -0.90058709633E+03  0.90376937560E+03  0.47000000000E+01 0. -1.
        -13    1    4    4    0    0 -0.34376337532E+02  0.33518222553E+02 -0.36266542245E+03  0.36582975885E+03  0.00000000000E+00 0.  1.
         14    1    4    4    0    0 -0.19920895290E+02  0.24594573735E+02 -0.32759319359E+02  0.45551159494E+02  0.00000000000E+00 0. -1.
         -5    1    5    5    0  502 -0.42601008501E+02 -0.59659621008E+02 -0.71277925905E+03  0.71655458859E+03  0.47000000000E+01 0.  1.
         11    1    6    6    0    0  0.16719246802E+02 -0.55171900219E+02 -0.61828025650E+03  0.62096211428E+03  0.00000000000E+00 0. -1.
        -12    1    6    6    0    0  0.78482895466E+02 -0.18892117206E+02 -0.40958447559E+03  0.41746367461E+03  0.00000000000E+00 0.  1.
</event>
<event>
12    1  0.8251070E-002  0.2095518E+03  0.7818608E-02  0.1142714E+00
         21   -1    0    0  501  502  0.00000000000E+00  0.00000000000E+00  0.65787413045E+02  0.65787413045E+02  0.00000000000E+00 0.  1.
         21   -1    0    0  502  503 -0.00000000000E+00 -0.00000000000E+00 -0.10767234930E+04  0.10767234930E+04  0.00000000000E+00 0. -1.
         -6    2    1    2    0  503 -0.10113308257E+03 -0.52602611177E+02 -0.86592246552E+03  0.89091731447E+03  0.17583233444E+03 0.  0.
        -24    2    3    3    0    0 -0.17384369233E+02 -0.45104688314E+02 -0.68468466564E+03  0.69106913225E+03  0.80291998207E+02 0.  0.
          6    2    1    2  501    0  0.10113308257E+03  0.52602611177E+02 -0.14501361443E+03  0.25159359157E+03  0.17110070677E+03 0.  0.
         24    2    5    5    0    0  0.53040499333E+02  0.59342562819E+01 -0.15518140545E+03  0.18365018950E+03  0.82447641192E+02 0.  0.
          5    1    5    5  501    0  0.48092583237E+02  0.46668354895E+02  0.10167791022E+02  0.67943402073E+02  0.47000000000E+01 0. -1.
        -13    1    6    6    0    0  0.49788641508E+02  0.38912063963E+02 -0.83825863074E+02  0.10497539171E+03  0.00000000000E+00 0.  1.
         14    1    6    6    0    0  0.32518578247E+01 -0.32977807681E+02 -0.71355542375E+02  0.78674797785E+02  0.00000000000E+00 0. -1.
         -5    1    3    3    0  503 -0.83748713337E+02 -0.74979228629E+01 -0.18123779988E+03  0.19984818222E+03  0.47000000000E+01 0.  1.
         13    1    4    4    0    0 -0.34248101396E+02 -0.41933425487E+02 -0.23906409175E+03  0.24511830733E+03  0.00000000000E+00 0. -1.
        -14    1    4    4    0    0  0.16863732163E+02 -0.31712628272E+01 -0.44562057389E+03  0.44595082492E+03  0.00000000000E+00 0.  1.
</event>
<event>
12    1  0.8251070E-002  0.2144409E+03  0.7818608E-02  0.1138169E+00
         21   -1    0    0  503  502  0.00000000000E+00  0.00000000000E+00  0.32807865184E+03  0.32807865184E+03  0.00000000000E+00 0. -1.
         21   -1    0    0  501  503 -0.00000000000E+00 -0.00000000000E+00 -0.61929525569E+03  0.61929525569E+03  0.00000000000E+00 0. -1.
          6    2    1    2  501    0  0.12669909336E+03  0.97890138509E+01 -0.56239239804E+03  0.60188877289E+03  0.17273216407E+03 0.  0.
         24    2    3    3    0    0  0.75937681784E+02  0.68332758507E+02 -0.42241995999E+03  0.44183108217E+03  0.79625279755E+02 0.  0.
         -6    2    1    2    0  502 -0.12669909336E+03 -0.97890138509E+01  0.27117579419E+03  0.34548513464E+03  0.17226485960E+03 0.  0.
        -24    2    5    5    0    0 -0.89286014172E+01 -0.17047568306E+02  0.50789685967E+02  0.95455732205E+02  0.78497548381E+02 0.  0.
          5    1    3    3  501    0  0.50761411571E+02 -0.58543744656E+02 -0.13997243805E+03  0.16005769072E+03  0.47000000000E+01 0. -1.
        -11    1    4    4    0    0  0.34897840859E+02  0.26408512581E+02 -0.57682352530E+02  0.72405266568E+02  0.00000000000E+00 0.  1.
         12    1    4    4    0    0  0.41039840925E+02  0.41924245926E+02 -0.36473760746E+03  0.36942581561E+03  0.00000000000E+00 0. -1.
         -5    1    5    5    0  502 -0.11777049194E+03  0.72585544555E+01  0.22038610822E+03  0.25002940243E+03  0.47000000000E+01 0.  1.
         11    1    6    6    0    0  0.69848836713E+01  0.48848667946E+01  0.64518381567E+02  0.65078968059E+02  0.00000000000E+00 0. -1.
        -12    1    6    6    0    0 -0.15913485088E+02 -0.21932435101E+02 -0.13728695600E+02  0.30376764147E+02  0.00000000000E+00 0.  1.
</event>
<event>
12    1  0.8251070E-002  0.1859487E+03  0.7818608E-02  0.1162354E+00
         21   -1    0    0  503  502  0.00000000000E+00  0.00000000000E+00  0.10281928402E+04  0.10281928402E+04  0.00000000000E+00 0.  1.
         21   -1    0    0  501  503 -0.00000000000E+00 -0.00000000000E+00 -0.47412243442E+02  0.47412243442E+02  0.00000000000E+00 0.  1.
          6    2    1    2  501    0  0.60659234396E+01  0.71180437189E+02  0.19964523578E+03  0.27282801961E+03  0.17167835638E+03 0.  0.
         24    2    3    3    0    0  0.51840164885E+02  0.76150654655E+02  0.61829251560E+02  0.12744810440E+03  0.62720316212E+02 0.  0.
         -6    2    1    2    0  502 -0.60659234396E+01 -0.71180437189E+02  0.78113536103E+03  0.80277706408E+03  0.17080723726E+03 0.  0.
        -24    2    5    5    0    0  0.54973502939E+01 -0.18802976051E+02  0.16098645337E+03  0.18029504394E+03  0.78777483653E+02 0.  0.
          5    1    3    3  501    0 -0.45774241445E+02 -0.49702174668E+01  0.13781598422E+03  0.14537991521E+03  0.47000000000E+01 0. -1.
        -11    1    4    4    0    0  0.31402778726E+02  0.63474064286E+02  0.72311969946E+02  0.10121320243E+03  0.00000000000E+00 0.  1.
         12    1    4    4    0    0  0.20437386158E+02  0.12676590370E+02 -0.10482718386E+02  0.26234901966E+02  0.00000000000E+00 0. -1.
         -5    1    5    5    0  502 -0.11563273733E+02 -0.52377461138E+02  0.62014890765E+03  0.62248202014E+03  0.47000000000E+01 0.  1.
         13    1    6    6    0    0  0.33308868277E+02  0.45644462669E+01  0.12390803479E+03  0.12838814572E+03  0.00000000000E+00 0. -1.
        -14    1    6    6    0    0 -0.27811517983E+02 -0.23367422318E+02  0.37078418586E+02  0.51906898223E+02  0.00000000000E+00 0.  1.
</event>
<event>
12    1  0.8251070E-002  0.2182739E+03  0.7818608E-02  0.1136115E+00
         21   -1    0    0  501  502  0.00000000000E+00  0.00000000000E+00  0.24787499174E+02  0.24787499174E+02  0.00000000000E+00 0.  1.
         21   -1    0    0  502  503 -0.00000000000E+00 -0.00000000000E+00 -0.29248584331E+04  0.29248584331E+04  0.00000000000E+00 0.  1.
         -6    2    1    2    0  503  0.84404057965E+02  0.92642845716E+02 -0.23212988221E+04  0.23310825422E+04  0.17265820342E+03 0.  0.
        -24    2    3    3    0    0  0.22528873630E+01  0.95749890402E+02 -0.11175489666E+04  0.11245195421E+04  0.80345446906E+02 0.  0.
          6    2    1    2  501    0 -0.84404057965E+02 -0.92642845716E+02 -0.57877211181E+03  0.61856339005E+03  0.17870861268E+03 0.  0.
         24    2    5    5    0    0 -0.11919193082E+03 -0.10598186436E+03 -0.46613650866E+03  0.49983262482E+03  0.84323995311E+02 0.  0.
          5    1    5    5  501    0  0.34787872855E+02  0.13339018642E+02 -0.11263560314E+03  0.11873076523E+03  0.47000000000E+01 0. -1.
        -11    1    6    6    0    0 -0.63892457730E+02 -0.46937725376E+01 -0.19164371406E+03  0.20206828251E+03  0.00000000000E+00 0.  1.
         12    1    6    6    0    0 -0.55299473090E+02 -0.10128809182E+03 -0.27449279460E+03  0.29776434232E+03  0.00000000000E+00 0. -1.
         -5    1    3    3    0  503  0.82151170602E+02 -0.31070446860E+01 -0.12037498556E+04  0.12065630001E+04  0.47000000000E+01 0.  1.
         13    1    4    4    0    0  0.21623026898E+02  0.76980837302E+02 -0.49754616355E+03  0.50393034188E+03  0.00000000000E+00 0. -1.
        -14    1    4    4    0    0 -0.19370139535E+02  0.18769053100E+02 -0.62000280302E+03  0.62058920020E+03  0.00000000000E+00 0.  1.
</event>
<event>
12    1  0.8251070E-002  0.2546412E+03  0.7818608E-02  0.1111307E+00
         21   -1    0    0  501  502  0.00000000000E+00  0.00000000000E+00  0.10680826827E+03  0.10680826827E+03  0.00000000000E+00 0.  1.
         21   -1    0    0  502  503 -0.00000000000E+00 -0.00000000000E+00 -0.12573092127E+04  0.12573092127E+04  0.00000000000E+00 0. -1.
         -6    2    1    2    0  503  0.18648905815E+03 -0.19332524810E+02 -0.10739665408E+04  0.11037419410E+04  0.17230852037E+03 0.  0.
        -24    2    3    3    0    0  0.98904486940E+02  0.47068055921E+02 -0.73215345386E+03  0.74466204647E+03  0.80469770920E+02 0.  0.
          6    2    1    2  501    0 -0.18648905815E+03  0.19332524810E+02 -0.76534403547E+02  0.26037553992E+03  0.16366426468E+03 0.  0.
         24    2    5    5    0    0 -0.73791780728E+02  0.18177274220E+01  0.20269355610E+02  0.11070756654E+03  0.79979919213E+02 0.  0.
          5    1    5    5  501    0 -0.11269727742E+03  0.17514797388E+02 -0.96803759157E+02  0.14966797337E+03  0.47000000000E+01 0. -1.
        -11    1    6    6    0    0 -0.90142233539E+02 -0.51690091727E+01  0.21725713884E+02  0.92867365458E+02  0.00000000000E+00 0.  1.
         12    1    6    6    0    0  0.16350452812E+02  0.69867365946E+01 -0.14563582739E+01  0.17840201086E+02  0.00000000000E+00 0. -1.
         -5    1    3    3    0  503  0.87584571213E+02 -0.66400580731E+02 -0.34181308699E+03  0.35907989456E+03  0.47000000000E+01 0.  1.
         11    1    4    4    0    0  0.52360991926E+02 -0.16381433769E+02 -0.23498664749E+03  0.24130633922E+03  0.00000000000E+00 0. -1.
        -12    1    4    4    0    0  0.46543495013E+02  0.63449489690E+02 -0.49716680636E+03  0.50335570725E+03  0.00000000000E+00 0.  1.
</event>
<event>
12    1  0.8251070E-002  0.1720888E+03  0.7818608E-02  0.1176363E+00
         21   -1    0    0  503  502  0.00000000000E+00  0.00000000000E+00  0.67656971053E+03  0.67656971053E+03  0.00000000000E+00 0. -1.
         21   -1    0    0  501  503 -0.00000000000E+00 -0.00000000000E+00 -0.56767210990E+02  0.56767210990E+02  0.00000000000E+00 0. -1.
          6    2    1    2  501    0 -0.33962530265E+01  0.19378157629E+01  0.13185514135E+03  0.21679561811E+03  0.17204438981E+03 0.  0.
         24    2    3    3    0    0  0.24870882668E+01  0.33864233798E+02  0.15643774084E+03  0.17580410593E+03  0.72672862646E+02 0.  0.
         -6    2    1    2    0  502  0.33962530265E+01 -0.19378157629E+01  0.48794735819E+03  0.51654130341E+03  0.16943141416E+03 0.  0.
        -24    2    5    5    0    0  0.47612836418E+02 -0.24716458550E+02  0.42754175935E+03  0.43815189606E+03  0.79418149803E+02 0.  0.
          5    1    3    3  501    0 -0.58833412933E+01 -0.31926418035E+02 -0.24582599482E+02  0.40991512178E+02  0.47000000000E+01 0. -1.
        -13    1    4    4    0    0 -0.33394247214E+02  0.48375918765E+01  0.58425792382E+02  0.67469632114E+02  0.00000000000E+00 0.  1.
         14    1    4    4    0    0  0.35881335481E+02  0.29026641922E+02  0.98011948455E+02  0.10833447382E+03  0.00000000000E+00 0. -1.
         -5    1    5    5    0  502 -0.44216583392E+02  0.22778642787E+02  0.60405598838E+02  0.78389407352E+02  0.47000000000E+01 0.  1.
         13    1    6    6    0    0  0.19833199184E+02 -0.32561402812E+01  0.37137039969E+03  0.37191387714E+03  0.00000000000E+00 0. -1.
        -14    1    6    6    0    0  0.27779637234E+02 -0.21460318269E+02  0.56171359655E+02  0.66238018921E+02  0.00000000000E+00 0.  1.
</event>
<event>
12    1  0.8251070E-002  0.2112667E+03  0.7818608E-02  0.1140650E+00
         21   -1    0    0  501  502  0.00000000000E+00  0.00000000000E+00  0.12415769644E+04  0.12415769644E+04  0.00000000000E+00 0.  1.
         21   -1    0    0  502  503 -0.00000000000E+00 -0.00000000000E+00 -0.35990628902E+02  0.35990628902E+02  0.00000000000E+00 0.  1.
         -6    2    1    2    0  503 -0.11637940022E+03  0.42081283421E+02  0.63922449410E+03  0.67323216997E+03  0.17122675497E+03 0.  0.
        -24    2    3    3    0    0 -0.11036660297E+03  0.75520351984E+02  0.60391511741E+03  0.62400649457E+03  0.82380371485E+02 0.  0.
          6    2    1    2  501    0  0.11637940022E+03 -0.42081283421E+02  0.56636184140E+03  0.60433542333E+03  0.17070609037E+03 0.  0.
         24    2    5    5    0    0  0.75999440842E+02 -0.55840497896E+01  0.16155816135E+03  0.19586180293E+03  0.80334984459E+02 0.  0.
          5    1    5    5  501    0  0.40379959377E+02 -0.36497233632E+02  0.40480368005E+03  0.40847362040E+03  0.47000000000E+01 0. -1.
        -13    1    6    6    0    0  0.23394052878E+02 -0.13608611187E+01  0.13455439897E+03  0.13657972007E+03  0.00000000000E+00 0.  1.
         14    1    6    6    0    0  0.52605387965E+02 -0.42231886709E+01  0.27003762383E+02  0.59282082860E+02  0.00000000000E+00 0. -1.
         -5    1    3    3    0  503 -0.60127972474E+01 -0.33439068563E+02  0.35309376689E+02  0.49225675407E+02  0.47000000000E+01 0.  1.
         11    1    4    4    0    0 -0.53273488691E-01  0.10768295374E+02  0.20069432177E+03  0.20098300877E+03  0.00000000000E+00 0. -1.
        -12    1    4    4    0    0 -0.11031332948E+03  0.64752056610E+02  0.40322079564E+03  0.42302348579E+03  0.00000000000E+00 0.  1.
</event>
<event>
12    1  0.8251070E-002  0.3012378E+03  0.7818608E-02  0.1085220E+00
         21   -1    0    0  501  502  0.00000000000E+00  0.00000000000E+00  0.56984791956E+03  0.56984791956E+03  0.00000000000E+00 0.  1.
         21   -1    0    0  502  503 -0.00000000000E+00 -0.00000000000E+00 -0.27055881430E+03  0.27055881430E+03  0.00000000000E+00 0. -1.
         -6    2    1    2    0  503 -0.15443380702E+03 -0.18553352062E+03 -0.12358738874E+03  0.32120663426E+03  0.17212603294E+03 0.  0.
        -24    2    3    3    0    0 -0.12161698819E+03 -0.16520498778E+03 -0.15738402247E+03  0.26968483987E+03  0.76660306061E+02 0.  0.
          6    2    1    2  501    0  0.15443380702E+03  0.18553352062E+03  0.42287649400E+03  0.51920009959E+03  0.18019912934E+03 0.  0.
         24    2    5    5    0    0  0.36547885813E+02  0.26781942625E+02  0.67698343638E+02  0.11266257066E+03  0.77825244548E+02 0.  0.
          5    1    5    5  501    0  0.11788592121E+03  0.15875157799E+03  0.35517815036E+03  0.40653752893E+03  0.47000000000E+01 0. -1.
        -11    1    6    6    0    0  0.38142192039E+02  0.29092086897E+02  0.83670039461E+02  0.96446108460E+02  0.00000000000E+00 0.  1.
         12    1    6    6    0    0 -0.15943062268E+01 -0.23101442720E+01 -0.15971695824E+02  0.16216462203E+02  0.00000000000E+00 0. -1.
         -5    1    3    3    0  503 -0.32816818834E+02 -0.20328532837E+02  0.33796633730E+02  0.51521794390E+02  0.47000000000E+01 0.  1.
         11    1    4    4    0    0 -0.12926728167E+03 -0.13921527369E+03 -0.14864399423E+03  0.24121766013E+03  0.00000000000E+00 0. -1.
        -12    1    4    4    0    0  0.76502934829E+01 -0.25989714088E+02 -0.87400282429E+01  0.28467179742E+02  0.00000000000E+00 0.  1.
</event>
<event>
12    1  0.8251070E-002  0.2511755E+03  0.7818608E-02  0.1112649E+00
         21   -1    0    0  503  502  0.00000000000E+00  0.00000000000E+00  0.13320115373E+03  0.13320115373E+03  0.00000000000E+00 0.  1.
         21   -1    0    0  501  503 -0.00000000000E+00 -0.00000000000E+00 -0.99740979756E+03  0.99740979756E+03  0.00000000000E+00 0.  1.
          6    2    1    2  501    0  0.15631290405E+03  0.92859821061E+02 -0.84193556712E+03  0.87844981492E+03  0.17251639867E+03 0.  0.
         24    2    3    3    0    0  0.13779031527E+02  0.40454266405E+02 -0.42185619235E+03  0.43173847850E+03  0.81296109475E+02 0.  0.
         -6    2    1    2    0  502 -0.15631290405E+03 -0.92859821061E+02 -0.22273076710E+02  0.25216113637E+03  0.17329881248E+03 0.  0.
        -24    2    5    5    0    0 -0.24597103273E+02 -0.81383518042E+02 -0.26511305907E+02  0.11979493867E+03  0.80122927380E+02 0.  0.
          5    1    3    3  501    0  0.14253387252E+03  0.52405554655E+02 -0.42007937478E+03  0.44671133642E+03  0.47000000000E+01 0. -1.
        -13    1    4    4    0    0  0.11243662934E+02  0.61985533908E+02 -0.37307703146E+03  0.37835842500E+03  0.00000000000E+00 0.  1.
         14    1    4    4    0    0  0.25353685934E+01 -0.21531267503E+02 -0.48779160892E+02  0.53380053498E+02  0.00000000000E+00 0. -1.
         -5    1    5    5    0  502 -0.13171580078E+03 -0.11476303019E+02  0.42382291969E+01  0.13236619770E+03  0.47000000000E+01 0.  1.
         11    1    6    6    0    0 -0.21699375122E+02 -0.22177632239E+01 -0.33815500898E+02  0.40240147308E+02  0.00000000000E+00 0. -1.
        -12    1    6    6    0    0 -0.28977281515E+01 -0.79165754818E+02  0.73041949914E+01  0.79554791363E+02  0.00000000000E+00 0.  1.
</event>
<event>
12    1  0.8251070E-002  0.1775931E+03  0.7818608E-02  0.1170313E+00
         21   -1    0    0  503  502  0.00000000000E+00  0.00000000000E+00  0.31061925456E+03  0.31061925456E+03  0.00000000000E+00 0.  1.
         21   -1    0    0  501  503 -0.00000000000E+00 -0.00000000000E+00 -0.23301356033E+03  0.23301356033E+03  0.00000000000E+00 0.  1.
          6    2    1    2  501    0 -0.36695227032E+02  0.22562467118E+02 -0.16563260758E+03  0.24284453224E+03  0.17228958627E+03 0.  0.
         24    2    3    3    0    0 -0.75435514657E+02  0.16352098150E+02 -0.52581173639E+02  0.12308604493E+03  0.80171607500E+02 0.  0.
         -6    2    1    2    0  502  0.36695227032E+02 -0.22562467118E+02  0.24323830182E+03  0.30078828265E+03  0.17161909829E+03 0.  0.
        -24    2    5    5    0    0  0.37954432077E+02 -0.41111693145E+02  0.56363206214E+02  0.11293181952E+03  0.80287449935E+02 0.  0.
          5    1    3    3  501    0  0.38740287624E+02  0.62103689678E+01 -0.11305143394E+03  0.11975848731E+03  0.47000000000E+01 0. -1.
        -11    1    4    4    0    0 -0.85244749493E+02 -0.71904086069E+01 -0.43830869035E+02  0.96122392669E+02  0.00000000000E+00 0.  1.
         12    1    4    4    0    0  0.98092348358E+01  0.23542506757E+02 -0.87503046042E+01  0.26963652259E+02  0.00000000000E+00 0. -1.
         -5    1    5    5    0  502 -0.12592050449E+01  0.18549226027E+02  0.18687509560E+03  0.18785646313E+03  0.47000000000E+01 0.  1.
         13    1    6    6    0    0  0.11827959926E+01 -0.52239892033E+02  0.10843654080E+02  0.53366564063E+02  0.00000000000E+00 0. -1.
        -14    1    6    6    0    0  0.36771636085E+02  0.11128198889E+02  0.45519552134E+02  0.59565255454E+02  0.00000000000E+00 0.  1.
</event>
<event>
12    1  0.8251070E-002  0.2767233E+03  0.7818608E-02  0.1097596E+00
         21   -1    0    0  501  502  0.00000000000E+00  0.00000000000E+00  0.80045295784E+02  0.80045295784E+02  0.00000000000E+00 0. -1.
         21   -1    0    0  502  503 -0.00000000000E+00 -0.00000000000E+00 -0.12384255516E+04  0.12384255516E+04  0.00000000000E+00 0.  1.
         -6    2    1    2    0  503  0.18381604631E+03  0.11311085149E+03 -0.89567558134E+03  0.93744894473E+03  0.17318595025E+03 0.  0.
        -24    2    3    3    0    0  0.16552640981E+03  0.73138322030E+02 -0.85467560501E+03  0.87715465003E+03  0.78623684558E+02 0.  0.
          6    2    1    2  501    0 -0.18381604631E+03 -0.11311085149E+03 -0.26270467452E+03  0.38102190270E+03  0.17199285077E+03 0.  0.
         24    2    5    5    0    0 -0.17241425516E+02 -0.22401009998E+02 -0.10053052889E+03  0.13142638361E+03  0.79796209613E+02 0.  0.
          5    1    5    5  501    0 -0.16657462079E+03 -0.90709841494E+02 -0.16217414563E+03  0.24959551908E+03  0.47000000000E+01 0. -1.
        -13    1    6    6    0    0 -0.13399444750E+02  0.23892536719E+02 -0.71698586673E+02  0.76753408793E+02  0.00000000000E+00 0.  1.
         14    1    6    6    0    0 -0.38419807663E+01 -0.46293546717E+02 -0.28831942212E+02  0.54672974819E+02  0.00000000000E+00 0. -1.
         -5    1    3    3    0  503  0.18289636491E+02  0.39972529462E+02 -0.40999976333E+02  0.60294294704E+02  0.47000000000E+01 0.  1.
         13    1    4    4    0    0  0.20720890974E+02  0.90353019926E+01 -0.28448698651E+03  0.28538366719E+03  0.00000000000E+00 0. -1.
        -14    1    4    4    0    0  0.14480551884E+03  0.64103020037E+02 -0.57018861850E+03  0.59177098284E+03  0.00000000000E+00 0.  1.
</event>
<event>
12    1  0.8251070E-002  0.1911847E+03  0.7818608E-02  0.1158898E+00
         21   -1    0    0  503  502  0.00000000000E+00  0.00000000000E+00  0.49680639107E+02  0.49680639107E+02  0.00000000000E+00 0.  1.
         21   -1    0    0  501  503 -0.00000000000E+00 -0.00000000000E+00 -0.94914787059E+03  0.94914787059E+03  0.00000000000E+00 0.  1.
          6    2    1    2  501    0  0.49717636683E+02 -0.45525112346E+02 -0.70596664765E+03  0.73139627438E+03  0.17890562686E+03 0.  0.
         24    2    3    3    0    0 -0.94197033252E+01  0.25688449000E+02 -0.47637107993E+03  0.48379819074E+03  0.79891528625E+02 0.  0.
         -6    2    1    2    0  502 -0.49717636683E+02  0.45525112346E+02 -0.19350058383E+03  0.26743223532E+03  0.17185210297E+03 0.  0.
        -24    2    5    5    0    0 -0.70596737405E+02 -0.13105150924E+02 -0.16893344126E+03  0.20035706024E+03  0.80304418936E+02 0.  0.
          5    1    3    3  501    0  0.59137340008E+02 -0.71213561345E+02 -0.22959556773E+03  0.24759808364E+03  0.47000000000E+01 0. -1.
        -13    1    4    4    0    0  0.24166849214E+02 -0.15651269573E+02 -0.22581731123E+03  0.22764546315E+03  0.00000000000E+00 0.  1.
         14    1    4    4    0    0 -0.33586552540E+02  0.41339718573E+02 -0.25055376870E+03  0.25615272759E+03  0.00000000000E+00 0. -1.
         -5    1    5    5    0  502  0.20879100722E+02  0.58630263270E+02 -0.24567142577E+02  0.67075175084E+02  0.47000000000E+01 0.  1.
         13    1    6    6    0    0  0.73160348409E+01 -0.27388013477E+02 -0.49524141343E+02  0.57063720732E+02  0.00000000000E+00 0. -1.
        -14    1    6    6    0    0 -0.77912772246E+02  0.14282862553E+02 -0.11940929991E+03  0.14329333951E+03  0.00000000000E+00 0.  1.
</event>
<event>
12    1  0.8251070E-002  0.1746364E+03  0.7818608E-02  0.1173100E+00
         21   -1    0    0  501  502  0.00000000000E+00  0.00000000000E+00  0.98704104482E+03  0.98704104482E+03  0.00000000000E+00 0. -1.
         21   -1    0    0  502  503 -0.00000000000E+00 -0.00000000000E+00 -0.76820573686E+02  0.76820573686E+02  0.00000000000E+00 0. -1.
         -6    2    1    2    0  503  0.29294966928E+02 -0.15467720050E+01  0.43835763685E+02  0.18005401105E+03  0.17215482893E+03 0.  0.
        -24    2    3    3    0    0  0.71212877652E+01  0.45908414217E+02 -0.19527562562E+02  0.97709200280E+02  0.83710613929E+02 0.  0.
          6    2    1    2  501    0 -0.29294966928E+02  0.15467720050E+01  0.86638470745E+03  0.88380760746E+03  0.17214191271E+03 0.  0.
         24    2    5    5    0    0  0.30880730844E+02 -0.39952857319E+02  0.61375057326E+03  0.62076877079E+03  0.78193671567E+02 0.  0.
          5    1    5    5  501    0 -0.60175697772E+02  0.41499629324E+02  0.25263413419E+03  0.26303883667E+03  0.47000000000E+01 0. -1.
        -13    1    6    6    0    0  0.46900342803E+02 -0.51001494644E+02  0.38444328096E+03  0.39063721134E+03  0.00000000000E+00 0.  1.
         14    1    6    6    0    0 -0.16019611959E+02  0.11048637325E+02  0.22930729230E+03  0.23013155945E+03  0.00000000000E+00 0. -1.
         -5    1    3    3    0  503  0.22173679163E+02 -0.47455186222E+02  0.63363326248E+02  0.82344810766E+02  0.47000000000E+01 0.  1.
         13    1    4    4    0    0  0.25276924810E+01  0.33738032282E+02 -0.52390594653E+02  0.62365202314E+02  0.00000000000E+00 0. -1.
        -14    1    4    4    0    0  0.45935952842E+01  0.12170381935E+02  0.32863032090E+02  0.35343997966E+02  0.00000000000E+00 0.  1.
</event>
<event>
12    1  0.8251070E-002  0.1746177E+03  0.7818608E-02  0.1173270E+00
         21   -1    0    0  503  502  0.00000000000E+00  0.00000000000E+00  0.10648225631E+03  0.10648225631E+03  0.00000000000E+00 0. -1.
         21   -1    0    0  501  503 -0.00000000000E+00 -0.00000000000E+00 -0.28632049491E+03  0.28632049491E+03  0.00000000000E+00 0. -1.
          6    2    1    2  501    0 -0.25963694487E+02 -0.29032764463E+01 -0.78634548595E+02  0.19150651002E+03  0.17265227685E+03 0.  0.
         24    2    3    3    0    0 -0.58145267448E+01 -0.69123586294E+02 -0.49132041310E+02  0.11611681355E+03  0.79102958241E+02 0.  0.
         -6    2    1    2    0  502  0.25963694487E+02  0.29032764463E+01 -0.10120369000E+03  0.20129624120E+03  0.17203327413E+03 0.  0.
        -24    2    5    5    0    0  0.63327254929E+02  0.18914320922E+02 -0.55971954801E+02  0.14030124908E+03  0.11037883863E+03 0.  0.
          5    1    3    3  501    0 -0.20149167742E+02  0.66220309847E+02 -0.29502507285E+02  0.75389696465E+02  0.47000000000E+01 0. -1.
        -13    1    4    4    0    0  0.36135077863E+02 -0.22994237395E+02 -0.21323821031E+02  0.47845419309E+02  0.00000000000E+00 0.  1.
         14    1    4    4    0    0 -0.41949604607E+02 -0.46129348899E+02 -0.27808220278E+02  0.68271394241E+02  0.00000000000E+00 0. -1.
         -5    1    5    5    0  502 -0.37363560442E+02 -0.16011044476E+02 -0.45231735203E+02  0.60994992119E+02  0.47000000000E+01 0.  1.
         11    1    6    6    0    0  0.37511855178E+02 -0.21745088807E+02  0.22025297328E+02  0.48632313214E+02  0.00000000000E+00 0. -1.
        -12    1    6    6    0    0  0.25815399750E+02  0.40659409730E+02 -0.77997252129E+02  0.91668935870E+02  0.00000000000E+00 0.  1.
</event>
<event>
12    1  0.8251070E-002  0.2506772E+03  0.7818608E-02  0.1113071E+00
         21   -1    0    0  503  502  0.00000000000E+00  0.00000000000E+00  0.59054660086E+02  0.59054660086E+02  0.00000000000E+00 0.  1.
         21   -1    0    0  501  503 -0.00000000000E+00 -0.00000000000E+00 -0.10609549721E+04  0.10609549721E+04  0.00000000000E+00 0. -1.
          6    2    1    2  501    0 -0.79182238811E+02  0.16421314546E+03 -0.47751743594E+03  0.53931621787E+03  0.17205608720E+03 0.  0.
         24    2    3    3    0    0 -0.44362867003E+02  0.16094002268E+03 -0.46790316702E+03  0.50274264609E+03  0.77117051419E+02 0.  0.
         -6    2    1    2    0  502  0.79182238811E+02 -0.16421314546E+03 -0.52438287610E+03  0.58069341434E+03  0.17026936492E+03 0.  0.
        -24    2    5    5    0    0  0.30441388103E+01 -0.21176963031E+02 -0.23301056557E+03  0.24726235235E+03  0.79918813053E+02 0.  0.
          5    1    3    3  501    0 -0.34819371808E+02  0.32731227823E+01 -0.96142689195E+01  0.36573571780E+02  0.47000000000E+01 0. -1.
        -11    1    4    4    0    0 -0.51050476818E+02  0.52864177255E+02 -0.15281852687E+03  0.16957085415E+03  0.00000000000E+00 0.  1.
         12    1    4    4    0    0  0.66876098152E+01  0.10807584542E+03 -0.31508464015E+03  0.33317179195E+03  0.00000000000E+00 0. -1.
         -5    1    5    5    0  502  0.76138100001E+02 -0.14303618243E+03 -0.29137231053E+03  0.33343106199E+03  0.47000000000E+01 0.  1.
         13    1    6    6    0    0  0.11088282643E+02 -0.50716274745E+02 -0.15480342069E+03  0.16327642081E+03  0.00000000000E+00 0. -1.
        -14    1    6    6    0    0 -0.80441438330E+01  0.29539311714E+02 -0.78207144880E+02  0.83985931542E+02  0.00000000000E+00 0.  1.
</event>
<event>
12    1  0.8251070E-002  0.1979668E+03  0.7818608E-02  0.1151477E+00
         21   -1    0    0  501  502  0.00000000000E+00  0.00000000000E+00  0.68345653902E+03  0.68345653902E+03  0.00000000000E+00 0. -1.
         21   -1    0    0  502  503 -0.00000000000E+00 -0.00000000000E+00 -0.61129714952E+02  0.61129714952E+02  0.00000000000E+00 0. -1.
         -6    2    1    2    0  503 -0.88758055740E+02  0.43948223083E+02  0.21834213102E+03  0.29472719710E+03  0.17141002234E+03 0.  0.
        -24    2    3    3    0    0 -0.91497971965E+02  0.75013796982E+02  0.10593277253E+03  0.17797733243E+03  0.80344445681E+02 0.  0.
          6    2    1    2  501    0  0.88758055740E+02 -0.43948223083E+02  0.40398469304E+03  0.44985905687E+03  0.17134789193E+03 0.  0.
         24    2    5    5    0    0  0.19600367690E+02  0.10596690934E+02  0.31023740055E+03  0.32114006716E+03  0.79920171219E+02 0.  0.
          5    1    5    5  501    0  0.69157688050E+02 -0.54544914016E+02  0.93747292492E+02  0.12871898971E+03  0.47000000000E+01 0. -1.
        -11    1    6    6    0    0  0.23680225581E+02 -0.15267056205E+02  0.27883013575E+03  0.28025003246E+03  0.00000000000E+00 0.  1.
         12    1    6    6    0    0 -0.40798578909E+01  0.25863747139E+02  0.31407264798E+02  0.40890034710E+02  0.00000000000E+00 0. -1.
         -5    1    3    3    0  503  0.27399162250E+01 -0.31065573899E+02  0.11240935849E+03  0.11674986466E+03  0.47000000000E+01 0.  1.
         11    1    4    4    0    0  0.97975727797E+01  0.12284827132E+02  0.37306989285E+02  0.40481117321E+02  0.00000000000E+00 0. -1.
        -12    1    4    4    0    0 -0.10129554474E+03  0.62728969850E+02  0.68625783246E+02  0.13749621511E+03  0.00000000000E+00 0.  1.
</event>
<event>
12    1  0.8251070E-002  0.2745287E+03  0.7818608E-02  0.1098752E+00
         21   -1    0    0  503  502  0.00000000000E+00  0.00000000000E+00  0.51024555304E+03  0.51024555304E+03  0.00000000000E+00 0. -1.
         21   -1    0    0  501  503 -0.00000000000E+00 -0.00000000000E+00 -0.14833866049E+03  0.14833866049E+03  0.00000000000E+00 0.  1.
          6    2    1    2  501    0 -0.16470222945E+03  0.13566681981E+03  0.20482697131E+03  0.34252024676E+03  0.17272440732E+03 0.  0.
         24    2    3    3    0    0 -0.85919583760E+02  0.19185513361E+02  0.14959380751E+03  0.19136670761E+03  0.80576986418E+02 0.  0.
         -6    2    1    2    0  502  0.16470222945E+03 -0.13566681981E+03  0.15707992125E+03  0.31606396677E+03  0.17230791928E+03 0.  0.
        -24    2    5    5    0    0  0.70468353588E+02 -0.14417515511E+03  0.10415798138E+03  0.20755020336E+03  0.80473210580E+02 0.  0.
          5    1    3    3  501    0 -0.78782645694E+02  0.11648130645E+03  0.55233163797E+02  0.15115353915E+03  0.47000000000E+01 0. -1.
        -13    1    4    4    0    0 -0.63938937575E+02  0.27750769480E+02  0.42349401887E+02  0.81558352026E+02  0.00000000000E+00 0.  1.
         14    1    4    4    0    0 -0.21980646185E+02 -0.85652561185E+01  0.10724440562E+03  0.10980835558E+03  0.00000000000E+00 0. -1.
         -5    1    5    5    0  502  0.94233875865E+02  0.85083353021E+01  0.52921939867E+02  0.10851376341E+03  0.47000000000E+01 0.  1.
         13    1    6    6    0    0  0.27984951704E+02 -0.68160280403E+02  0.94654901513E+02  0.11995220601E+03  0.00000000000E+00 0. -1.
        -14    1    6    6    0    0  0.42483401885E+02 -0.76014874712E+02  0.95030798677E+01  0.87597997352E+02  0.00000000000E+00 0.  1.
</event>
<event>
12    1  0.8251070E-002  0.2061231E+03  0.7818608E-02  0.1148286E+00
         21   -1    0    0  501  502  0.00000000000E+00  0.00000000000E+00  0.46159777304E+02  0.46159777304E+02  0.00000000000E+00 0. -1.
         21   -1    0    0  502  503 -0.00000000000E+00 -0.00000000000E+00 -0.85121091637E+03  0.85121091637E+03  0.00000000000E+00 0. -1.
         -6    2    1    2    0  503 -0.71392301519E+02 -0.43234068772E+02 -0.45470462148E+03  0.49924245604E+03  0.18846933889E+03 0.  0.
        -24    2    3    3    0    0 -0.24046533941E+02  0.44460640477E+02 -0.30491877521E+03  0.31927058746E+03  0.80020398621E+02 0.  0.
          6    2    1    2  501    0  0.71392301519E+02  0.43234068772E+02 -0.35034651759E+03  0.39812823763E+03  0.16969786621E+03 0.  0.
         24    2    5    5    0    0 -0.39201246200E+01 -0.24764364188E+02 -0.11443101201E+03  0.14127426319E+03  0.78964041304E+02 0.  0.
          5    1    5    5  501    0  0.75312426139E+02  0.67998432960E+02 -0.23591550557E+03  0.25685397444E+03  0.47000000000E+01 0. -1.
        -13    1    6    6    0    0 -0.30650124567E+02 -0.11672468267E+02 -0.12520251702E+02  0.35106030167E+02  0.00000000000E+00 0.  1.
         14    1    6    6    0    0  0.26729999947E+02 -0.13091895921E+02 -0.10191076031E+03  0.10616823302E+03  0.00000000000E+00 0. -1.
         -5    1    3    3    0  503 -0.47345767578E+02 -0.87694709248E+02 -0.14978584626E+03  0.17997186857E+03  0.47000000000E+01 0.  1.
         13    1    4    4    0    0 -0.27573692108E+02  0.93880518163E+01 -0.28977452830E+02  0.41086941793E+02  0.00000000000E+00 0. -1.
        -14    1    4    4    0    0  0.35271581669E+01  0.35072588660E+02 -0.27594132238E+03  0.27818364567E+03  0.00000000000E+00 0.  1.
</event>
<event>
12    1  0.8251070E-002  0.1739571E+03  0.7818608E-02  0.1173908E+00
         21   -1    0    0  501  502  0.00000000000E+00  0.00000000000E+00  0.21458910045E+02  0.21458910045E+02  0.00000000000E+00 0. -1.
         21   -1    0    0  502  503 -0.00000000000E+00 -0.00000000000E+00 -0.30064844675E+04  0.30064844675E+04  0.00000000000E+00 0. -1.
         -6    2    1    2    0  503  0.17579022307E+02  0.14127655668E+02 -0.25980534512E+04  0.26038707328E+04  0.17248897116E+03 0.  0.
        -24    2    3    3    0    0  0.61559677989E+02  0.22930380333E+01 -0.96081852233E+03  0.96599568917E+03  0.78616707260E+02 0.  0.
          6    2    1    2  501    0 -0.17579022307E+02 -0.14127655668E+02 -0.38697210618E+03  0.42407264467E+03  0.17199297752E+03 0.  0.
         24    2    5    5    0    0  0.76418967895E+01  0.39643659338E+02 -0.32788244942E+03  0.34016122343E+03  0.81072430455E+02 0.  0.
          5    1    5    5  501    0 -0.25220919096E+02 -0.53771315006E+02 -0.59089656767E+02  0.83911421239E+02  0.47000000000E+01 0. -1.
        -11    1    6    6    0    0  0.11243491180E+02 -0.21375773462E+02 -0.15321571053E+03  0.15510768433E+03  0.00000000000E+00 0.  1.
         12    1    6    6    0    0 -0.36015943905E+01  0.61019432800E+02 -0.17466673889E+03  0.18505353910E+03  0.00000000000E+00 0. -1.
         -5    1    3    3    0  503 -0.43980655683E+02  0.11834617634E+02 -0.16372349289E+04  0.16378750437E+04  0.47000000000E+01 0.  1.
         11    1    4    4    0    0  0.19202457989E+02 -0.36119719047E+02 -0.31373521633E+03  0.31639082551E+03  0.00000000000E+00 0. -1.
        -12    1    4    4    0    0  0.42357220000E+02  0.38412757081E+02 -0.64708330600E+03  0.64960486366E+03  0.00000000000E+00 0.  1.
</event>
<event>
12    1  0.8251070E-002  0.1862262E+03  0.7818608E-02  0.1161953E+00
         21   -1    0    0  503  502  0.00000000000E+00  0.00000000000E+00  0.47924030952E+03  0.47924030952E+03  0.00000000000E+00 0.  1.
         21   -1    0    0  501  503 -0.00000000000E+00 -0.00000000000E+00 -0.87372090579E+02  0.87372090579E+02  0.00000000000E+00 0.  1.
          6    2    1    2  501    0  0.42927880577E+01  0.69791453433E+02  0.78318841165E+02  0.20202485271E+03  0.17260047865E+03 0.  0.
         24    2    3    3    0    0  0.41259355585E+02  0.20351064207E+02  0.10021117736E+03  0.13635717736E+03  0.80215332156E+02 0.  0.
         -6    2    1    2    0  502 -0.42927880577E+01 -0.69791453433E+02  0.31354937777E+03  0.36458754739E+03  0.17239951394E+03 0.  0.
        -24    2    5    5    0    0 -0.16539998752E+02 -0.73958695361E+02  0.90235785189E+02  0.14085017745E+03  0.77154490340E+02 0.  0.
          5    1    3    3  501    0 -0.36966567528E+02  0.49440389226E+02 -0.21892336193E+02  0.65667675348E+02  0.47000000000E+01 0. -1.
        -11    1    4    4    0    0  0.55715832190E+02  0.21821590441E+02  0.34524421761E+02  0.69082352768E+02  0.00000000000E+00 0.  1.
         12    1    4    4    0    0 -0.14456476605E+02 -0.14705262337E+01  0.65686755597E+02  0.67274824594E+02  0.00000000000E+00 0. -1.
         -5    1    5    5    0  502  0.12247210695E+02  0.41672419282E+01  0.22331359258E+03  0.22373736994E+03  0.47000000000E+01 0.  1.
         11    1    6    6    0    0 -0.47407841212E+02 -0.49985565135E+02  0.53694852547E+02  0.87345276462E+02  0.00000000000E+00 0. -1.
        -12    1    6    6    0    0  0.30867842459E+02 -0.23973130226E+02  0.36540932642E+02  0.53504900984E+02  0.00000000000E+00 0.  1.
</event>
<event>
12    1  0.8251070E-002  0.1854869E+03  0.7818608E-02  0.1162659E+00
         21   -1    0    0  503  502  0.00000000000E+00  0.00000000000E+00  0.58878049239E+03  0.58878049239E+03  0.00000000000E+00 0.  1.
         21   -1    0    0  501  503 -0.00000000000E+00 -0.00000000000E+00 -0.68197992421E+02  0.68197992421E+02  0.00000000000E+00 0.  1.
          6    2    1    2  501    0  0.51251641440E+02 -0.48966610809E+02  0.13562299787E+03  0.22978031472E+03  0.17140868052E+03 0.  0.
         24    2    3    3    0    0 -0.25000445163E+02 -0.67008258080E+02  0.80717973119E+02  0.13398608999E+03  0.79509447353E+02 0.  0.
         -6    2    1    2    0  502 -0.51251641440E+02  0.48966610809E+02  0.38495950210E+03  0.42719817009E+03  0.17111399285E+03 0.  0.
        -24    2    5    5    0    0 -0.90068386790E+02  0.62205894441E+02  0.23133490666E+03  0.26812389601E+03  0.79954343041E+02 0.  0.
          5    1    3    3  501    0  0.76252086603E+02  0.18041647271E+02  0.54905024754E+02  0.95794224726E+02  0.47000000000E+01 0. -1.
        -11    1    4    4    0    0 -0.32331039032E+02 -0.19044738735E+02 -0.25532730871E+01  0.37610069952E+02  0.00000000000E+00 0.  1.
         12    1    4    4    0    0  0.73305938695E+01 -0.47963519346E+02  0.83271246206E+02  0.96376020042E+02  0.00000000000E+00 0. -1.
         -5    1    5    5    0  502  0.38816745350E+02 -0.13239283632E+02  0.15362459544E+03  0.15907427408E+03  0.47000000000E+01 0.  1.
         13    1    6    6    0    0 -0.43576655797E+02  0.15307724768E+02  0.27263070278E+02  0.53633258050E+02  0.00000000000E+00 0. -1.
        -14    1    6    6    0    0 -0.46491730993E+02  0.46898169673E+02  0.20407183638E+03  0.21449063796E+03  0.00000000000E+00 0.  1.
</event>
<event>
12    1  0.8251070E-002  0.2059669E+03  0.7818608E-02  0.1145312E+00
         21   -1    0    0  501  502  0.00000000000E+00  0.00000000000E+00  0.10996329936E+03  0.10996329936E+03  0.00000000000E+00 0. -1.
         21   -1    0    0  502  503 -0.00000000000E+00 -0.00000000000E+00 -0.48467124449E+03  0.48467124449E+03  0.00000000000E+00 0.  1.
         -6    2    1    2    0  503  0.10773500489E+03  0.40100366217E+02 -0.32568716508E+03  0.38534983696E+03  0.17090200905E+03 0.  0.
        -24    2    3    3    0    0 -0.99991359188E+01  0.17378994995E+02 -0.16708618215E+03  0.18646808715E+03  0.80315272973E+02 0.  0.
          6    2    1    2  501    0 -0.10773500489E+03 -0.40100366217E+02 -0.49020780050E+02  0.20928470689E+03  0.16787549258E+03 0.  0.
         24    2    5    5    0    0 -0.69232119829E+02  0.41269559219E+02 -0.25893957812E+02  0.11622302395E+03  0.79630592812E+02 0.  0.
          5    1    5    5  501    0 -0.38502885061E+02 -0.81369925436E+02 -0.23126822239E+02  0.93061682933E+02  0.47000000000E+01 0. -1.
        -13    1    6    6    0    0 -0.66157586371E+02  0.19203370330E+02 -0.48681936267E+02  0.84353580749E+02  0.00000000000E+00 0.  1.
         14    1    6    6    0    0 -0.30745334582E+01  0.22066188889E+02  0.22787978456E+02  0.31869443204E+02  0.00000000000E+00 0. -1.
         -5    1    3    3    0  503  0.11773414081E+03  0.22721371222E+02 -0.15860098293E+03  0.19888174981E+03  0.47000000000E+01 0.  1.
         11    1    4    4    0    0  0.21870640752E+01 -0.14757450262E+01  0.87835516610E+01  0.91712514104E+01  0.00000000000E+00 0. -1.
        -12    1    4    4    0    0 -0.12186199994E+02  0.18854740021E+02 -0.17586973381E+03  0.17729683573E+03  0.00000000000E+00 0.  1.
</event>
<event>
12    1  0.8251070E-002  0.2036087E+03  0.7818608E-02  0.1147006E+00
         21   -1    0    0  501  502  0.00000000000E+00  0.00000000000E+00  0.12337856456E+04  0.12337856456E+04  0.00000000000E+00 0. -1.
         21   -1    0    0  502  503 -0.00000000000E+00 -0.00000000000E+00 -0.74531693776E+02  0.74531693776E+02  0.00000000000E+00 0. -1.
         -6    2    1    2    0  503 -0.40073539175E+02 -0.10094942485E+03  0.92701261502E+02  0.22250375642E+03  0.17063915968E+03 0.  0.
        -24    2    3    3    0    0  0.33575009135E+02 -0.79920356573E+02  0.27351504271E+02  0.12171183635E+03  0.80938999800E+02 0.  0.
          6    2    1    2  501    0  0.40073539175E+02  0.10094942485E+03  0.10665526903E+04  0.10858135830E+04  0.17222026822E+03 0.  0.
         24    2    5    5    0    0 -0.41330394874E+02  0.40324493627E+02  0.61008839086E+03  0.61817726118E+03  0.81246632238E+02 0.  0.
          5    1    5    5  501    0  0.81403934049E+02  0.60624931224E+02  0.45646429947E+03  0.46763632179E+03  0.47000000000E+01 0. -1.
        -11    1    6    6    0    0 -0.45342714957E+02 -0.57489432743E+01  0.18422686734E+03  0.18981188266E+03  0.00000000000E+00 0.  1.
         12    1    6    6    0    0  0.40123200824E+01  0.46073436902E+02  0.42586152352E+03  0.42836537852E+03  0.00000000000E+00 0. -1.
         -5    1    3    3    0  503 -0.73648548310E+02 -0.21029068278E+02  0.65349757231E+02  0.10079192007E+03  0.47000000000E+01 0.  1.
         13    1    4    4    0    0 -0.26748713561E+02 -0.30374933245E+02  0.74658847966E+01  0.41156648097E+02  0.00000000000E+00 0. -1.
        -14    1    4    4    0    0  0.60323722695E+02 -0.49545423328E+02  0.19885619475E+02  0.80555188253E+02  0.00000000000E+00 0.  1.
</event>
<event>
12    1  0.8251070E-002  0.2116226E+03  0.7818608E-02  0.1140508E+00
         21   -1    0    0  501  502  0.00000000000E+00  0.00000000000E+00  0.27129196556E+02  0.27129196556E+02  0.00000000000E+00 0. -1.
         21   -1    0    0  502  503 -0.00000000000E+00 -0.00000000000E+00 -0.16504876148E+04  0.16504876148E+04  0.00000000000E+00 0. -1.
         -6    2    1    2    0  503  0.39524240760E+02  0.11648003387E+03 -0.87386952865E+03  0.89912850756E+03  0.17220440209E+03 0.  0.
        -24    2    3    3    0    0  0.62736137663E+02  0.81407399930E+02 -0.35187837410E+03  0.37542464349E+03  0.81007932002E+02 0.  0.
          6    2    1    2  501    0 -0.39524240760E+02 -0.11648003387E+03 -0.74948888959E+03  0.77848830380E+03  0.17082353360E+03 0.  0.
         24    2    5    5    0    0 -0.55992142243E+02 -0.37703483677E+02 -0.24427896794E+03  0.26688680695E+03  0.83664095485E+02 0.  0.
          5    1    5    5  501    0  0.16467901483E+02 -0.78776550191E+02 -0.50520992165E+03  0.51160149685E+03  0.47000000000E+01 0. -1.
        -11    1    6    6    0    0 -0.15116286277E+02  0.15958280303E+02 -0.14623762995E+03  0.14788040179E+03  0.00000000000E+00 0.  1.
         12    1    6    6    0    0 -0.40875855966E+02 -0.53661763979E+02 -0.98041337993E+02  0.11900640516E+03  0.00000000000E+00 0. -1.
         -5    1    3    3    0  503 -0.23211896903E+02  0.35072633937E+02 -0.52199115455E+03  0.52370386407E+03  0.47000000000E+01 0.  1.
         11    1    4    4    0    0 -0.13879243057E+02  0.18651399958E+02 -0.26232661063E+02  0.35052255486E+02  0.00000000000E+00 0. -1.
        -12    1    4    4    0    0  0.76615380719E+02  0.62755999972E+02 -0.32564571304E+03  0.34037238800E+03  0.00000000000E+00 0.  1.
</event>
<event>
12    1  0.8251070E-002  0.2184865E+03  0.7818608E-02  0.1135532E+00
         21   -1    0    0  501  502  0.00000000000E+00  0.00000000000E+00  0.11768491000E+03  0.11768491000E+03  0.00000000000E+00 0.  1.
         21   -1    0    0  502  503 -0.00000000000E+00 -0.00000000000E+00 -0.97285376579E+03  0.97285376579E+03  0.00000000000E+00 0. -1.
         -6    2    1    2    0  503  0.10438127206E+03 -0.80297413647E+02 -0.84688545200E+03  0.87461494539E+03  0.17433648297E+03 0.  0.
        -24    2    3    3    0    0  0.80233408759E+02 -0.10224233535E+03 -0.81424319901E+03  0.82822199797E+03  0.77902475964E+02 0.  0.
          6    2    1    2  501    0 -0.10438127206E+03  0.80297413647E+02 -0.82834037835E+01  0.21592373040E+03  0.17091318842E+03 0.  0.
         24    2    5    5    0    0 -0.60037026790E+02  0.58519921473E+02  0.61114520206E+02  0.13060765274E+03  0.79336930737E+02 0.  0.
          5    1    5    5  501    0 -0.44344245269E+02  0.21777492174E+02 -0.69397923989E+02  0.85316077664E+02  0.47000000000E+01 0. -1.
        -11    1    6    6    0    0 -0.50814848205E+02 -0.42342657330E+01  0.18733072615E+02  0.54323160935E+02  0.00000000000E+00 0.  1.
         12    1    6    6    0    0 -0.92221785849E+01  0.62754187206E+02  0.42381447591E+02  0.76284491803E+02  0.00000000000E+00 0. -1.
         -5    1    3    3    0  503  0.24147863299E+02  0.21944921705E+02 -0.32642252994E+02  0.46392947428E+02  0.47000000000E+01 0.  1.
         11    1    4    4    0    0  0.42321070503E+02  0.12176813935E+00 -0.21863528553E+03  0.22269368180E+03  0.00000000000E+00 0. -1.
        -12    1    4    4    0    0  0.37912338256E+02 -0.10236410349E+03 -0.59560791348E+03  0.60552831616E+03  0.00000000000E+00 0.  1.
</event>
<event>
12    1  0.8251070E-002  0.1724092E+03  0.7818608E-02  0.1175815E+00
         21   -1    0    0  501  502  0.00000000000E+00  0.00000000000E+00  0.13930959876E+03  0.13930959876E+03  0.00000000000E+00 0. -1.
         21   -1    0    0  502  503 -0.00000000000E+00 -0.00000000000E+00 -0.32658774876E+03  0.32658774876E+03  0.00000000000E+00 0. -1.
         -6    2    1    2    0  503 -0.74637591582E+00  0.62685682973E+01 -0.23242512973E+03  0.28938962875E+03  0.17229354101E+03 0.  0.
        -24    2    3    3    0    0  0.26213867820E+01 -0.59438608565E+02 -0.17882722955E+03  0.20439786550E+03  0.79116935825E+02 0.  0.
          6    2    1    2  501    0  0.74637591582E+00 -0.62685682973E+01  0.45146979724E+02  0.17650771878E+03  0.17051942114E+03 0.  0.
         24    2    5    5    0    0 -0.52069118059E+02  0.23680150541E+02  0.58322664375E+02  0.11420129191E+03  0.79802627202E+02 0.  0.
          5    1    5    5  501    0  0.52815493975E+02 -0.29948718838E+02 -0.13175684651E+02  0.62306426875E+02  0.47000000000E+01 0. -1.
        -13    1    6    6    0    0 -0.15206815746E+02 -0.10696202010E+02 -0.15912419980E+02  0.24471638527E+02  0.00000000000E+00 0.  1.
         14    1    6    6    0    0 -0.36862302313E+02  0.34376352551E+02  0.74235084355E+02  0.89729653380E+02  0.00000000000E+00 0. -1.
         -5    1    3    3    0  503 -0.33677626978E+01  0.65707176862E+02 -0.53597900172E+02  0.84991763246E+02  0.47000000000E+01 0.  1.
         13    1    4    4    0    0  0.14403874027E+02  0.15988456652E+02 -0.27640958446E+02  0.35030342804E+02  0.00000000000E+00 0. -1.
        -14    1    4    4    0    0 -0.11782487245E+02 -0.75427065217E+02 -0.15118627111E+03  0.16936752270E+03  0.00000000000E+00 0.  1.
</event>
<event>
12    1  0.8251070E-002  0.3282891E+03  0.7818608E-02  0.1071998E+00
         21   -1    0    0  503  502  0.00000000000E+00  0.00000000000E+00  0.23876499073E+03  0.23876499073E+03  0.00000000000E+00 0. -1.
         21   -1    0    0  501  503 -0.00000000000E+00 -0.00000000000E+00 -0.64862266325E+03  0.64862266325E+03  0.00000000000E+00 0.  1.
          6    2    1    2  501    0 -0.26524179737E+03  0.85194452971E+02  0.40323774693E+02  0.33075635606E+03  0.17367341299E+03 0.  0.
         24    2    3    3    0    0 -0.83254624098E+02 -0.36641964255E+01 -0.24038819893E+02  0.11820089414E+03  0.80304593552E+02 0.  0.
         -6    2    1    2    0  502  0.26524179737E+03 -0.85194452971E+02 -0.45018144722E+03  0.55663129792E+03  0.17194115421E+03 0.  0.
        -24    2    5    5    0    0  0.26538083000E+03 -0.94457557771E+02 -0.35171751820E+03  0.45762089564E+03  0.79765007159E+02 0.  0.
          5    1    3    3  501    0 -0.18198717327E+03  0.88858649396E+02  0.64362594586E+02  0.21255546192E+03  0.47000000000E+01 0. -1.
        -11    1    4    4    0    0 -0.44934407081E+02  0.31528721131E+02  0.10315995718E+02  0.55853209071E+02  0.00000000000E+00 0.  1.
         12    1    4    4    0    0 -0.38320217018E+02 -0.35192917557E+02 -0.34354815610E+02  0.62347685074E+02  0.00000000000E+00 0. -1.
         -5    1    5    5    0  502 -0.13903263163E+00  0.92631048000E+01 -0.98463929023E+02  0.99010402278E+02  0.47000000000E+01 0.  1.
         13    1    6    6    0    0  0.12852864401E+03 -0.81421029511E+02 -0.15116893587E+03  0.21447853867E+03  0.00000000000E+00 0. -1.
        -14    1    6    6    0    0  0.13685218599E+03 -0.13036528259E+02 -0.20054858233E+03  0.24314235697E+03  0.00000000000E+00 0.  1.
</event>
<event>
12    1  0.8251070E-002  0.2447442E+03  0.7818608E-02  0.1119490E+00
         21   -1    0    0  503  502  0.00000000000E+00  0.00000000000E+00  0.17990430627E+03  0.17990430627E+03  0.00000000000E+00 0.  1.
         21   -1    0    0  501  503 -0.00000000000E+00 -0.00000000000E+00 -0.31484054800E+03  0.31484054800E+03  0.00000000000E+00 0.  1.
          6    2    1    2  501    0  0.43914416317E+02  0.14404602607E+03 -0.98482408162E+02  0.26381526377E+03  0.19292997459E+03 0.  0.
         24    2    3    3    0    0 -0.41131026151E+02  0.10983196068E+03 -0.20037745336E+02  0.14307179736E+03  0.79455692445E+02 0.  0.
         -6    2    1    2    0  502 -0.43914416317E+02 -0.14404602607E+03 -0.36453833565E+02  0.23092959049E+03  0.17123627010E+03 0.  0.
        -24    2    5    5    0    0  0.32642221359E+02 -0.34742873254E+02 -0.23367553778E+02  0.96760150207E+02  0.80894389430E+02 0.  0.
          5    1    3    3  501    0  0.85045442469E+02  0.34214065390E+02 -0.78444662826E+02  0.12074346641E+03  0.47000000000E+01 0. -1.
        -13    1    4    4    0    0 -0.21519383775E+02  0.47594074486E+02 -0.49054703879E+02  0.71656428720E+02  0.00000000000E+00 0.  1.
         14    1    4    4    0    0 -0.19611642376E+02  0.62237886196E+02  0.29016958543E+02  0.71415368639E+02  0.00000000000E+00 0. -1.
         -5    1    5    5    0  502 -0.76556637677E+02 -0.10930315282E+03 -0.13086279787E+02  0.13416944029E+03  0.47000000000E+01 0.  1.
         11    1    6    6    0    0  0.16957423419E+02 -0.37889959921E+02 -0.50433323597E+02  0.65320160753E+02  0.00000000000E+00 0. -1.
        -12    1    6    6    0    0  0.15684797941E+02  0.31470866670E+01  0.27065769819E+02  0.31439989453E+02  0.00000000000E+00 0.  1.
</event>
<event>
12    1  0.8251070E-002  0.1771802E+03  0.7818608E-02  0.1170696E+00
         21   -1    0    0  501  502  0.00000000000E+00  0.00000000000E+00  0.92987880744E+02  0.92987880744E+02  0.00000000000E+00 0. -1.
         21   -1    0    0  502  503 -0.00000000000E+00 -0.00000000000E+00 -0.33687709524E+03  0.33687709524E+03  0.00000000000E+00 0. -1.
         -6    2    1    2    0  503  0.17566075201E+02  0.35340225230E+02 -0.12840433531E+03  0.21837131800E+03  0.17216521333E+03 0.  0.
        -24    2    3    3    0    0 -0.33081189229E-01  0.23769082236E+02  0.52373256631E+01  0.82998480238E+02  0.79349529154E+02 0.  0.
          6    2    1    2  501    0 -0.17566075201E+02 -0.35340225230E+02 -0.11548487919E+03  0.21149365798E+03  0.17272901184E+03 0.  0.
         24    2    5    5    0    0 -0.15694113741E+02 -0.87145362114E+02 -0.10561551789E+03  0.15851469291E+03  0.78304858773E+02 0.  0.
          5    1    5    5  501    0 -0.18719614600E+01  0.51805136884E+02 -0.98693612993E+01  0.52978965069E+02  0.47000000000E+01 0. -1.
        -11    1    6    6    0    0 -0.33762601226E+02 -0.75664485162E+02 -0.45122444957E+02  0.94345442896E+02  0.00000000000E+00 0.  1.
         12    1    6    6    0    0  0.18068487485E+02 -0.11480876952E+02 -0.60493072929E+02  0.64169250019E+02  0.00000000000E+00 0. -1.
         -5    1    3    3    0  503  0.17599156390E+02  0.11571142993E+02 -0.13364166097E+03  0.13537283776E+03  0.47000000000E+01 0.  1.
         11    1    4    4    0    0  0.24540973192E+02  0.94592999465E+01  0.33710708252E+02  0.42756865782E+02  0.00000000000E+00 0. -1.
        -12    1    4    4    0    0 -0.24574054381E+02  0.14309782290E+02 -0.28473382589E+02  0.40241614455E+02  0.00000000000E+00 0.  1.
</event>
<event>
12    1  0.8251070E-002  0.1906814E+03  0.7818608E-02  0.1157965E+00
         21   -1    0    0  501  502  0.00000000000E+00  0.00000000000E+00  0.28709157862E+02  0.28709157862E+02  0.00000000000E+00 0.  1.
         21   -1    0    0  502  503 -0.00000000000E+00 -0.00000000000E+00 -0.13129935866E+04  0.13129935866E+04  0.00000000000E+00 0.  1.
         -6    2    1    2    0  503  0.76792694598E+02 -0.28517081975E+02 -0.51212802308E+03  0.54647462234E+03  0.17218902093E+03 0.  0.
        -24    2    3    3    0    0  0.79554028284E+02 -0.75191232422E+02 -0.29735463935E+03  0.32662058521E+03  0.79237997767E+02 0.  0.
          6    2    1    2  501    0 -0.76792694598E+02  0.28517081975E+02 -0.77215640564E+03  0.79522812210E+03  0.17161558643E+03 0.  0.
         24    2    5    5    0    0 -0.57318097028E+01  0.68611497516E+02 -0.37389892216E+03  0.38867145365E+03  0.80775637745E+02 0.  0.
          5    1    5    5  501    0 -0.71060884895E+02 -0.40094415540E+02 -0.39825748348E+03  0.40655666846E+03  0.47000000000E+01 0. -1.
        -11    1    6    6    0    0 -0.22227838342E+02 -0.10001982569E+02 -0.62648813830E+02  0.67223435846E+02  0.00000000000E+00 0.  1.
         12    1    6    6    0    0  0.16496028640E+02  0.78613480085E+02 -0.31125010833E+03  0.32144801780E+03  0.00000000000E+00 0. -1.
         -5    1    3    3    0  503 -0.27613336854E+01  0.46674150447E+02 -0.21477338373E+03  0.21985403713E+03  0.47000000000E+01 0.  1.
         11    1    4    4    0    0  0.24375759738E+02 -0.73610545602E+02 -0.14265382528E+03  0.16236626483E+03  0.00000000000E+00 0. -1.
        -12    1    4    4    0    0  0.55178268546E+02 -0.15806868201E+01 -0.15470081407E+03  0.16425432038E+03  0.00000000000E+00 0.  1.
</event>
<event>
12    1  0.8251070E-002  0.2004085E+03  0.7818608E-02  0.1149411E+00
         21   -1    0    0  503  502  0.00000000000E+00  0.00000000000E+00  0.15453108909E+04  0.15453108909E+04  0.00000000000E+00 0. -1.
         21   -1    0    0  501  503 -0.00000000000E+00 -0.00000000000E+00 -0.25980534551E+02  0.25980534551E+02  0.00000000000E+00 0. -1.
          6    2    1    2  501    0 -0.74479896637E+02  0.70765537178E+02  0.76134782605E+03  0.78728271570E+03  0.17207133973E+03 0.  0.
         24    2    3    3    0    0 -0.30320297647E+02  0.12676881327E+01  0.60174125631E+03  0.60762646529E+03  0.78717560317E+02 0.  0.
         -6    2    1    2    0  502  0.74479896637E+02 -0.70765537178E+02  0.75798253034E+03  0.78400870979E+03  0.17198001184E+03 0.  0.
        -24    2    5    5    0    0  0.45603566298E+02 -0.99045989670E+02  0.36729689922E+03  0.39120980601E+03  0.79046232126E+02 0.  0.
          5    1    3    3  501    0 -0.44159598990E+02  0.69497849045E+02  0.15960656975E+03  0.17965625041E+03  0.47000000000E+01 0. -1.
        -11    1    4    4    0    0 -0.95051858939E+01 -0.16771644821E+02  0.32997516530E+02  0.38216131752E+02  0.00000000000E+00 0.  1.
         12    1    4    4    0    0 -0.20815111753E+02  0.18039332954E+02  0.56874373978E+03  0.56941033354E+03  0.00000000000E+00 0. -1.
         -5    1    5    5    0  502  0.28876330339E+02  0.28280452492E+02  0.39068563113E+03  0.39279890379E+03  0.47000000000E+01 0.  1.
         13    1    6    6    0    0  0.63503494301E+02 -0.45233887104E+02  0.21269486662E+03  0.22653455502E+03  0.00000000000E+00 0. -1.
        -14    1    6    6    0    0 -0.17899928004E+02 -0.53812102566E+02  0.15460203259E+03  0.16467525099E+03  0.00000000000E+00 0.  1.
</event>
<event>
12    1  0.8251070E-002  0.1805274E+03  0.7818608E-02  0.1167745E+00
         21   -1    0    0  503  502  0.00000000000E+00  0.00000000000E+00  0.13986009419E+02  0.13986009419E+02  0.00000000000E+00 0.  1.
         21   -1    0    0  501  503 -0.00000000000E+00 -0.00000000000E+00 -0.23434162473E+04  0.23434162473E+04  0.00000000000E+00 0.  1.
          6    2    1    2  501    0  0.48597551178E+02 -0.24987763880E+02 -0.13072336409E+04  0.13193868354E+04  0.17010502446E+03 0.  0.
         24    2    3    3    0    0  0.96520954353E+02 -0.51210015991E+01 -0.84586441067E+03  0.85508628903E+03  0.79645722721E+02 0.  0.
         -6    2    1    2    0  502 -0.48597551178E+02  0.24987763880E+02 -0.10221965970E+04  0.10380154213E+04  0.17205819243E+03 0.  0.
        -24    2    5    5    0    0  0.32341071588E+02 -0.12237961649E+02 -0.38329566205E+03  0.39291596385E+03  0.79193923305E+02 0.  0.
          5    1    3    3  501    0 -0.47923403175E+02 -0.19866762281E+02 -0.46136923020E+03  0.46430054641E+03  0.47000000000E+01 0. -1.
        -11    1    4    4    0    0  0.32568652607E+02  0.19726074522E+02 -0.55230141072E+03  0.55361239458E+03  0.00000000000E+00 0.  1.
         12    1    4    4    0    0  0.63952301746E+02 -0.24847076121E+02 -0.29356299995E+03  0.30147389444E+03  0.00000000000E+00 0. -1.
         -5    1    5    5    0  502 -0.80938622766E+02  0.37225725528E+02 -0.63890093497E+03  0.64509945745E+03  0.47000000000E+01 0.  1.
         11    1    6    6    0    0  0.13481975234E+02  0.32971813022E+02 -0.12314654892E+03  0.12819507253E+03  0.00000000000E+00 0. -1.
        -12    1    6    6    0    0  0.18859096353E+02 -0.45209774671E+02 -0.26014911312E+03  0.26472089132E+03  0.00000000000E+00 0.  1.
</event>
<event>
12    1  0.8251070E-002  0.2019282E+03  0.7818608E-02  0.1149592E+00
         21   -1    0    0  501  502  0.00000000000E+00  0.00000000000E+00  0.16258670461E+03  0.16258670461E+03  0.00000000000E+00 0. -1.
         21   -1    0    0  502  503 -0.00000000000E+00 -0.00000000000E+00 -0.39622424487E+03  0.39622424487E+03  0.00000000000E+00 0.  1.
         -6    2    1    2    0  503 -0.22321012191E+02 -0.94467271258E+02 -0.29221875785E+03  0.35519964839E+03  0.17706692196E+03 0.  0.
        -24    2    3    3    0    0 -0.42753955371E+02 -0.13205979083E+02 -0.23905509754E+03  0.25585495779E+03  0.79448858901E+02 0.  0.
          6    2    1    2  501    0  0.22321012191E+02  0.94467271258E+02  0.58581217587E+02  0.20361130109E+03  0.16912572233E+03 0.  0.
         24    2    5    5    0    0  0.68440651529E+01  0.60294719202E+00 -0.15876929367E+02  0.82714018782E+02  0.80884653945E+02 0.  0.
          5    1    5    5  501    0  0.15476947038E+02  0.93864324066E+02  0.74458146954E+02  0.12089728231E+03  0.47000000000E+01 0. -1.
        -13    1    6    6    0    0  0.33790237714E+02  0.26273221272E+02 -0.15418010917E+02  0.45494806093E+02  0.00000000000E+00 0.  1.
         14    1    6    6    0    0 -0.26946172561E+02 -0.25670274080E+02 -0.45891844921E+00  0.37219212689E+02  0.00000000000E+00 0. -1.
         -5    1    3    3    0  503  0.20432943180E+02 -0.81261292175E+02 -0.53163660305E+02  0.99344690597E+02  0.47000000000E+01 0.  1.
         13    1    4    4    0    0  0.72725327244E+01  0.15122709678E+02 -0.14246815656E+03  0.14345299478E+03  0.00000000000E+00 0. -1.
        -14    1    4    4    0    0 -0.50026488096E+02 -0.28328688761E+02 -0.96586940989E+02  0.11240196301E+03  0.00000000000E+00 0.  1.
</event>
<event>
12    1  0.8251070E-002  0.3430716E+03  0.7818608E-02  0.1065558E+00
         21   -1    0    0  503  502  0.00000000000E+00  0.00000000000E+00  0.80900663870E+03  0.80900663870E+03  0.00000000000E+00 0. -1.
         21   -1    0    0  501  503 -0.00000000000E+00 -0.00000000000E+00 -0.14523457824E+03  0.14523457824E+03  0.00000000000E+00 0. -1.
          6    2    1    2  501    0  0.15030304210E+02  0.29672169364E+03  0.33051663944E+03  0.47638154008E+03  0.17154722167E+03 0.  0.
         24    2    3    3    0    0  0.32423099853E+02  0.30867941614E+03  0.30120495911E+03  0.43995680849E+03  0.80643205472E+02 0.  0.
         -6    2    1    2    0  502 -0.15030304210E+02 -0.29672169364E+03  0.33325542103E+03  0.47785967686E+03  0.17035557403E+03 0.  0.
        -24    2    5    5    0    0  0.49250777800E+02 -0.11635041224E+03  0.15765887782E+03  0.21800954189E+03  0.81907148996E+02 0.  0.
          5    1    3    3  501    0 -0.17392795643E+02 -0.11957722506E+02  0.29311680328E+02  0.36424731591E+02  0.47000000000E+01 0. -1.
        -13    1    4    4    0    0  0.22790819542E+02  0.14151508588E+03  0.85541257390E+02  0.16692287950E+03  0.00000000000E+00 0.  1.
         14    1    4    4    0    0  0.96322803118E+01  0.16716433027E+03  0.21566370172E+03  0.27303392898E+03  0.00000000000E+00 0. -1.
         -5    1    5    5    0  502 -0.64281082010E+02 -0.18037128139E+03  0.17559654321E+03  0.25985013497E+03  0.47000000000E+01 0.  1.
         13    1    6    6    0    0 -0.19645132047E+02 -0.54341459605E+02  0.56769011269E+02  0.81003988084E+02  0.00000000000E+00 0. -1.
        -14    1    6    6    0    0  0.68895909847E+02 -0.62008952640E+02  0.10088986656E+03  0.13700555381E+03  0.00000000000E+00 0.  1.
</event>
<event>
12    1  0.8251070E-002  0.2755153E+03  0.7818608E-02  0.1098180E+00
         21   -1    0    0  501  502  0.00000000000E+00  0.00000000000E+00  0.28924064742E+03  0.28924064742E+03  0.00000000000E+00 0.  1.
         21   -1    0    0  502  503 -0.00000000000E+00 -0.00000000000E+00 -0.40492977722E+03  0.40492977722E+03  0.00000000000E+00 0. -1.
         -6    2    1    2    0  503  0.17262789612E+03 -0.12842520860E+03 -0.26380772119E+03  0.38136411955E+03  0.17190303429E+03 0.  0.
        -24    2    3    3    0    0  0.19626997804E+03 -0.12547545858E+03 -0.21457491972E+03  0.32646778266E+03  0.79201148731E+02 0.  0.
          6    2    1    2  501    0 -0.17262789612E+03  0.12842520860E+03  0.14811859139E+03  0.31280630509E+03  0.17209079773E+03 0.  0.
         24    2    5    5    0    0 -0.17772957516E+03  0.11866619362E+03  0.17219825485E+03  0.28591419295E+03  0.80157466048E+02 0.  0.
          5    1    5    5  501    0  0.51016790413E+01  0.97590149835E+01 -0.24079663462E+02  0.26892112132E+02  0.47000000000E+01 0. -1.
        -13    1    6    6    0    0  0.65536992468E+01  0.10668101408E+02  0.20161490998E+02  0.23732784934E+02  0.00000000000E+00 0.  1.
         14    1    6    6    0    0 -0.18428327441E+03  0.10799809221E+03  0.15203676386E+03  0.26218140802E+03  0.00000000000E+00 0. -1.
         -5    1    3    3    0  503 -0.23642081917E+02 -0.29497500186E+01 -0.49232801474E+02  0.54896336886E+02  0.47000000000E+01 0.  1.
         11    1    4    4    0    0  0.11032424752E+03 -0.10491160148E+03 -0.16746416908E+03  0.22632306918E+03  0.00000000000E+00 0. -1.
        -12    1    4    4    0    0  0.85945730522E+02 -0.20563857097E+02 -0.47110750636E+02  0.10014471349E+03  0.00000000000E+00 0.  1.
</event>
<event>
12    1  0.8251070E-002  0.3184824E+03  0.7818608E-02  0.1076361E+00
         21   -1    0    0  501  502  0.00000000000E+00  0.00000000000E+00  0.46502781644E+03  0.46502781644E+03  0.00000000000E+00 0.  1.
         21   -1    0    0  502  503 -0.00000000000E+00 -0.00000000000E+00 -0.22160572471E+03  0.22160572471E+03  0.00000000000E+00 0.  1.
         -6    2    1    2    0  503 -0.26385355214E+03 -0.46604850942E+02  0.16520283720E+03  0.35877985583E+03  0.17216358041E+03 0.  0.
        -24    2    3    3    0    0 -0.13273861070E+03 -0.25329287235E+02  0.16390995627E+03  0.22586056068E+03  0.76716409891E+02 0.  0.
          6    2    1    2  501    0  0.26385355214E+03  0.46604850942E+02  0.78219254534E+02  0.32785368532E+03  0.17198569153E+03 0.  0.
         24    2    5    5    0    0  0.75409710480E+02 -0.31188740814E+02  0.46099356053E+02  0.12141555354E+03  0.77183055289E+02 0.  0.
          5    1    5    5  501    0  0.18844384166E+03  0.77793591756E+02  0.32119898481E+02  0.20643813179E+03  0.47000000000E+01 0. -1.
        -11    1    6    6    0    0  0.57910345736E+02  0.17193888910E+02  0.19382126042E+02  0.63442137173E+02  0.00000000000E+00 0.  1.
         12    1    6    6    0    0  0.17499364745E+02 -0.48382629724E+02  0.26717230010E+02  0.57973416364E+02  0.00000000000E+00 0. -1.
         -5    1    3    3    0  503 -0.13111494144E+03 -0.21275563708E+02  0.12928809355E+01  0.13291929515E+03  0.47000000000E+01 0.  1.
         13    1    4    4    0    0 -0.13806358253E+02  0.20702451486E+02  0.45375462700E+02  0.51750745318E+02  0.00000000000E+00 0. -1.
        -14    1    4    4    0    0 -0.11893225244E+03 -0.46031738720E+02  0.11853449357E+03  0.17410981536E+03  0.00000000000E+00 0.  1.
</event>
<event>
12    1  0.8251070E-002  0.2804683E+03  0.7818608E-02  0.1095482E+00
         21   -1    0    0  503  502  0.00000000000E+00  0.00000000000E+00  0.41773030189E+03  0.41773030189E+03  0.00000000000E+00 0.  1.
         21   -1    0    0  501  503 -0.00000000000E+00 -0.00000000000E+00 -0.32336884434E+03  0.32336884434E+03  0.00000000000E+00 0. -1.
          6    2    1    2  501    0  0.21707457843E+03  0.31391693423E+02 -0.19252466315E+03  0.33989333070E+03  0.17422663206E+03 0.  0.
         24    2    3    3    0    0  0.10436337888E+03  0.66784292104E+02 -0.47613482243E+02  0.15286982711E+03  0.75830625905E+02 0.  0.
         -6    2    1    2    0  502 -0.21707457843E+03 -0.31391693423E+02  0.28688612071E+03  0.40120581553E+03  0.17480174239E+03 0.  0.
        -24    2    5    5    0    0 -0.19197890976E+03  0.70924487881E+01  0.28763220352E+03  0.35501633158E+03  0.79988165163E+02 0.  0.
          5    1    3    3  501    0  0.11271119955E+03 -0.35392598681E+02 -0.14491118090E+03  0.18702350359E+03  0.47000000000E+01 0. -1.
        -13    1    4    4    0    0  0.63416204007E+00  0.20777905378E+02  0.12702752297E+02  0.24361515333E+02  0.00000000000E+00 0.  1.
         14    1    4    4    0    0  0.10372921684E+03  0.46006386726E+02 -0.60316234540E+02  0.12850831177E+03  0.00000000000E+00 0. -1.
         -5    1    5    5    0  502 -0.25095668671E+02 -0.38484142211E+02 -0.74608281236E+00  0.46189483947E+02  0.47000000000E+01 0.  1.
         13    1    6    6    0    0 -0.56785534892E+02 -0.20979574120E+02  0.43511027028E+02  0.74551653076E+02  0.00000000000E+00 0. -1.
        -14    1    6    6    0    0 -0.13519337487E+03  0.28072022908E+02  0.24412117649E+03  0.28046467851E+03  0.00000000000E+00 0.  1.
</event>
<event>
12    1  0.8251070E-002  0.2055583E+03  0.7818608E-02  0.1145295E+00
         21   -1    0    0  503  502  0.00000000000E+00  0.00000000000E+00  0.45122845470E+03  0.45122845470E+03  0.00000000000E+00 0.  1.
         21   -1    0    0  501  503 -0.00000000000E+00 -0.00000000000E+00 -0.98349758980E+02  0.98349758980E+02  0.00000000000E+00 0.  1.
          6    2    1    2  501    0 -0.10771793472E+03  0.25075713409E+02  0.11372186802E+03  0.23422094465E+03  0.17232191614E+03 0.  0.
         24    2    3    3    0    0 -0.22167485208E+02 -0.42642909922E+02  0.51573178690E+02  0.10856569827E+03  0.82564537866E+02 0.  0.
         -6    2    1    2    0  502  0.10771793472E+03 -0.25075713409E+02  0.23915682770E+03  0.31535726903E+03  0.17326936841E+03 0.  0.
        -24    2    5    5    0    0  0.84769460683E+02 -0.25781861162E+02  0.57286340386E+02  0.13198307439E+03  0.79292126343E+02 0.  0.
          5    1    3    3  501    0 -0.85550449516E+02  0.67718623332E+02  0.62148689333E+02  0.12565524639E+03  0.47000000000E+01 0. -1.
        -11    1    4    4    0    0 -0.34172751949E+02  0.99294634754E+01  0.25333761516E+01  0.35676171536E+02  0.00000000000E+00 0.  1.
         12    1    4    4    0    0  0.12005266741E+02 -0.52572373398E+02  0.49039802538E+02  0.72889526732E+02  0.00000000000E+00 0. -1.
         -5    1    5    5    0  502  0.22948474042E+02  0.70614775327E+00  0.18187048731E+03  0.18337419464E+03  0.47000000000E+01 0.  1.
         11    1    6    6    0    0  0.95359637452E+01  0.25916952330E+02  0.12947747415E+02  0.30500281733E+02  0.00000000000E+00 0. -1.
        -12    1    6    6    0    0  0.75233496938E+02 -0.51698813493E+02  0.44338592971E+02  0.10148279265E+03  0.00000000000E+00 0.  1.
</event>
<event>
12    1  0.8251070E-002  0.2097822E+03  0.7818608E-02  0.1141962E+00
         21   -1    0    0  501  502  0.00000000000E+00  0.00000000000E+00  0.22664848697E+03  0.22664848697E+03  0.00000000000E+00 0.  1.
         21   -1    0    0  502  503 -0.00000000000E+00 -0.00000000000E+00 -0.19357852418E+03  0.19357852418E+03  0.00000000000E+00 0. -1.
         -6    2    1    2    0  503  0.10617156553E+03 -0.52325981166E+02  0.64649165725E+01  0.20988182581E+03  0.17319981533E+03 0.  0.
        -24    2    3    3    0    0  0.35111219359E+02  0.20310743250E+02 -0.45889555361E+02  0.95475762762E+02  0.73242378222E+02 0.  0.
          6    2    1    2  501    0 -0.10617156553E+03  0.52325981166E+02  0.26605046221E+02  0.21034518534E+03  0.17183381180E+03 0.  0.
         24    2    5    5    0    0 -0.60683636715E+02 -0.38730990909E+02  0.73621517336E+01  0.10664898088E+03  0.78340349899E+02 0.  0.
          5    1    5    5  501    0 -0.45487928811E+02  0.91056972075E+02  0.19242894488E+02  0.10369620446E+03  0.47000000000E+01 0. -1.
        -11    1    6    6    0    0  0.88917988158E+01  0.23169319839E+01 -0.19468617695E+02  0.21528105698E+02  0.00000000000E+00 0.  1.
         12    1    6    6    0    0 -0.69575435531E+02 -0.41047922893E+02  0.26830769428E+02  0.85120875179E+02  0.00000000000E+00 0. -1.
         -5    1    3    3    0  503  0.71060346167E+02 -0.72636724416E+02  0.52354471933E+02  0.11440606305E+03  0.47000000000E+01 0.  1.
         11    1    4    4    0    0  0.35172025605E+02 -0.20578592999E+02 -0.12319866532E+02  0.42571457414E+02  0.00000000000E+00 0. -1.
        -12    1    4    4    0    0 -0.60806245488E-01  0.40889336250E+02 -0.33569688829E+02  0.52904305349E+02  0.00000000000E+00 0.  1.
</event>
<event>
12    1  0.8251070E-002  0.1856395E+03  0.7818608E-02  0.1162748E+00
         21   -1    0    0  501  502  0.00000000000E+00  0.00000000000E+00  0.40241709748E+03  0.40241709748E+03  0.00000000000E+00 0.  1.
         21   -1    0    0  502  503 -0.00000000000E+00 -0.00000000000E+00 -0.86297417945E+02  0.86297417945E+02  0.00000000000E+00 0.  1.
         -6    2    1    2    0  503 -0.60333588988E+02  0.21470823764E+02  0.12929560508E+03  0.22622861665E+03  0.17424378113E+03 0.  0.
        -24    2    3    3    0    0  0.30159175066E+02  0.10843981119E+01  0.93069017354E+02  0.12653407138E+03  0.80238877544E+02 0.  0.
          6    2    1    2  501    0  0.60333588988E+02 -0.21470823764E+02  0.18682407445E+03  0.26248589878E+03  0.17290018516E+03 0.  0.
         24    2    5    5    0    0  0.15985925866E+02  0.36629774912E+02  0.39031183826E+02  0.97539776331E+02  0.79958016609E+02 0.  0.
          5    1    5    5  501    0  0.44347663122E+02 -0.58100598675E+02  0.14779289063E+03  0.16494612245E+03  0.47000000000E+01 0. -1.
        -11    1    6    6    0    0  0.36870451766E+02 -0.91256607061E+01  0.24451773458E+02  0.45172968931E+02  0.00000000000E+00 0.  1.
         12    1    6    6    0    0 -0.20884525900E+02  0.45755435618E+02  0.14579410368E+02  0.52366807401E+02  0.00000000000E+00 0. -1.
         -5    1    3    3    0  503 -0.90492764054E+02  0.20386425652E+02  0.36226587730E+02  0.99694545265E+02  0.47000000000E+01 0.  1.
         13    1    4    4    0    0  0.22346766318E+02  0.13287697525E+02  0.10474626141E+03  0.10792460401E+03  0.00000000000E+00 0. -1.
        -14    1    4    4    0    0  0.78124087488E+01 -0.12203299414E+02 -0.11677244061E+02  0.18609467372E+02  0.00000000000E+00 0.  1.
</event>
<event>
12    1  0.8251070E-002  0.1888128E+03  0.7818608E-02  0.1159633E+00
         21   -1    0    0  503  502  0.00000000000E+00  0.00000000000E+00  0.29446799921E+03  0.29446799921E+03  0.00000000000E+00 0. -1.
         21   -1    0    0  501  503 -0.00000000000E+00 -0.00000000000E+00 -0.12369911244E+03  0.12369911244E+03  0.00000000000E+00 0. -1.
          6    2    1    2  501    0  0.20828338608E+02 -0.72459188918E+02  0.11732503259E+03  0.22193629924E+03  0.17264531242E+03 0.  0.
         24    2    3    3    0    0  0.17757936065E+02 -0.38099552752E+02 -0.85376476942E+01  0.91347186917E+02  0.80650461352E+02 0.  0.
         -6    2    1    2    0  502 -0.20828338608E+02  0.72459188918E+02  0.53443854189E+02  0.19623081241E+03  0.17310728593E+03 0.  0.
        -24    2    5    5    0    0  0.20883094853E+01  0.11492311992E+03  0.48131987344E+02  0.14745926204E+03  0.78840733289E+02 0.  0.
          5    1    3    3  501    0  0.30704025424E+01 -0.34359636166E+02  0.12586268028E+03  0.13058911232E+03  0.47000000000E+01 0. -1.
        -13    1    4    4    0    0 -0.29069482350E+02 -0.68488115284E+00 -0.11657221222E+02  0.31327219361E+02  0.00000000000E+00 0.  1.
         14    1    4    4    0    0  0.46827418416E+02 -0.37414671599E+02  0.31195735276E+01  0.60019967555E+02  0.00000000000E+00 0. -1.
         -5    1    5    5    0  502 -0.22916648093E+02 -0.42463931006E+02  0.53118668444E+01  0.48771550372E+02  0.47000000000E+01 0.  1.
         11    1    6    6    0    0 -0.27636377156E+02  0.59619475208E+02 -0.40238195749E+01  0.65836481455E+02  0.00000000000E+00 0. -1.
        -12    1    6    6    0    0  0.29724686641E+02  0.55303644715E+02  0.52155806919E+02  0.81622780583E+02  0.00000000000E+00 0.  1.
</event>
<event>
12    1  0.8251070E-002  0.1953651E+03  0.7818608E-02  0.1153867E+00
         21   -1    0    0  501  502  0.00000000000E+00  0.00000000000E+00  0.34658543839E+03  0.34658543839E+03  0.00000000000E+00 0.  1.
         21   -1    0    0  502  503 -0.00000000000E+00 -0.00000000000E+00 -0.21511243990E+03  0.21511243990E+03  0.00000000000E+00 0.  1.
         -6    2    1    2    0  503  0.30596548689E+02 -0.90947233453E+02 -0.13091090853E+03  0.23456969478E+03  0.16934499600E+03 0.  0.
        -24    2    3    3    0    0  0.84779301178E+02 -0.61512474035E+02 -0.87327541105E+02  0.15891405622E+03  0.81585926844E+02 0.  0.
          6    2    1    2  501    0 -0.30596548689E+02  0.90947233453E+02  0.26238390701E+03  0.32712818351E+03  0.17017633715E+03 0.  0.
         24    2    5    5    0    0 -0.20138143597E+02  0.28018094405E+02  0.38762989473E+02  0.94538717847E+02  0.79021777869E+02 0.  0.
          5    1    5    5  501    0 -0.10458405092E+02  0.62929139047E+02  0.22362091754E+03  0.23258946567E+03  0.47000000000E+01 0. -1.
        -13    1    6    6    0    0  0.18060413932E+02  0.28152006283E+02  0.44755445573E+02  0.55872747539E+02  0.00000000000E+00 0.  1.
         14    1    6    6    0    0 -0.38198557529E+02 -0.13391187787E+00 -0.59924560995E+01  0.38665970307E+02  0.00000000000E+00 0. -1.
         -5    1    3    3    0  503 -0.54182752489E+02 -0.29434759418E+02 -0.43583367425E+02  0.75655638556E+02  0.47000000000E+01 0.  1.
         13    1    4    4    0    0  0.41539460366E+02 -0.63255365386E+02 -0.87439127660E+02  0.11563895997E+03  0.00000000000E+00 0. -1.
        -14    1    4    4    0    0  0.43239840812E+02  0.17428913515E+01  0.11158655506E+00  0.43275096248E+02  0.00000000000E+00 0.  1.
</event>
<event>
12    1  0.8251070E-002  0.1760969E+03  0.7818608E-02  0.1171702E+00
         21   -1    0    0  501  502  0.00000000000E+00  0.00000000000E+00  0.21425355915E+03  0.21425355915E+03  0.00000000000E+00 0.  1.
         21   -1    0    0  502  503 -0.00000000000E+00 -0.00000000000E+00 -0.17041582690E+03  0.17041582690E+03  0.00000000000E+00 0. -1.
         -6    2    1    2    0  503  0.98873853813E+01 -0.41250887076E+02  0.96915584468E+02  0.20100431471E+03  0.17091140379E+03 0.  0.
        -24    2    3    3    0    0 -0.45255769351E+02 -0.18369541145E+02  0.77683364426E+01  0.93609504144E+02  0.79478723654E+02 0.  0.
          6    2    1    2  501    0 -0.98873853813E+01  0.41250887076E+02 -0.53077852218E+02  0.18366507135E+03  0.17063470914E+03 0.  0.
         24    2    5    5    0    0 -0.38487332764E+02 -0.23924315838E+02 -0.90139891100E+01  0.99823088447E+02  0.88485870713E+02 0.  0.
          5    1    5    5  501    0  0.28599947383E+02  0.65175202914E+02 -0.44063863108E+02  0.83841982903E+02  0.47000000000E+01 0. -1.
        -13    1    6    6    0    0  0.95557380447E+01 -0.24389984541E+02  0.28616285160E+02  0.38795299353E+02  0.00000000000E+00 0.  1.
         14    1    6    6    0    0 -0.48043070809E+02  0.46566870377E+00 -0.37630274270E+02  0.61027789094E+02  0.00000000000E+00 0. -1.
         -5    1    3    3    0  503  0.55143154732E+02 -0.22881345931E+02  0.89147248026E+02  0.10739481056E+03  0.47000000000E+01 0.  1.
         13    1    4    4    0    0 -0.22388971053E+02  0.29896606467E+02 -0.74251115042E+01  0.38081562257E+02  0.00000000000E+00 0. -1.
        -14    1    4    4    0    0 -0.22866798298E+02 -0.48266147612E+02  0.15193447947E+02  0.55527941887E+02  0.00000000000E+00 0.  1.
</event>
<event>
12    1  0.8251070E-002  0.1949779E+03  0.7818608E-02  0.1154047E+00
         21   -1    0    0  501  502  0.00000000000E+00  0.00000000000E+00  0.14513326905E+03  0.14513326905E+03  0.00000000000E+00 0. -1.
         21   -1    0    0  502  503 -0.00000000000E+00 -0.00000000000E+00 -0.27128788925E+03  0.27128788925E+03  0.00000000000E+00 0. -1.
         -6    2    1    2    0  503 -0.78832025116E+02  0.49611010212E+02 -0.24422189093E+02  0.19650147627E+03  0.17129111576E+03 0.  0.
        -24    2    3    3    0    0 -0.17064886668E+02  0.69255248406E+02  0.29002421213E+02  0.11237446234E+03  0.81849737704E+02 0.  0.
          6    2    1    2  501    0  0.78832025116E+02 -0.49611010212E+02 -0.10173243111E+03  0.21991968202E+03  0.17128758998E+03 0.  0.
         24    2    5    5    0    0 -0.25471236219E+01  0.17715181159E+02 -0.11717424863E+02  0.81066618520E+02  0.78193242104E+02 0.  0.
          5    1    5    5  501    0  0.81379148738E+02 -0.67326191371E+02 -0.90015006247E+02  0.13885306350E+03  0.47000000000E+01 0. -1.
        -13    1    6    6    0    0 -0.57137640523E+01  0.45384525535E+02 -0.22778498586E+02  0.51100511304E+02  0.00000000000E+00 0.  1.
         14    1    6    6    0    0  0.31666404305E+01 -0.27669344376E+02  0.11061073724E+02  0.29966107217E+02  0.00000000000E+00 0. -1.
         -5    1    3    3    0  503 -0.61767138448E+02 -0.19644238195E+02 -0.53424610305E+02  0.84127013929E+02  0.47000000000E+01 0.  1.
         11    1    4    4    0    0 -0.31654990350E+02  0.34708475207E+02 -0.19672454574E+02  0.50928598392E+02  0.00000000000E+00 0. -1.
        -12    1    4    4    0    0  0.14590103682E+02  0.34546773199E+02  0.48674875787E+02  0.61445863952E+02  0.00000000000E+00 0.  1.
</event>
<event>
12    1  0.8251070E-002  0.1838814E+03  0.7818608E-02  0.1167076E+00
         21   -1    0    0  503  502  0.00000000000E+00  0.00000000000E+00  0.97872338768E+02  0.97872338768E+02  0.00000000000E+00 0. -1.
         21   -1    0    0  501  503 -0.00000000000E+00 -0.00000000000E+00 -0.35195356434E+03  0.35195356434E+03  0.00000000000E+00 0. -1.
          6    2    1    2  501    0  0.54318597499E+02 -0.36065128517E+02 -0.19558083355E+03  0.26844779752E+03  0.17193357442E+03 0.  0.
         24    2    3    3    0    0  0.10066189842E+03 -0.92673818921E+01 -0.12828496543E+03  0.18232785424E+03  0.81041420988E+02 0.  0.
         -6    2    1    2    0  502 -0.54318597499E+02  0.36065128517E+02 -0.58500392028E+02  0.18137810559E+03  0.15882228368E+03 0.  0.
        -24    2    5    5    0    0  0.80644555008E+01 -0.25437824338E+02 -0.34164489861E+02  0.90336441254E+02  0.79254917206E+02 0.  0.
          5    1    3    3  501    0 -0.46343300921E+02 -0.26797746625E+02 -0.67295868114E+02  0.86119943275E+02  0.47000000000E+01 0. -1.
        -11    1    4    4    0    0  0.38373394802E+02  0.24733398302E+02 -0.91819108381E+02  0.10254270859E+03  0.00000000000E+00 0.  1.
         12    1    4    4    0    0  0.62288503619E+02 -0.34000780194E+02 -0.36465857051E+02  0.79785145656E+02  0.00000000000E+00 0. -1.
         -5    1    5    5    0  502 -0.62383053000E+02  0.61502952855E+02 -0.24335902167E+02  0.91041664340E+02  0.47000000000E+01 0.  1.
         13    1    6    6    0    0  0.86609570574E+01  0.23785255683E+02  0.68933218359E+01  0.26234870897E+02  0.00000000000E+00 0. -1.
        -14    1    6    6    0    0 -0.59650155666E+00 -0.49223080021E+02 -0.41057811697E+02  0.64101570357E+02  0.00000000000E+00 0.  1.
</event>
<event>
12    1  0.8251070E-002  0.2779922E+03  0.7818608E-02  0.1097458E+00
         21   -1    0    0  503  502  0.00000000000E+00  0.00000000000E+00  0.66917105512E+02  0.66917105512E+02  0.00000000000E+00 0. -1.
         21   -1    0    0  501  503 -0.00000000000E+00 -0.00000000000E+00 -0.12114543133E+04  0.12114543133E+04  0.00000000000E+00 0.  1.
          6    2    1    2  501    0  0.19601396541E+03 -0.97815668583E+02 -0.73749123660E+03  0.78814527928E+03  0.17114402572E+03 0.  0.
         24    2    3    3    0    0  0.12501375254E+03  0.60472347309E+01 -0.45174715906E+03  0.47589489776E+03  0.82069791180E+02 0.  0.
         -6    2    1    2    0  502 -0.19601396541E+03  0.97815668583E+02 -0.40704597118E+03  0.49022613951E+03  0.16323561363E+03 0.  0.
        -24    2    5    5    0    0 -0.13681204892E+03  0.24024312258E+02 -0.15836750905E+03  0.22411883275E+03  0.76513260057E+02 0.  0.
          5    1    3    3  501    0  0.71000212874E+02 -0.10386290331E+03 -0.28574407753E+03  0.31225038152E+03  0.47000000000E+01 0. -1.
        -13    1    4    4    0    0  0.25754005133E+02 -0.33123999006E+02 -0.15357044565E+03  0.15919908878E+03  0.00000000000E+00 0.  1.
         14    1    4    4    0    0  0.99259747404E+02  0.39171233737E+02 -0.29817671341E+03  0.31669580898E+03  0.00000000000E+00 0. -1.
         -5    1    5    5    0  502 -0.59201916492E+02  0.73791356325E+02 -0.24867846213E+03  0.26610730676E+03  0.47000000000E+01 0.  1.
         13    1    6    6    0    0 -0.30592453939E+02 -0.78788214499E+01 -0.10131143530E+01  0.31606968633E+02  0.00000000000E+00 0. -1.
        -14    1    6    6    0    0 -0.10621959498E+03  0.31903133708E+02 -0.15735439469E+03  0.19251186412E+03  0.00000000000E+00 0.  1.
</event>
<event>
12    1  0.8251070E-002  0.2607699E+03  0.7818608E-02  0.1106817E+00
         21   -1    0    0  503  502  0.00000000000E+00  0.00000000000E+00  0.83075146925E+02  0.83075146925E+02  0.00000000000E+00 0. -1.
         21   -1    0    0  501  503 -0.00000000000E+00 -0.00000000000E+00 -0.92616488864E+03  0.92616488864E+03  0.00000000000E+00 0.  1.
          6    2    1    2  501    0 -0.19518219452E+03  0.16069064626E+02 -0.24792108107E+03  0.35981357853E+03  0.17218201114E+03 0.  0.
         24    2    3    3    0    0 -0.15729984092E+03  0.40114440889E+02 -0.25528501886E+03  0.31410175934E+03  0.84481157947E+02 0.  0.
         -6    2    1    2    0  502  0.19518219452E+03 -0.16069064626E+02 -0.59516866065E+03  0.64942645704E+03  0.17080598524E+03 0.  0.
        -24    2    5    5    0    0  0.79223740040E+02 -0.37096531854E+02 -0.13241456624E+03  0.17187859616E+03  0.66000612144E+02 0.  0.
          5    1    3    3  501    0 -0.37882353592E+02 -0.24045376263E+02  0.73639377858E+01  0.45711819183E+02  0.47000000000E+01 0. -1.
        -13    1    4    4    0    0 -0.94455084123E+02 -0.19307810655E+02 -0.12928757926E+03  0.16127564175E+03  0.00000000000E+00 0.  1.
         14    1    4    4    0    0 -0.62844756801E+02  0.59422251544E+02 -0.12599743959E+03  0.15282611760E+03  0.00000000000E+00 0. -1.
         -5    1    5    5    0  502  0.11595845448E+03  0.21027467227E+02 -0.46275409441E+03  0.47754786088E+03  0.47000000000E+01 0.  1.
         11    1    6    6    0    0  0.53286819139E+02  0.11391355951E+02 -0.69650188246E+02  0.88433007453E+02  0.00000000000E+00 0. -1.
        -12    1    6    6    0    0  0.25936920901E+02 -0.48487887804E+02 -0.62764377995E+02  0.83445588707E+02  0.00000000000E+00 0.  1.
</event>
<event>
12    1  0.8251070E-002  0.1864043E+03  0.7818608E-02  0.1161837E+00
         21   -1    0    0  503  502  0.00000000000E+00  0.00000000000E+00  0.12284276970E+03  0.12284276970E+03  0.00000000000E+00 0. -1.
         21   -1    0    0  501  503 -0.00000000000E+00 -0.00000000000E+00 -0.33578960785E+03  0.33578960785E+03  0.00000000000E+00 0. -1.
          6    2    1    2  501    0  0.59348796536E+02 -0.38269155553E+02 -0.15000954566E+02  0.18700692577E+03  0.17251015544E+03 0.  0.
         24    2    3    3    0    0  0.34844237773E+02 -0.78365101477E+02  0.31913799771E+02  0.12043934767E+03  0.78306677970E+02 0.  0.
         -6    2    1    2    0  502 -0.59348796536E+02  0.38269155553E+02 -0.19794588358E+03  0.27162545178E+03  0.17207848591E+03 0.  0.
        -24    2    5    5    0    0 -0.30964171247E+02 -0.39123293612E+02 -0.14794689707E+03  0.17509946154E+03  0.79259857907E+02 0.  0.
          5    1    3    3  501    0  0.24504558763E+02  0.40095945924E+02 -0.46914754337E+02  0.66567578101E+02  0.47000000000E+01 0. -1.
        -13    1    4    4    0    0  0.10769732534E+02  0.14125776413E+01 -0.19644827676E+02  0.22447756433E+02  0.00000000000E+00 0.  1.
         14    1    4    4    0    0  0.24074505239E+02 -0.79777679118E+02  0.51558627447E+02  0.97991591232E+02  0.00000000000E+00 0. -1.
         -5    1    5    5    0  502 -0.28384625289E+02  0.77392449165E+02 -0.49998986511E+02  0.96525990245E+02  0.47000000000E+01 0.  1.
         13    1    6    6    0    0  0.17870232485E+02 -0.15955394991E+02 -0.10005556301E+03  0.10288360184E+03  0.00000000000E+00 0. -1.
        -14    1    6    6    0    0 -0.48834403732E+02 -0.23167898621E+02 -0.47891334060E+02  0.72215859701E+02  0.00000000000E+00 0.  1.
</event>
<event>
12    1  0.8251070E-002  0.1735760E+03  0.7818608E-02  0.1174169E+00
         21   -1    0    0  501  502  0.00000000000E+00  0.00000000000E+00  0.26404773981E+03  0.26404773981E+03  0.00000000000E+00 0. -1.
         21   -1    0    0  502  503 -0.00000000000E+00 -0.00000000000E+00 -0.38548476675E+03  0.38548476675E+03  0.00000000000E+00 0. -1.
         -6    2    1    2    0  503 -0.19936240117E+02  0.12936018228E+02 -0.33321301867E+03  0.37571195830E+03  0.17194116889E+03 0.  0.
        -24    2    3    3    0    0 -0.56662371696E+02  0.34784740036E+02 -0.31019256481E+03  0.32694509782E+03  0.79076337895E+02 0.  0.
          6    2    1    2  501    0  0.19936240117E+02 -0.12936018228E+02  0.21177599173E+03  0.27382054827E+03  0.17194134971E+03 0.  0.
         24    2    5    5    0    0  0.39191372852E+02  0.20224908776E+02  0.21636593855E+03  0.23491598776E+03  0.80164152222E+02 0.  0.
          5    1    5    5  501    0 -0.19255132736E+02 -0.33160927004E+02 -0.45899468133E+01  0.38904560506E+02  0.47000000000E+01 0. -1.
        -13    1    6    6    0    0  0.47514555455E+02  0.46616936248E+00  0.57423240149E+02  0.74533742715E+02  0.00000000000E+00 0.  1.
         14    1    6    6    0    0 -0.83231826026E+01  0.19758739414E+02  0.15894269840E+03  0.16038224505E+03  0.00000000000E+00 0. -1.
         -5    1    3    3    0  503  0.36726131580E+02 -0.21848721808E+02 -0.23020453858E+02  0.48766860482E+02  0.47000000000E+01 0.  1.
         13    1    4    4    0    0 -0.98279196215E+00 -0.18773862115E+02 -0.12312389047E+03  0.12455085782E+03  0.00000000000E+00 0. -1.
        -14    1    4    4    0    0 -0.55679579734E+02  0.53558602151E+02 -0.18706867434E+03  0.20239424000E+03  0.00000000000E+00 0.  1.
</event>
<event>
12    1  0.8251070E-002  0.2061865E+03  0.7818608E-02  0.1144713E+00
         21   -1    0    0  503  502  0.00000000000E+00  0.00000000000E+00  0.14021400480E+03  0.14021400480E+03  0.00000000000E+00 0. -1.
         21   -1    0    0  501  503 -0.00000000000E+00 -0.00000000000E+00 -0.32190749274E+03  0.32190749274E+03  0.00000000000E+00 0. -1.
          6    2    1    2  501    0 -0.78175787644E+02  0.82858746991E+02 -0.34084097131E+02  0.20854431289E+03  0.17132419279E+03 0.  0.
         24    2    3    3    0    0  0.20216368053E+02  0.38964006604E+02 -0.42310309558E+02  0.10038921543E+03  0.79755482144E+02 0.  0.
         -6    2    1    2    0  502  0.78175787644E+02 -0.82858746991E+02 -0.14760939081E+03  0.25357718464E+03  0.17185991559E+03 0.  0.
        -24    2    5    5    0    0  0.17583317292E+02  0.43097241760E+01 -0.11985194582E+03  0.14374842893E+03  0.77274673290E+02 0.  0.
          5    1    3    3  501    0 -0.98392155698E+02  0.43894740387E+02  0.82262124277E+01  0.10815509746E+03  0.47000000000E+01 0. -1.
        -11    1    4    4    0    0  0.14258374811E+02 -0.14501806112E+02 -0.41918021055E+02  0.46591030488E+02  0.00000000000E+00 0.  1.
         12    1    4    4    0    0  0.59579932423E+01  0.53465812716E+02 -0.39228850330E+00  0.53798184943E+02  0.00000000000E+00 0. -1.
         -5    1    5    5    0  502  0.60592470352E+02 -0.87168471167E+02 -0.27757444990E+02  0.10982875571E+03  0.47000000000E+01 0.  1.
         13    1    6    6    0    0  0.39826298579E+02 -0.18964263657E+02 -0.49028216154E+02  0.65951067723E+02  0.00000000000E+00 0. -1.
        -14    1    6    6    0    0 -0.22242981287E+02  0.23273987833E+02 -0.70823729668E+02  0.77797361203E+02  0.00000000000E+00 0.  1.
</event>
<event>
12    1  0.8251070E-002  0.2019720E+03  0.7818608E-02  0.1148559E+00
         21   -1    0    0  503  502  0.00000000000E+00  0.00000000000E+00  0.18528839866E+03  0.18528839866E+03  0.00000000000E+00 0. -1.
         21   -1    0    0  501  503 -0.00000000000E+00 -0.00000000000E+00 -0.37758344873E+03  0.37758344873E+03  0.00000000000E+00 0. -1.
          6    2    1    2  501    0 -0.29406251380E+01  0.10357904280E+03 -0.27896877249E+03  0.34308777324E+03  0.17072896281E+03 0.  0.
         24    2    3    3    0    0 -0.31163930487E+02  0.46182214275E+02 -0.58708257022E+02  0.11368041599E+03  0.79828504045E+02 0.  0.
         -6    2    1    2    0  502  0.29406251380E+01 -0.10357904280E+03  0.86673722424E+02  0.21978407414E+03  0.17336504753E+03 0.  0.
        -24    2    5    5    0    0  0.34740155816E+01 -0.13949740295E+03  0.85362097764E+02  0.18353185407E+03  0.83220547408E+02 0.  0.
          5    1    3    3  501    0  0.28223305349E+02  0.57396828528E+02 -0.22026051547E+03  0.22940735726E+03  0.47000000000E+01 0. -1.
        -11    1    4    4    0    0 -0.48944666356E+02  0.41497252207E+01 -0.17363168462E+02  0.52098754334E+02  0.00000000000E+00 0.  1.
         12    1    4    4    0    0  0.17780735869E+02  0.42032489054E+02 -0.41345088560E+02  0.61581661655E+02  0.00000000000E+00 0. -1.
         -5    1    5    5    0  502 -0.53339044364E+00  0.35918360144E+02  0.13116246600E+01  0.36252220071E+02  0.47000000000E+01 0.  1.
         11    1    6    6    0    0 -0.36843020507E+01 -0.28407394034E+02  0.64085785925E+02  0.70196453436E+02  0.00000000000E+00 0. -1.
        -12    1    6    6    0    0  0.71583176323E+01 -0.11109000891E+03  0.21276311839E+02  0.11333540064E+03  0.00000000000E+00 0.  1.
</event>
<event>
12    1  0.8251070E-002  0.2116773E+03  0.7818608E-02  0.1141334E+00
         21   -1    0    0  503  502  0.00000000000E+00  0.00000000000E+00  0.20949684355E+03  0.20949684355E+03  0.00000000000E+00 0.  1.
         21   -1    0    0  501  503 -0.00000000000E+00 -0.00000000000E+00 -0.82852213345E+03  0.82852213345E+03  0.00000000000E+00 0.  1.
          6    2    1    2  501    0 -0.19947776697E+02  0.11117805171E+03 -0.75750591406E+03  0.78506808507E+03  0.17250569668E+03 0.  0.
         24    2    3    3    0    0  0.52955657966E+02  0.89039300464E+02 -0.52211154015E+03  0.53760569124E+03  0.75412997282E+02 0.  0.
         -6    2    1    2    0  502  0.19947776697E+02 -0.11117805171E+03  0.13848062417E+03  0.25295089193E+03  0.17902177935E+03 0.  0.
        -24    2    5    5    0    0 -0.14137332523E+02  0.97142629160E+00  0.10127580651E+03  0.12988347730E+03  0.80075719490E+02 0.  0.
          5    1    3    3  501    0 -0.72903434664E+02  0.22138751243E+02 -0.23539437391E+03  0.24746239383E+03  0.47000000000E+01 0. -1.
        -13    1    4    4    0    0  0.36707418483E+02  0.15170811152E+02 -0.30753792765E+03  0.31009218795E+03  0.00000000000E+00 0.  1.
         14    1    4    4    0    0  0.16248239483E+02  0.73868489312E+02 -0.21457361250E+03  0.22751350329E+03  0.00000000000E+00 0. -1.
         -5    1    5    5    0  502  0.34085109221E+02 -0.11214947800E+03  0.37204817652E+02  0.12306741462E+03  0.47000000000E+01 0.  1.
         13    1    6    6    0    0 -0.65899267058E+01  0.53912734489E+01 -0.12854496232E+02  0.15418529008E+02  0.00000000000E+00 0. -1.
        -14    1    6    6    0    0 -0.75474058175E+01 -0.44198471573E+01  0.11413030275E+03  0.11446494830E+03  0.00000000000E+00 0.  1.
</event>
<event>
12    1  0.8251070E-002  0.1773882E+03  0.7818608E-02  0.1170725E+00
         21   -1    0    0  503  502  0.00000000000E+00  0.00000000000E+00  0.10724508854E+04  0.10724508854E+04  0.00000000000E+00 0. -1.
         21   -1    0    0  501  503 -0.00000000000E+00 -0.00000000000E+00 -0.37299890828E+02  0.37299890828E+02  0.00000000000E+00 0. -1.
          6    2    1    2  501    0 -0.98696087268E+01  0.40274365235E+02  0.77953462215E+03  0.79946280977E+03  0.17247354406E+03 0.  0.
         24    2    3    3    0    0 -0.16354771679E+02 -0.85098806148E-01  0.73240415949E+03  0.73689832954E+03  0.79597797933E+02 0.  0.
         -6    2    1    2    0  502  0.98696087268E+01 -0.40274365235E+02  0.25561637239E+03  0.31028796643E+03  0.17093700186E+03 0.  0.
        -24    2    5    5    0    0 -0.42395777632E+02  0.19565633886E+02  0.99884947827E+02  0.13539696408E+03  0.78581925968E+02 0.  0.
          5    1    3    3  501    0  0.64851629524E+01  0.40359464041E+02  0.47130462659E+02  0.62564480232E+02  0.47000000000E+01 0. -1.
        -13    1    4    4    0    0 -0.35446194746E+02  0.26287422158E+02  0.29480141212E+03  0.29808611822E+03  0.00000000000E+00 0.  1.
         14    1    4    4    0    0  0.19091423067E+02 -0.26372520964E+02  0.43760274737E+03  0.43881221132E+03  0.00000000000E+00 0. -1.
         -5    1    5    5    0  502  0.52265386359E+02 -0.59839999121E+02  0.15573142456E+03  0.17489100235E+03  0.47000000000E+01 0.  1.
         13    1    6    6    0    0 -0.49987849226E+02  0.80816258831E+01  0.10809529006E+03  0.11936787457E+03  0.00000000000E+00 0. -1.
        -14    1    6    6    0    0  0.75920715938E+01  0.11484008002E+02 -0.82103422303E+01  0.16029089507E+02  0.00000000000E+00 0.  1.
</event>
<event>
12    1  0.8251070E-002  0.1750077E+03  0.7818608E-02  0.1172808E+00
         21   -1    0    0  501  502  0.00000000000E+00  0.00000000000E+00  0.71487720557E+02  0.71487720557E+02  0.00000000000E+00 0.  1.
         21   -1    0    0  502  503 -0.00000000000E+00 -0.00000000000E+00 -0.62816751107E+03  0.62816751107E+03  0.00000000000E+00 0.  1.
         -6    2    1    2    0  503 -0.27997421753E+02 -0.11236793461E+02 -0.47582288337E+03  0.50687160586E+03  0.17205024652E+03 0.  0.
        -24    2    3    3    0    0 -0.21583499285E+02  0.36131433442E+02 -0.13092539892E+03  0.15864574222E+03  0.79092879064E+02 0.  0.
          6    2    1    2  501    0  0.27997421753E+02  0.11236793461E+02 -0.80856907134E+02  0.19278362577E+03  0.17238783536E+03 0.  0.
         24    2    5    5    0    0  0.18113182444E+02  0.57536240220E+02 -0.21927816914E+01  0.10085174017E+03  0.80794547388E+02 0.  0.
          5    1    5    5  501    0  0.98842393091E+01 -0.46299446759E+02 -0.78664125442E+02  0.91931885592E+02  0.47000000000E+01 0. -1.
        -13    1    6    6    0    0  0.36951473518E+01 -0.77055777885E+01  0.26716373113E+02  0.28049859810E+02  0.00000000000E+00 0.  1.
         14    1    6    6    0    0  0.14418035092E+02  0.65241818009E+02 -0.28909154805E+02  0.72801880364E+02  0.00000000000E+00 0. -1.
         -5    1    3    3    0  503 -0.64139224681E+01 -0.47368226903E+02 -0.34489748446E+03  0.34822586364E+03  0.47000000000E+01 0.  1.
         13    1    4    4    0    0 -0.25171786543E+02  0.52785151839E+02 -0.12882973751E+03  0.14148142054E+03  0.00000000000E+00 0. -1.
        -14    1    4    4    0    0  0.35882872581E+01 -0.16653718397E+02 -0.20956614101E+01  0.17164321677E+02  0.00000000000E+00 0.  1.
</event>
<event>
12    1  0.8251070E-002  0.1879989E+03  0.7818608E-02  0.1161581E+00
         21   -1    0    0  503  502  0.00000000000E+00  0.00000000000E+00  0.46252409914E+02  0.46252409914E+02  0.00000000000E+00 0. -1.
         21   -1    0    0  501  503 -0.00000000000E+00 -0.00000000000E+00 -0.13448762666E+04  0.13448762666E+04  0.00000000000E+00 0. -1.
          6    2    1    2  501    0 -0.41383670855E+02  0.43761285690E+02 -0.17803645087E+03  0.25488058376E+03  0.17216119134E+03 0.  0.
         24    2    3    3    0    0 -0.91777639657E+02  0.46870357334E+02 -0.11779760684E+03  0.17614033518E+03  0.80803316516E+02 0.  0.
         -6    2    1    2    0  502  0.41383670855E+02 -0.43761285690E+02 -0.11205874059E+04  0.11362480928E+04  0.17808968490E+03 0.  0.
        -24    2    5    5    0    0  0.69783315549E+01 -0.30784743142E+02 -0.23295692724E+03  0.24784386352E+03  0.78493650768E+02 0.  0.
          5    1    3    3  501    0  0.50393968801E+02 -0.31090716446E+01 -0.60238844025E+02  0.78740248587E+02  0.47000000000E+01 0. -1.
        -13    1    4    4    0    0 -0.74667038376E+02  0.63708475925E+02 -0.11616358129E+03  0.15207864460E+03  0.00000000000E+00 0.  1.
         14    1    4    4    0    0 -0.17110601281E+02 -0.16838118591E+02 -0.16340255519E+01  0.24061690576E+02  0.00000000000E+00 0. -1.
         -5    1    5    5    0  502  0.34405339300E+02 -0.12976542548E+02 -0.88763047862E+03  0.88840422928E+03  0.47000000000E+01 0.  1.
         11    1    6    6    0    0 -0.98891156156E+01 -0.55783006175E+01 -0.20869663665E+03  0.20900525877E+03  0.00000000000E+00 0. -1.
        -12    1    6    6    0    0  0.16867447170E+02 -0.25206442524E+02 -0.24260290591E+02  0.38838604742E+02  0.00000000000E+00 0.  1.
</event>
<event>
12    1  0.8251070E-002  0.2671115E+03  0.7818608E-02  0.1102956E+00
         21   -1    0    0  503  502  0.00000000000E+00  0.00000000000E+00  0.39644223772E+02  0.39644223772E+02  0.00000000000E+00 0.  1.
         21   -1    0    0  501  503 -0.00000000000E+00 -0.00000000000E+00 -0.20819010437E+04  0.20819010437E+04  0.00000000000E+00 0.  1.
          6    2    1    2  501    0  0.15232238884E+03  0.13642862378E+03 -0.14119092374E+04  0.14369383718E+04  0.17172451770E+03 0.  0.
         24    2    3    3    0    0  0.72444077584E+02  0.15050747718E+03 -0.98696433456E+03  0.10042964653E+04  0.81315112552E+02 0.  0.
         -6    2    1    2    0  502 -0.15232238884E+03 -0.13642862378E+03 -0.63034758252E+03  0.68460689573E+03  0.17185356372E+03 0.  0.
        -24    2    5    5    0    0 -0.73674213793E+02 -0.11514166044E+03 -0.53687575404E+03  0.56051925346E+03  0.85210131263E+02 0.  0.
          5    1    3    3  501    0  0.79878311251E+02 -0.14078853401E+02 -0.42494490289E+03  0.43264190645E+03  0.47000000000E+01 0. -1.
        -11    1    4    4    0    0  0.64202669822E+02  0.41770520706E+02 -0.42601185704E+03  0.43284276770E+03  0.00000000000E+00 0.  1.
         12    1    4    4    0    0  0.82414077625E+01  0.10873695648E+03 -0.56095247752E+03  0.57145369763E+03  0.00000000000E+00 0. -1.
         -5    1    5    5    0  502 -0.78648175042E+02 -0.21286963341E+02 -0.93471828474E+02  0.12408764227E+03  0.47000000000E+01 0.  1.
         11    1    6    6    0    0 -0.35257560805E+02  0.38589499306E+01 -0.13912059116E+03  0.14357063061E+03  0.00000000000E+00 0. -1.
        -12    1    6    6    0    0 -0.38416652989E+02 -0.11900061037E+03 -0.39775516288E+03  0.41694862285E+03  0.00000000000E+00 0.  1.
</event>
<event>
12    1  0.8251070E-002  0.2753542E+03  0.7818608E-02  0.1098593E+00
         21   -1    0    0  501  502  0.00000000000E+00  0.00000000000E+00  0.29565099193E+03  0.29565099193E+03  0.00000000000E+00 0. -1.
         21   -1    0    0  502  503 -0.00000000000E+00 -0.00000000000E+00 -0.25681789936E+03  0.25681789936E+03  0.00000000000E+00 0.  1.
         -6    2    1    2    0  503 -0.21407823328E+03 -0.15565107866E+02 -0.83712184500E+01  0.27548137442E+03  0.17247651378E+03 0.  0.
        -24    2    3    3    0    0 -0.12670587225E+03  0.34410611080E+02  0.47439648615E+02  0.16029263869E+03  0.78770181795E+02 0.  0.
          6    2    1    2  501    0  0.21407823328E+03  0.15565107866E+02  0.47204311012E+02  0.27698751687E+03  0.16858847818E+03 0.  0.
         24    2    5    5    0    0  0.70204415071E+02 -0.81231622059E+01  0.74211600165E+02  0.12862211196E+03  0.77727989982E+02 0.  0.
          5    1    5    5  501    0  0.14387381821E+03  0.23688270072E+02 -0.27007289153E+02  0.14836540491E+03  0.47000000000E+01 0. -1.
        -11    1    6    6    0    0  0.74347669417E+00 -0.17577875934E+02 -0.90457160359E+01  0.19782807145E+02  0.00000000000E+00 0.  1.
         12    1    6    6    0    0  0.69460938377E+02  0.94547137280E+01  0.83257316201E+02  0.10883930482E+03  0.00000000000E+00 0. -1.
         -5    1    3    3    0  503 -0.87372361032E+02 -0.49975718946E+02 -0.55810867065E+02  0.11518873573E+03  0.47000000000E+01 0.  1.
         13    1    4    4    0    0 -0.16971381509E+02  0.35674840081E+02  0.29011959244E+02  0.49014444650E+02  0.00000000000E+00 0. -1.
        -14    1    4    4    0    0 -0.10973449074E+03 -0.12642290013E+01  0.18427689370E+02  0.11127819404E+03  0.00000000000E+00 0.  1.
</event>
<event>
12    1  0.8251070E-002  0.1739297E+03  0.7818608E-02  0.1174336E+00
         21   -1    0    0  501  502  0.00000000000E+00  0.00000000000E+00  0.82229605605E+02  0.82229605605E+02  0.00000000000E+00 0. -1.
         21   -1    0    0  502  503 -0.00000000000E+00 -0.00000000000E+00 -0.90931428960E+03  0.90931428960E+03  0.00000000000E+00 0. -1.
         -6    2    1    2    0  503  0.13017668865E+02  0.27437201668E+02 -0.79664122106E+03  0.81496996031E+03  0.16916424381E+03 0.  0.
        -24    2    3    3    0    0 -0.72415965781E+01 -0.26444014117E+02 -0.67482422679E+03  0.68015492649E+03  0.80444144404E+02 0.  0.
          6    2    1    2  501    0 -0.13017668865E+02 -0.27437201668E+02 -0.30443462940E+02  0.17657393490E+03  0.17125796423E+03 0.  0.
         24    2    5    5    0    0  0.56403353542E+02  0.17040497843E+01 -0.28000274621E+02  0.10109844181E+03  0.79073620634E+02 0.  0.
          5    1    5    5  501    0 -0.69421022407E+02 -0.29141251452E+02 -0.24431883193E+01  0.75475493091E+02  0.47000000000E+01 0. -1.
        -11    1    6    6    0    0  0.51339649558E+02 -0.32662968201E+02 -0.90225412228E+01  0.61514513398E+02  0.00000000000E+00 0.  1.
         12    1    6    6    0    0  0.50637039837E+01  0.34367017985E+02 -0.18977733398E+02  0.39583928408E+02  0.00000000000E+00 0. -1.
         -5    1    3    3    0  503  0.20259265443E+02  0.53881215785E+02 -0.12181699427E+03  0.13481503382E+03  0.47000000000E+01 0.  1.
         13    1    4    4    0    0 -0.19142296830E+01 -0.35869966415E+02 -0.12086541200E+03  0.12609031122E+03  0.00000000000E+00 0. -1.
        -14    1    4    4    0    0 -0.53273668951E+01  0.94259522988E+01 -0.55395881479E+03  0.55406461527E+03  0.00000000000E+00 0.  1.
</event>
<event>
12    1  0.8251070E-002  0.2291622E+03  0.7818608E-02  0.1127490E+00
         21   -1    0    0  501  502  0.00000000000E+00  0.00000000000E+00  0.15464656817E+03  0.15464656817E+03  0.00000000000E+00 0.  1.
         21   -1    0    0  502  503 -0.00000000000E+00 -0.00000000000E+00 -0.37880019356E+03  0.37880019356E+03  0.00000000000E+00 0.  1.
         -6    2    1    2    0  503 -0.71531943578E+02 -0.13296609782E+03 -0.20055389026E+03  0.30452777235E+03  0.17239054241E+03 0.  0.
        -24    2    3    3    0    0 -0.56502433960E+02 -0.35234052103E+01 -0.92143723679E+02  0.13495138529E+03  0.80724662597E+02 0.  0.
          6    2    1    2  501    0  0.71531943578E+02  0.13296609782E+03 -0.23599735130E+02  0.22891898937E+03  0.17044105748E+03 0.  0.
         24    2    5    5    0    0 -0.12187265099E+02  0.17764881312E+02 -0.21367263915E+02  0.86415304806E+02  0.80913067541E+02 0.  0.
          5    1    5    5  501    0  0.83719208677E+02  0.11520121651E+03 -0.22324712147E+01  0.14250368457E+03  0.47000000000E+01 0. -1.
        -11    1    6    6    0    0  0.23540358056E+02  0.18816259447E+01  0.18930850673E+02  0.30266583567E+02  0.00000000000E+00 0.  1.
         12    1    6    6    0    0 -0.35727623155E+02  0.15883255367E+02 -0.40298114588E+02  0.56148721239E+02  0.00000000000E+00 0. -1.
         -5    1    3    3    0  503 -0.15029509618E+02 -0.12944269261E+03 -0.10841016658E+03  0.16957638706E+03  0.47000000000E+01 0.  1.
         13    1    4    4    0    0 -0.67799841253E+00  0.22894727118E+02  0.13008583850E+01  0.22941674834E+02  0.00000000000E+00 0. -1.
        -14    1    4    4    0    0 -0.55824435548E+02 -0.26418132328E+02 -0.93444582064E+02  0.11200971046E+03  0.00000000000E+00 0.  1.
</event>
<event>
12    1  0.8251070E-002  0.2391557E+03  0.7818608E-02  0.1120553E+00
         21   -1    0    0  503  502  0.00000000000E+00  0.00000000000E+00  0.49601602198E+03  0.49601602198E+03  0.00000000000E+00 0.  1.
         21   -1    0    0  501  503 -0.00000000000E+00 -0.00000000000E+00 -0.20717573113E+03  0.20717573113E+03  0.00000000000E+00 0.  1.
          6    2    1    2  501    0 -0.16230243834E+03 -0.30095585317E+02 -0.90618984952E+02  0.25465550212E+03  0.17143453148E+03 0.  0.
         24    2    3    3    0    0 -0.11007286065E+03 -0.86010954795E+02 -0.39299955854E+02  0.16240481066E+03  0.72917192735E+02 0.  0.
         -6    2    1    2    0  502  0.16230243834E+03  0.30095585317E+02  0.37945927580E+03  0.44853625100E+03  0.17305375096E+03 0.  0.
        -24    2    5    5    0    0  0.78164211055E+02 -0.51421001730E+01  0.85786299924E+02  0.14098651107E+03  0.79886306489E+02 0.  0.
          5    1    3    3  501    0 -0.52229577682E+02  0.55915369478E+02 -0.51319029098E+02  0.92250691467E+02  0.47000000000E+01 0. -1.
        -11    1    4    4    0    0 -0.12539314188E+02 -0.33459483930E+02 -0.37219474785E+02  0.51595162259E+02  0.00000000000E+00 0.  1.
         12    1    4    4    0    0 -0.97533546466E+02 -0.52551470865E+02 -0.20804810690E+01  0.11080964840E+03  0.00000000000E+00 0. -1.
         -5    1    5    5    0  502  0.84138227282E+02  0.35237685490E+02  0.29367297588E+03  0.30754973993E+03  0.47000000000E+01 0.  1.
         11    1    6    6    0    0 -0.10254407935E+02 -0.14522860590E+02  0.33266360418E+02  0.37718922271E+02  0.00000000000E+00 0. -1.
        -12    1    6    6    0    0  0.88418618990E+02  0.93807604174E+01  0.52519939506E+02  0.10326758880E+03  0.00000000000E+00 0.  1.
</event>
<event>
12    1  0.8251070E-002  0.1958833E+03  0.7818608E-02  0.1153598E+00
         21   -1    0    0  501  502  0.00000000000E+00  0.00000000000E+00  0.12666409364E+04  0.12666409364E+04  0.00000000000E+00 0. -1.
         21   -1    0    0  502  503 -0.00000000000E+00 -0.00000000000E+00 -0.33568257611E+02  0.33568257611E+02  0.00000000000E+00 0. -1.
         -6    2    1    2    0  503  0.78879681406E+02  0.50029094731E+02  0.40835829829E+03  0.45290924468E+03  0.17217830780E+03 0.  0.
        -24    2    3    3    0    0  0.84972804817E+02 -0.16535107930E+02  0.32726421236E+03  0.34771295197E+03  0.79426978529E+02 0.  0.
          6    2    1    2  501    0 -0.78879681406E+02 -0.50029094731E+02  0.82471438045E+03  0.84729994928E+03  0.17040680818E+03 0.  0.
         24    2    5    5    0    0 -0.41921474158E+02 -0.95015482688E+02  0.65361105523E+03  0.66650138158E+03  0.78938762171E+02 0.  0.
          5    1    5    5  501    0 -0.36958207248E+02  0.44986387958E+02  0.17110332521E+03  0.18079856770E+03  0.47000000000E+01 0. -1.
        -11    1    6    6    0    0  0.48634558583E+01 -0.80252186866E+02  0.44449597641E+03  0.45170868903E+03  0.00000000000E+00 0.  1.
         12    1    6    6    0    0 -0.46784930016E+02 -0.14763295822E+02  0.20911507883E+03  0.21479269255E+03  0.00000000000E+00 0. -1.
         -5    1    3    3    0  503 -0.60931234106E+01  0.66564202660E+02  0.81094085930E+02  0.10519629272E+03  0.47000000000E+01 0.  1.
         13    1    4    4    0    0  0.79847712488E+02  0.15007491293E+02  0.27199820946E+03  0.28387304897E+03  0.00000000000E+00 0. -1.
        -14    1    4    4    0    0  0.51250923291E+01 -0.31542599222E+02  0.55266002906E+02  0.63839902994E+02  0.00000000000E+00 0.  1.
</event>
<event>
12    1  0.8251070E-002  0.1780798E+03  0.7818608E-02  0.1169840E+00
         21   -1    0    0  501  502  0.00000000000E+00  0.00000000000E+00  0.13837164673E+03  0.13837164673E+03  0.00000000000E+00 0. -1.
         21   -1    0    0  502  503 -0.00000000000E+00 -0.00000000000E+00 -0.40304840181E+03  0.40304840181E+03  0.00000000000E+00 0. -1.
         -6    2    1    2    0  503 -0.41049296593E+02  0.15936730557E+02 -0.31043902389E+03  0.35755430831E+03  0.17185363454E+03 0.  0.
        -24    2    3    3    0    0 -0.72083561053E+00 -0.55218457925E+02 -0.19615336379E+03  0.21693870563E+03  0.74408750647E+02 0.  0.
          6    2    1    2  501    0  0.41049296593E+02 -0.15936730557E+02  0.45762268810E+02  0.18386574024E+03  0.17254970604E+03 0.  0.
         24    2    5    5    0    0  0.76141712049E+02 -0.15920537354E+02 -0.14208279585E+02  0.11422355073E+03  0.82426455148E+02 0.  0.
          5    1    5    5  501    0 -0.35092415456E+02 -0.16193203102E-01  0.59970548395E+02  0.69642189509E+02  0.47000000000E+01 0. -1.
        -13    1    6    6    0    0  0.74681755731E+02  0.19936477745E+02 -0.12454951426E+02  0.78294020199E+02  0.00000000000E+00 0.  1.
         14    1    6    6    0    0  0.14599563182E+01 -0.35857015099E+02 -0.17533281592E+01  0.35929530527E+02  0.00000000000E+00 0. -1.
         -5    1    3    3    0  503 -0.40328460982E+02  0.71155188482E+02 -0.11428566010E+03  0.14061560268E+03  0.47000000000E+01 0.  1.
         13    1    4    4    0    0 -0.60366077371E+01  0.14197678175E+02 -0.10502145893E+02  0.18663058883E+02  0.00000000000E+00 0. -1.
        -14    1    4    4    0    0  0.53157721266E+01 -0.69416136100E+02 -0.18565121790E+03  0.19827564675E+03  0.00000000000E+00 0.  1.
</event>
<event>
12    1  0.8251070E-002  0.1802067E+03  0.7818608E-02  0.1168551E+00
         21   -1    0    0  501  502  0.00000000000E+00  0.00000000000E+00  0.74442840743E+02  0.74442840743E+02  0.00000000000E+00 0.  1.
         21   -1    0    0  502  503 -0.00000000000E+00 -0.00000000000E+00 -0.63454773551E+03  0.63454773551E+03  0.00000000000E+00 0.  1.
         -6    2    1    2    0  503 -0.42281856545E+02  0.33385398625E+02 -0.48078569489E+03  0.51209978000E+03  0.16789568200E+03 0.  0.
        -24    2    3    3    0    0 -0.27069473928E+02  0.79609975790E+02 -0.38670971913E+03  0.40607852113E+03  0.91021172182E+02 0.  0.
          6    2    1    2  501    0  0.42281856545E+02 -0.33385398625E+02 -0.79319199881E+02  0.19689079625E+03  0.17196543241E+03 0.  0.
         24    2    5    5    0    0  0.48013651927E+02 -0.50584139479E+02  0.98553226386E+01  0.10577089924E+03  0.78906842563E+02 0.  0.
          5    1    5    5  501    0 -0.57317953818E+01  0.17198740854E+02 -0.89174522520E+02  0.91119897014E+02  0.47000000000E+01 0. -1.
        -13    1    6    6    0    0 -0.63013186775E+01 -0.30027363015E+02 -0.23636820010E+02  0.38730458387E+02  0.00000000000E+00 0.  1.
         14    1    6    6    0    0  0.54314970604E+02 -0.20556776464E+02  0.33492142649E+02  0.67040440852E+02  0.00000000000E+00 0. -1.
         -5    1    3    3    0  503 -0.15212382617E+02 -0.46224577166E+02 -0.94075975756E+02  0.10602125887E+03  0.47000000000E+01 0.  1.
         11    1    4    4    0    0 -0.24274124484E+02 -0.15400561756E+01 -0.23209475386E+02  0.33619706129E+02  0.00000000000E+00 0. -1.
        -12    1    4    4    0    0 -0.27953494441E+01  0.81150031966E+02 -0.36350024375E+03  0.37245881500E+03  0.00000000000E+00 0.  1.
</event>
<event>
12    1  0.8251070E-002  0.3044215E+03  0.7818608E-02  0.1083166E+00
         21   -1    0    0  501  502  0.00000000000E+00  0.00000000000E+00  0.39895796312E+03  0.39895796312E+03  0.00000000000E+00 0.  1.
         21   -1    0    0  502  503 -0.00000000000E+00 -0.00000000000E+00 -0.37356871905E+03  0.37356871905E+03  0.00000000000E+00 0. -1.
         -6    2    1    2    0  503  0.46994351526E+02 -0.24537853748E+03 -0.22543740988E+03  0.37880668527E+03  0.17393499734E+03 0.  0.
        -24    2    3    3    0    0  0.56004272023E+02 -0.24068185109E+03 -0.24436995011E+03  0.35681194476E+03  0.80832292277E+02 0.  0.
          6    2    1    2  501    0 -0.46994351526E+02  0.24537853748E+03  0.25082665394E+03  0.39371999690E+03  0.17228560560E+03 0.  0.
         24    2    5    5    0    0 -0.77688838551E+02  0.16239190410E+03  0.10411194489E+03  0.22232504742E+03  0.78628515760E+02 0.  0.
          5    1    5    5  501    0  0.30694487024E+02  0.82986633388E+02  0.14671470905E+03  0.17139494948E+03  0.47000000000E+01 0. -1.
        -13    1    6    6    0    0 -0.66551440463E+02  0.15829559346E+03  0.11463465988E+03  0.20646475336E+03  0.00000000000E+00 0.  1.
         14    1    6    6    0    0 -0.11137398088E+02  0.40963106397E+01 -0.10522714985E+02  0.15860294060E+02  0.00000000000E+00 0. -1.
         -5    1    3    3    0  503 -0.90099204972E+01 -0.46966863956E+01  0.18932540235E+02  0.21994740512E+02  0.47000000000E+01 0.  1.
         13    1    4    4    0    0  0.74771272251E+01 -0.16416846172E+03 -0.18972834967E+03  0.25100605157E+03  0.00000000000E+00 0. -1.
        -14    1    4    4    0    0  0.48527144798E+02 -0.76513389367E+02 -0.54641600449E+02  0.10580589319E+03  0.00000000000E+00 0.  1.
</event>
<event>
12    1  0.8251070E-002  0.1727105E+03  0.7818608E-02  0.1175308E+00
         21   -1    0    0  501  502  0.00000000000E+00  0.00000000000E+00  0.40652876585E+03  0.40652876585E+03  0.00000000000E+00 0. -1.
         21   -1    0    0  502  503 -0.00000000000E+00 -0.00000000000E+00 -0.88399976960E+02  0.88399976960E+02  0.00000000000E+00 0. -1.
         -6    2    1    2    0  503 -0.80382272831E+01  0.25179533371E+02  0.26214211582E+03  0.31337045963E+03  0.16965828622E+03 0.  0.
        -24    2    3    3    0    0 -0.35197420211E+02  0.56990182588E+02  0.24932650080E+03  0.26937194656E+03  0.76881742244E+02 0.  0.
          6    2    1    2  501    0  0.80382272831E+01 -0.25179533371E+02  0.55986673075E+02  0.18155828318E+03  0.17067595212E+03 0.  0.
         24    2    5    5    0    0 -0.30895212694E+02 -0.57747105951E+02  0.64629687052E+02  0.12985478985E+03  0.91629840038E+02 0.  0.
          5    1    5    5  501    0  0.38933439977E+02  0.32567572581E+02 -0.86430139766E+01  0.51703493333E+02  0.47000000000E+01 0. -1.
        -13    1    6    6    0    0  0.17045757482E+02  0.69877556789E+01  0.42492930846E+02  0.46314530652E+02  0.00000000000E+00 0.  1.
         14    1    6    6    0    0 -0.47940970175E+02 -0.64734861630E+02  0.22136756206E+02  0.83540259199E+02  0.00000000000E+00 0. -1.
         -5    1    3    3    0  503  0.27159192927E+02 -0.31810649217E+02  0.12815615015E+02  0.43998513069E+02  0.47000000000E+01 0.  1.
         13    1    4    4    0    0 -0.53645978813E+02  0.14388339452E+02  0.13508776789E+03  0.14606033133E+03  0.00000000000E+00 0. -1.
        -14    1    4    4    0    0  0.18448558602E+02  0.42601843136E+02  0.11423873291E+03  0.12331161523E+03  0.00000000000E+00 0.  1.
</event>
<event>
12    1  0.8251070E-002  0.2100476E+03  0.7818608E-02  0.1141655E+00
         21   -1    0    0  501  502  0.00000000000E+00  0.00000000000E+00  0.57023657503E+02  0.57023657503E+02  0.00000000000E+00 0. -1.
         21   -1    0    0  502  503 -0.00000000000E+00 -0.00000000000E+00 -0.97145845909E+03  0.97145845909E+03  0.00000000000E+00 0. -1.
         -6    2    1    2    0  503 -0.11821920458E+03 -0.18538355514E+02 -0.69005124547E+03  0.72112571523E+03  0.17184913391E+03 0.  0.
        -24    2    3    3    0    0 -0.68752742990E+02  0.60265732205E+01 -0.63286885260E+03  0.64148726596E+03  0.78864875266E+02 0.  0.
          6    2    1    2  501    0  0.11821920458E+03  0.18538355514E+02 -0.22438355612E+03  0.30735640137E+03  0.17262828925E+03 0.  0.
         24    2    5    5    0    0  0.10234128236E+03 -0.38799086497E+02 -0.20245700505E+03  0.24377531682E+03  0.80364538258E+02 0.  0.
          5    1    5    5  501    0  0.15877922225E+02  0.57337442010E+02 -0.21926551066E+02  0.63581084546E+02  0.47000000000E+01 0. -1.
        -11    1    6    6    0    0  0.10542972312E+03 -0.95151592094E+01 -0.16646068642E+03  0.19726916864E+03  0.00000000000E+00 0.  1.
         12    1    6    6    0    0 -0.30884407639E+01 -0.29283927287E+02 -0.35996318630E+02  0.46506148181E+02  0.00000000000E+00 0. -1.
         -5    1    3    3    0  503 -0.49466461593E+02 -0.24564928734E+02 -0.57182392877E+02  0.79638449266E+02  0.47000000000E+01 0.  1.
         11    1    4    4    0    0 -0.75725794664E+02 -0.48827194180E+01 -0.34142728765E+03  0.34975824462E+03  0.00000000000E+00 0. -1.
        -12    1    4    4    0    0  0.69730516739E+01  0.10909292639E+02 -0.29144156494E+03  0.29172902134E+03  0.00000000000E+00 0.  1.
</event>
<event>
12    1  0.8251070E-002  0.1876327E+03  0.7818608E-02  0.1160798E+00
         21   -1    0    0  503  502  0.00000000000E+00  0.00000000000E+00  0.44596273217E+03  0.44596273217E+03  0.00000000000E+00 0.  1.
         21   -1    0    0  501  503 -0.00000000000E+00 -0.00000000000E+00 -0.11971911335E+03  0.11971911335E+03  0.00000000000E+00 0. -1.
          6    2    1    2  501    0  0.61120997475E+02  0.43298405771E+02 -0.28555193287E+01  0.18685171963E+03  0.17115747972E+03 0.  0.
         24    2    3    3    0    0 -0.13470120043E+02  0.70742578656E+02 -0.40567945198E+01  0.10722414589E+03  0.79338536104E+02 0.  0.
         -6    2    1    2    0  502 -0.61120997475E+02 -0.43298405771E+02  0.32909913815E+03  0.37883012589E+03  0.17203340746E+03 0.  0.
        -24    2    5    5    0    0 -0.20013865416E+02  0.12415056506E+02  0.28477519003E+03  0.29648640384E+03  0.79073322728E+02 0.  0.
          5    1    3    3  501    0  0.74591117519E+02 -0.27444172884E+02  0.12012751912E+01  0.79627573742E+02  0.47000000000E+01 0. -1.
        -13    1    4    4    0    0 -0.39097237151E+02  0.47554659296E+02  0.20433885273E+02  0.64865886574E+02  0.00000000000E+00 0.  1.
         14    1    4    4    0    0  0.25627117108E+02  0.23187919360E+02 -0.24490679793E+02  0.42358259316E+02  0.00000000000E+00 0. -1.
         -5    1    5    5    0  502 -0.41107132059E+02 -0.55713462278E+02  0.44323948114E+02  0.82343722053E+02  0.47000000000E+01 0.  1.
         11    1    6    6    0    0 -0.35479226067E+02  0.37387251576E+02  0.15200229316E+03  0.16050320617E+03  0.00000000000E+00 0. -1.
        -12    1    6    6    0    0  0.15465360650E+02 -0.24972195070E+02  0.13277289687E+03  0.13598319767E+03  0.00000000000E+00 0.  1.
</event>
<event>
12    1  0.8251070E-002  0.2683122E+03  0.7818608E-02  0.1102255E+00
         21   -1    0    0  503  502  0.00000000000E+00  0.00000000000E+00  0.11625978702E+03  0.11625978702E+03  0.00000000000E+00 0. -1.
         21   -1    0    0  501  503 -0.00000000000E+00 -0.00000000000E+00 -0.80378063561E+03  0.80378063561E+03  0.00000000000E+00 0.  1.
          6    2    1    2  501    0  0.14432437321E+03  0.14647147140E+03 -0.56422059382E+03  0.62475343983E+03  0.17230370118E+03 0.  0.
         24    2    3    3    0    0  0.68606297428E+02  0.17426799591E+02 -0.33050945863E+03  0.34721292200E+03  0.79434209047E+02 0.  0.
         -6    2    1    2    0  502 -0.14432437321E+03 -0.14647147140E+03 -0.12330025477E+03  0.29528698280E+03  0.17236018319E+03 0.  0.
        -24    2    5    5    0    0 -0.17193341066E+03 -0.14560120098E+03 -0.11934967514E+03  0.26699010313E+03  0.79237382480E+02 0.  0.
          5    1    3    3  501    0  0.75718075778E+02  0.12904467181E+03 -0.23371113519E+03  0.27754051783E+03  0.47000000000E+01 0. -1.
        -13    1    4    4    0    0  0.75039711787E+02 -0.91538469972E+01 -0.27685968076E+03  0.28699483286E+03  0.00000000000E+00 0.  1.
         14    1    4    4    0    0 -0.64334143590E+01  0.26580646588E+02 -0.53649777874E+02  0.60218089137E+02  0.00000000000E+00 0. -1.
         -5    1    5    5    0  502  0.27609037459E+02 -0.87027042668E+00 -0.39505796291E+01  0.28296879676E+02  0.47000000000E+01 0.  1.
         13    1    6    6    0    0 -0.17406073434E+03 -0.13019953548E+03 -0.93069320133E+02  0.23645497801E+03  0.00000000000E+00 0. -1.
        -14    1    6    6    0    0  0.21273236755E+01 -0.15401665498E+02 -0.26280355011E+02  0.30535125113E+02  0.00000000000E+00 0.  1.
</event>
<event>
12    1  0.8251070E-002  0.1841873E+03  0.7818608E-02  0.1163887E+00
         21   -1    0    0  503  502  0.00000000000E+00  0.00000000000E+00  0.18821972016E+03  0.18821972016E+03  0.00000000000E+00 0. -1.
         21   -1    0    0  501  503 -0.00000000000E+00 -0.00000000000E+00 -0.23688100766E+03  0.23688100766E+03  0.00000000000E+00 0. -1.
          6    2    1    2  501    0 -0.70139842763E+01  0.64531648829E+02 -0.12853906633E+03  0.22433864875E+03  0.17202327772E+03 0.  0.
         24    2    3    3    0    0  0.42305739287E+02 -0.74267562385E+00 -0.35195331456E+02  0.10012787867E+03  0.83645403858E+02 0.  0.
         -6    2    1    2    0  502  0.70139842763E+01 -0.64531648829E+02  0.79877778834E+02  0.20076207906E+03  0.17237001816E+03 0.  0.
        -24    2    5    5    0    0 -0.52083270302E+01 -0.65197682180E+02  0.12024248299E+03  0.15832120447E+03  0.79558058284E+02 0.  0.
          5    1    3    3  501    0 -0.49319723564E+02  0.65274324453E+02 -0.93343734875E+02  0.12421077009E+03  0.47000000000E+01 0. -1.
        -13    1    4    4    0    0 -0.79343094971E+00  0.17525441553E+02  0.20756160488E+02  0.27176990866E+02  0.00000000000E+00 0.  1.
         14    1    4    4    0    0  0.43099170237E+02 -0.18268117177E+02 -0.55951491944E+02  0.72950887802E+02  0.00000000000E+00 0. -1.
         -5    1    5    5    0  502  0.12222311307E+02  0.66603335088E+00 -0.40364704156E+02  0.42440874587E+02  0.47000000000E+01 0.  1.
         13    1    6    6    0    0  0.34731636270E+02 -0.48312387919E+02  0.73432461435E+02  0.94512960893E+02  0.00000000000E+00 0. -1.
        -14    1    6    6    0    0 -0.39939963300E+02 -0.16885294261E+02  0.46810021555E+02  0.63808243579E+02  0.00000000000E+00 0.  1.
</event>
<event>
12    1  0.8251070E-002  0.1856299E+03  0.7818608E-02  0.1162852E+00
         21   -1    0    0  501  502  0.00000000000E+00  0.00000000000E+00  0.11148807972E+04  0.11148807972E+04  0.00000000000E+00 0. -1.
         21   -1    0    0  502  503 -0.00000000000E+00 -0.00000000000E+00 -0.32811474242E+02  0.32811474242E+02  0.00000000000E+00 0. -1.
         -6    2    1    2    0  503  0.67341202111E+02  0.11153723456E+01  0.68668018001E+03  0.71089593726E+03  0.17119369861E+03 0.  0.
        -24    2    3    3    0    0  0.94152751447E+02 -0.15974671712E+02  0.65123744282E+03  0.66305028539E+03  0.80034638034E+02 0.  0.
          6    2    1    2  501    0 -0.67341202111E+02 -0.11153723456E+01  0.39538914300E+03  0.43679633423E+03  0.17298087072E+03 0.  0.
         24    2    5    5    0    0 -0.10514041184E+03  0.38386999320E+01  0.21524179128E+03  0.25259947915E+03  0.80051398083E+02 0.  0.
          5    1    5    5  501    0  0.37799209730E+02 -0.49540722776E+01  0.18014735172E+03  0.18419685508E+03  0.47000000000E+01 0. -1.
        -13    1    6    6    0    0  0.15348066260E+00  0.23443455820E+02  0.55794973059E+02  0.60520229641E+02  0.00000000000E+00 0.  1.
         14    1    6    6    0    0 -0.10529389250E+03 -0.19604755888E+02  0.15944681822E+03  0.19207924951E+03  0.00000000000E+00 0. -1.
         -5    1    3    3    0  503 -0.26811549336E+02  0.17090044057E+02  0.35442737189E+02  0.47845651873E+02  0.47000000000E+01 0.  1.
         11    1    4    4    0    0  0.93184425168E+02  0.13033695000E+02  0.45010692376E+03  0.45983633732E+03  0.00000000000E+00 0. -1.
        -12    1    4    4    0    0  0.96832627865E+00 -0.29008366711E+02  0.20113051905E+03  0.20321394807E+03  0.00000000000E+00 0.  1.
</event>
<event>
12    1  0.8251070E-002  0.1931459E+03  0.7818608E-02  0.1155694E+00
         21   -1    0    0  501  502  0.00000000000E+00  0.00000000000E+00  0.10196772154E+03  0.10196772154E+03  0.00000000000E+00 0.  1.
         21   -1    0    0  502  503 -0.00000000000E+00 -0.00000000000E+00 -0.91556590972E+03  0.91556590972E+03  0.00000000000E+00 0.  1.
         -6    2    1    2    0  503  0.78192852983E+02  0.31726068442E+02 -0.80106816446E+03  0.82398169742E+03  0.17353664711E+03 0.  0.
        -24    2    3    3    0    0  0.45911289436E+02 -0.41570339170E+02 -0.58569951080E+03  0.59415522006E+03  0.78361782642E+02 0.  0.
          6    2    1    2  501    0 -0.78192852983E+02 -0.31726068442E+02 -0.12530023718E+02  0.19355193384E+03  0.17373739932E+03 0.  0.
         24    2    5    5    0    0 -0.10187565521E+02 -0.49119537068E+02  0.46542327120E+02  0.10168853249E+03  0.75218707868E+02 0.  0.
          5    1    5    5  501    0 -0.68005287462E+02  0.17393468626E+02 -0.59072350838E+02  0.91863401348E+02  0.47000000000E+01 0. -1.
        -11    1    6    6    0    0 -0.24788596443E+02  0.11028309218E+02  0.62726270866E+01  0.27846794580E+02  0.00000000000E+00 0.  1.
         12    1    6    6    0    0  0.14601030921E+02 -0.60147846286E+02  0.40269700034E+02  0.73841737911E+02  0.00000000000E+00 0. -1.
         -5    1    3    3    0  503  0.32281563547E+02  0.73296407612E+02 -0.21536865366E+03  0.22982647736E+03  0.47000000000E+01 0.  1.
         11    1    4    4    0    0  0.45903344018E+02 -0.60771534901E+02 -0.37969411701E+03  0.38725691594E+03  0.00000000000E+00 0. -1.
        -12    1    4    4    0    0  0.79454187794E-02  0.19201195731E+02 -0.20600539379E+03  0.20689830413E+03  0.00000000000E+00 0.  1.
</event>
<event>
12    1  0.8251070E-002  0.1892871E+03  0.7818608E-02  0.1160279E+00
         21   -1    0    0  503  502  0.00000000000E+00  0.00000000000E+00  0.16247336812E+03  0.16247336812E+03  0.00000000000E+00 0.  1.
         21   -1    0    0  501  503 -0.00000000000E+00 -0.00000000000E+00 -0.87163786048E+03  0.87163786048E+03  0.00000000000E+00 0.  1.
          6    2    1    2  501    0 -0.36736359858E+02 -0.69888790088E+02 -0.80467266489E+03  0.82663638816E+03  0.17203376851E+03 0.  0.
         24    2    3    3    0    0 -0.39985447727E+02 -0.28401876906E+02 -0.75826430457E+03  0.76412601747E+03  0.80736065948E+02 0.  0.
         -6    2    1    2    0  502  0.36736359858E+02  0.69888790088E+02  0.95508172530E+02  0.20747484043E+03  0.16640311078E+03 0.  0.
        -24    2    5    5    0    0 -0.26199289171E+02  0.48391376223E+02  0.10208154696E+03  0.14047981097E+03  0.79283081510E+02 0.  0.
          5    1    3    3  501    0  0.32490878692E+01 -0.41486913182E+02 -0.46408360317E+02  0.62510370697E+02  0.47000000000E+01 0. -1.
        -13    1    4    4    0    0 -0.45720944592E+02  0.78894140829E+01 -0.23277738795E+03  0.23735618798E+03  0.00000000000E+00 0.  1.
         14    1    4    4    0    0  0.57354968645E+01 -0.36291290989E+02 -0.52548691662E+03  0.52676982949E+03  0.00000000000E+00 0. -1.
         -5    1    5    5    0  502  0.62935649029E+02  0.21497413865E+02 -0.65733744334E+01  0.66995029465E+02  0.47000000000E+01 0.  1.
         13    1    6    6    0    0 -0.39477119658E+02 -0.62753853932E+01  0.47721874222E+02  0.62251110171E+02  0.00000000000E+00 0. -1.
        -14    1    6    6    0    0  0.13277830487E+02  0.54666761616E+02  0.54359672742E+02  0.78228700798E+02  0.00000000000E+00 0.  1.
</event>
<event>
12    1  0.8251070E-002  0.2449931E+03  0.7818608E-02  0.1117205E+00
         21   -1    0    0  503  502  0.00000000000E+00  0.00000000000E+00  0.23750952823E+03  0.23750952823E+03  0.00000000000E+00 0.  1.
         21   -1    0    0  501  503 -0.00000000000E+00 -0.00000000000E+00 -0.25517108125E+03  0.25517108125E+03  0.00000000000E+00 0.  1.
          6    2    1    2  501    0 -0.15266969566E+03  0.84516644727E+02  0.31500855141E+02  0.24280353768E+03  0.16586185464E+03 0.  0.
         24    2    3    3    0    0 -0.62186048516E+02 -0.83600272919E+01  0.46266542055E+02  0.11221455607E+03  0.80712570236E+02 0.  0.
         -6    2    1    2    0  502  0.15266969566E+03 -0.84516644727E+02 -0.49162408161E+02  0.24987707181E+03  0.17196077875E+03 0.  0.
        -24    2    5    5    0    0  0.39310171145E+02  0.10790628257E+02 -0.51738732139E+02  0.10167927990E+03  0.77460004798E+02 0.  0.
          5    1    3    3  501    0 -0.90483647147E+02  0.92876672019E+02 -0.14765686915E+02  0.13058898160E+03  0.47000000000E+01 0. -1.
        -13    1    4    4    0    0 -0.61222608099E+02  0.23575091566E+02  0.14557098142E+02  0.67200459754E+02  0.00000000000E+00 0.  1.
         14    1    4    4    0    0 -0.96344041653E+00 -0.31935118858E+02  0.31709443913E+02  0.45014096317E+02  0.00000000000E+00 0. -1.
         -5    1    5    5    0  502  0.11335952452E+03 -0.95307272984E+02  0.25763239778E+01  0.14819779191E+03  0.47000000000E+01 0.  1.
         11    1    6    6    0    0 -0.15009153422E+02  0.11903128336E+02 -0.42434033025E+02  0.46557559100E+02  0.00000000000E+00 0. -1.
        -12    1    6    6    0    0  0.54319324568E+02 -0.11125000793E+01 -0.93046991144E+01  0.55121720796E+02  0.00000000000E+00 0.  1.
</event>
<event>
12    1  0.8251070E-002  0.2223543E+03  0.7818608E-02  0.1132454E+00
         21   -1    0    0  503  502  0.00000000000E+00  0.00000000000E+00  0.11061926028E+03  0.11061926028E+03  0.00000000000E+00 0.  1.
         21   -1    0    0  501  503 -0.00000000000E+00 -0.00000000000E+00 -0.47413421651E+03  0.47413421651E+03  0.00000000000E+00 0.  1.
          6    2    1    2  501    0 -0.10718063741E+03 -0.91568961925E+02 -0.25537842903E+03  0.33749870654E+03  0.16974884705E+03 0.  0.
         24    2    3    3    0    0  0.74485087949E+01 -0.72049190738E+02 -0.12143379916E+03  0.16006106538E+03  0.75012071720E+02 0.  0.
         -6    2    1    2    0  502  0.10718063741E+03  0.91568961925E+02 -0.10813652720E+03  0.24725477025E+03  0.17195595097E+03 0.  0.
        -24    2    5    5    0    0  0.80719449791E+02  0.12351204750E+03 -0.48925491199E+02  0.17480760363E+03  0.79957108159E+02 0.  0.
          5    1    3    3  501    0 -0.11462914621E+03 -0.19519771188E+02 -0.13394462987E+03  0.17743764115E+03  0.47000000000E+01 0. -1.
        -13    1    4    4    0    0 -0.21132459291E+01 -0.78210393405E+02 -0.12557644940E+03  0.14795531788E+03  0.00000000000E+00 0.  1.
         14    1    4    4    0    0  0.95617547240E+01  0.61612026675E+01  0.41426502356E+01  0.12105747506E+02  0.00000000000E+00 0. -1.
         -5    1    5    5    0  502  0.26461187621E+02 -0.31943085578E+02 -0.59211036005E+02  0.72447166620E+02  0.47000000000E+01 0.  1.
         13    1    6    6    0    0 -0.10325104537E+02  0.18682701040E+02 -0.26715647278E+02  0.34196153458E+02  0.00000000000E+00 0. -1.
        -14    1    6    6    0    0  0.91044554328E+02  0.10482934646E+03 -0.22209843921E+02  0.14061145017E+03  0.00000000000E+00 0.  1.
</event>
<event>
12    1  0.8251070E-002  0.1733989E+03  0.7818608E-02  0.1174469E+00
         21   -1    0    0  503  502  0.00000000000E+00  0.00000000000E+00  0.13828923841E+04  0.13828923841E+04  0.00000000000E+00 0.  1.
         21   -1    0    0  501  503 -0.00000000000E+00 -0.00000000000E+00 -0.60371071500E+02  0.60371071500E+02  0.00000000000E+00 0.  1.
          6    2    1    2  501    0 -0.53452546622E+01 -0.29096088928E+01  0.83255019541E+02  0.19192492106E+03  0.17281996260E+03 0.  0.
         24    2    3    3    0    0 -0.64485469613E+02  0.97116731777E+01  0.24738366120E+02  0.10764473054E+03  0.81992126867E+02 0.  0.
         -6    2    1    2    0  502  0.53452546622E+01  0.29096088928E+01  0.12392662930E+04  0.12513385345E+04  0.17329208103E+03 0.  0.
        -24    2    5    5    0    0  0.14876074570E+02 -0.62219251219E+02  0.92086041447E+03  0.92616627486E+03  0.75548215942E+02 0.  0.
          5    1    3    3  501    0  0.59140214951E+02 -0.12621282071E+02  0.58516653421E+02  0.84280190514E+02  0.47000000000E+01 0. -1.
        -11    1    4    4    0    0 -0.16001184159E+02 -0.94094712547E+01 -0.27937903691E+02  0.33542547703E+02  0.00000000000E+00 0.  1.
         12    1    4    4    0    0 -0.48484285454E+02  0.19121144432E+02  0.52676269811E+02  0.74102182840E+02  0.00000000000E+00 0. -1.
         -5    1    5    5    0  502 -0.95308199079E+01  0.65128860112E+02  0.31840587855E+03  0.32517225965E+03  0.47000000000E+01 0.  1.
         11    1    6    6    0    0  0.40835223674E+01  0.78905868268E+01  0.14302937217E+02  0.16837770886E+02  0.00000000000E+00 0. -1.
        -12    1    6    6    0    0  0.10792552203E+02 -0.70109838046E+02  0.90655747725E+03  0.90932850397E+03  0.00000000000E+00 0.  1.
</event>
<event>
12    1  0.8251070E-002  0.1839820E+03  0.7818608E-02  0.1164603E+00
         21   -1    0    0  503  502  0.00000000000E+00  0.00000000000E+00  0.49782342837E+03  0.49782342837E+03  0.00000000000E+00 0. -1.
         21   -1    0    0  501  503 -0.00000000000E+00 -0.00000000000E+00 -0.15260963462E+03  0.15260963462E+03  0.00000000000E+00 0.  1.
          6    2    1    2  501    0  0.56976623881E+02  0.58904268211E+01 -0.70355745952E+02  0.19697537447E+03  0.17483802322E+03 0.  0.
         24    2    3    3    0    0  0.71717928495E+02  0.17321954918E+02 -0.10855446322E+03  0.15420601749E+03  0.80943887692E+02 0.  0.
         -6    2    1    2    0  502 -0.56976623881E+02 -0.58904268211E+01  0.41556953971E+03  0.45345768851E+03  0.17217665388E+03 0.  0.
        -24    2    5    5    0    0 -0.72193356200E+02 -0.10309136626E+02  0.13169798889E+03  0.16910540472E+03  0.77033230806E+02 0.  0.
          5    1    3    3  501    0 -0.14741304614E+02 -0.11431528096E+02  0.38198717267E+02  0.42769356988E+02  0.47000000000E+01 0. -1.
        -11    1    4    4    0    0 -0.14461279527E+02  0.57701350847E+01 -0.58884318435E+00  0.15581071874E+02  0.00000000000E+00 0.  1.
         12    1    4    4    0    0  0.86179208022E+02  0.11551819833E+02 -0.10796562003E+03  0.13862494561E+03  0.00000000000E+00 0. -1.
         -5    1    5    5    0  502  0.15216732319E+02  0.44187098044E+01  0.28387155082E+03  0.28435228380E+03  0.47000000000E+01 0.  1.
         13    1    6    6    0    0 -0.75755150293E+02  0.15817851431E+02  0.11224455437E+03  0.13633740208E+03  0.00000000000E+00 0. -1.
        -14    1    6    6    0    0  0.35617940930E+01 -0.26126988056E+02  0.19453434518E+02  0.32768002634E+02  0.00000000000E+00 0.  1.
</event>
<event>
12    1  0.8251070E-002  0.1848742E+03  0.7818608E-02  0.1163914E+00
         21   -1    0    0  503  502  0.00000000000E+00  0.00000000000E+00  0.10390385785E+03  0.10390385785E+03  0.00000000000E+00 0.  1.
         21   -1    0    0  501  503 -0.00000000000E+00 -0.00000000000E+00 -0.39051392003E+03  0.39051392003E+03  0.00000000000E+00 0.  1.
          6    2    1    2  501    0  0.37178071045E+02  0.43649118893E+02 -0.24481146530E+03  0.30487731417E+03  0.17242409520E+03 0.  0.
         24    2    3    3    0    0  0.40591745143E+02  0.21942025478E+02 -0.43359287349E+02  0.10217575750E+03  0.80191741254E+02 0.  0.
         -6    2    1    2    0  502 -0.37178071045E+02 -0.43649118893E+02 -0.41798596888E+02  0.18954046371E+03  0.17575838567E+03 0.  0.
        -24    2    5    5    0    0 -0.44996389789E+02 -0.41218565528E+02  0.38011024611E+02  0.10917442995E+03  0.82161870266E+02 0.  0.
          5    1    3    3  501    0 -0.34136740979E+01  0.21707093415E+02 -0.20145217795E+03  0.20270155667E+03  0.47000000000E+01 0. -1.
        -13    1    4    4    0    0  0.35725316170E+02 -0.25780668584E+02 -0.15503998199E+02  0.46704550616E+02  0.00000000000E+00 0.  1.
         14    1    4    4    0    0  0.48664289731E+01  0.47722694062E+02 -0.27855289150E+02  0.55471206884E+02  0.00000000000E+00 0. -1.
         -5    1    5    5    0  502  0.78183187442E+01 -0.24305533654E+01 -0.79809621499E+02  0.80366033755E+02  0.47000000000E+01 0.  1.
         11    1    6    6    0    0 -0.25839292900E+02 -0.27174923684E+02  0.63868356487E+02  0.74062895536E+02  0.00000000000E+00 0. -1.
        -12    1    6    6    0    0 -0.19157096889E+02 -0.14043641844E+02 -0.25857331876E+02  0.35111534418E+02  0.00000000000E+00 0.  1.
</event>
<event>
12    1  0.8251070E-002  0.2363000E+03  0.7818608E-02  0.1122410E+00
         21   -1    0    0  501  502  0.00000000000E+00  0.00000000000E+00  0.32514239023E+02  0.32514239023E+02  0.00000000000E+00 0. -1.
         21   -1    0    0  502  503 -0.00000000000E+00 -0.00000000000E+00 -0.17215337827E+04  0.17215337827E+04  0.00000000000E+00 0. -1.
         -6    2    1    2    0  503  0.13581437160E+03 -0.87133479311E+02 -0.78019137731E+03  0.81519093428E+03  0.17262643875E+03 0.  0.
        -24    2    3    3    0    0  0.40686764483E+02 -0.81089401839E+02 -0.59181446527E+03  0.60401862668E+03  0.79769895176E+02 0.  0.
          6    2    1    2  501    0 -0.13581437160E+03  0.87133479311E+02 -0.90882816632E+03  0.93885708740E+03  0.17159897407E+03 0.  0.
         24    2    5    5    0    0 -0.12257187886E+03  0.63876909159E+02 -0.41753642633E+03  0.44681451256E+03  0.78755420816E+02 0.  0.
          5    1    5    5  501    0 -0.13242492743E+02  0.23256570151E+02 -0.49129173999E+03  0.49204257484E+03  0.47000000000E+01 0. -1.
        -11    1    6    6    0    0 -0.85544728992E+02  0.18002407687E+01 -0.19836896804E+03  0.21603561976E+03  0.00000000000E+00 0.  1.
         12    1    6    6    0    0 -0.37027149870E+02  0.62076668390E+02 -0.21916745830E+03  0.23077889280E+03  0.00000000000E+00 0. -1.
         -5    1    3    3    0  503  0.95127607122E+02 -0.60440774720E+01 -0.18837691204E+03  0.21117230760E+03  0.47000000000E+01 0.  1.
         13    1    4    4    0    0  0.28543448599E+02  0.79583440577E+01 -0.11161142526E+03  0.11547802366E+03  0.00000000000E+00 0. -1.
        -14    1    4    4    0    0  0.12143315884E+02 -0.89047745896E+02 -0.48020304000E+03  0.48854060302E+03  0.00000000000E+00 0.  1.
</event>
<event>
12    1  0.8251070E-002  0.1753139E+03  0.7818608E-02  0.1173039E+00
         21   -1    0    0  503  502  0.00000000000E+00  0.00000000000E+00  0.83356173554E+03  0.83356173554E+03  0.00000000000E+00 0.  1.
         21   -1    0    0  501  503 -0.00000000000E+00 -0.00000000000E+00 -0.95664966014E+02  0.95664966014E+02  0.00000000000E+00 0.  1.
          6    2    1    2  501    0 -0.28293755822E+02  0.14236805896E+02  0.41158542131E+01  0.17536225048E+03  0.17242898647E+03 0.  0.
         24    2    3    3    0    0 -0.69675942309E+02  0.46624932854E+02 -0.20486871329E+02  0.11714833263E+03  0.79217413754E+02 0.  0.
         -6    2    1    2    0  502  0.28293755822E+02 -0.14236805896E+02  0.73378091532E+03  0.75386445108E+03  0.16992338174E+03 0.  0.
        -24    2    5    5    0    0 -0.44033229455E+02 -0.23692770023E+02  0.34179893432E+03  0.35512572524E+03  0.82386264516E+02 0.  0.
          5    1    3    3  501    0  0.41382186487E+02 -0.32388126958E+02  0.24602725542E+02  0.58213917841E+02  0.47000000000E+01 0. -1.
        -13    1    4    4    0    0 -0.59322987209E+02 -0.16458357792E+01  0.84188871785E+01  0.59939997065E+02  0.00000000000E+00 0.  1.
         14    1    4    4    0    0 -0.10352955100E+02  0.48270768633E+02 -0.28905758508E+02  0.57208335569E+02  0.00000000000E+00 0. -1.
         -5    1    5    5    0  502  0.72326985277E+02  0.94559641274E+01  0.39198198100E+03  0.39873872584E+03  0.47000000000E+01 0.  1.
         13    1    6    6    0    0 -0.22203097067E+02 -0.29716809387E+02  0.49027577248E+02  0.61479830923E+02  0.00000000000E+00 0. -1.
        -14    1    6    6    0    0 -0.21830132388E+02  0.60240393639E+01  0.29277135707E+03  0.29364589432E+03  0.00000000000E+00 0.  1.
</event>
<event>
12    1  0.8251070E-002  0.2179878E+03  0.7818608E-02  0.1135436E+00
         21   -1    0    0  503  502  0.00000000000E+00  0.00000000000E+00  0.13580562356E+03  0.13580562356E+03  0.00000000000E+00 0. -1.
         21   -1    0    0  501  503 -0.00000000000E+00 -0.00000000000E+00 -0.49876098162E+03  0.49876098162E+03  0.00000000000E+00 0. -1.
          6    2    1    2  501    0 -0.12208759680E+03  0.55008443270E+02 -0.35496334576E+03  0.41643233625E+03  0.17171372605E+03 0.  0.
         24    2    3    3    0    0 -0.41094623590E+01  0.14842943116E+01 -0.18860591878E+03  0.20552819158E+03  0.81550929626E+02 0.  0.
         -6    2    1    2    0  502  0.12208759680E+03 -0.55008443270E+02 -0.79920122983E+01  0.21813426893E+03  0.17200981628E+03 0.  0.
        -24    2    5    5    0    0  0.10500516329E+03  0.22940435546E+02  0.15707362865E+02  0.13475808752E+03  0.79753827512E+02 0.  0.
          5    1    3    3  501    0 -0.11797813444E+03  0.53524148959E+02 -0.16635742698E+03  0.21090414467E+03  0.47000000000E+01 0. -1.
        -13    1    4    4    0    0 -0.37620350015E+02 -0.96839223995E+01 -0.14097189551E+03  0.14622634650E+03  0.00000000000E+00 0.  1.
         14    1    4    4    0    0  0.33510887656E+02  0.11168216711E+02 -0.47634023277E+02  0.59301845077E+02  0.00000000000E+00 0. -1.
         -5    1    5    5    0  502  0.17082433518E+02 -0.77948878816E+02 -0.23699375163E+02  0.83376181411E+02  0.47000000000E+01 0.  1.
         13    1    6    6    0    0  0.20790369757E+02 -0.28114200623E+02  0.86684106482E+01  0.36024839965E+02  0.00000000000E+00 0. -1.
        -14    1    6    6    0    0  0.84214793529E+02  0.51054636170E+02  0.70389522164E+01  0.98733247550E+02  0.00000000000E+00 0.  1.
</event>
<event>
12    1  0.8251070E-002  0.1864985E+03  0.7818608E-02  0.1163776E+00
         21   -1    0    0  503  502  0.00000000000E+00  0.00000000000E+00  0.11223244841E+03  0.11223244841E+03  0.00000000000E+00 0. -1.
         21   -1    0    0  501  503 -0.00000000000E+00 -0.00000000000E+00 -0.39997080565E+03  0.39997080565E+03  0.00000000000E+00 0. -1.
          6    2    1    2  501    0  0.68834786938E+02  0.27688630198E+02 -0.27228070351E+03  0.32506525975E+03  0.16132499328E+03 0.  0.
         24    2    3    3    0    0 -0.87082445379E+01  0.27084005796E+01 -0.11462674678E+03  0.14754401123E+03  0.92448770769E+02 0.  0.
         -6    2    1    2    0  502 -0.68834786938E+02 -0.27688630198E+02 -0.15457653722E+02  0.18713799431E+03  0.17110465137E+03 0.  0.
        -24    2    5    5    0    0 -0.50998155191E+02 -0.63658848696E+02  0.36945877360E+02  0.12095474778E+03  0.81312928292E+02 0.  0.
          5    1    3    3  501    0  0.77543031476E+02  0.24980229619E+02 -0.15765395673E+03  0.17752124852E+03  0.47000000000E+01 0. -1.
        -11    1    4    4    0    0 -0.30471708317E+01  0.19522062710E+02 -0.12529434316E+03  0.12684269238E+03  0.00000000000E+00 0.  1.
         12    1    4    4    0    0 -0.56610737062E+01 -0.16813662130E+02  0.10667596380E+02  0.20701318853E+02  0.00000000000E+00 0. -1.
         -5    1    5    5    0  502 -0.17836631747E+02  0.35970218497E+02 -0.52403531082E+02  0.66183246526E+02  0.47000000000E+01 0.  1.
         11    1    6    6    0    0 -0.56337417039E+02 -0.49590746040E+02  0.58156308023E+02  0.94948948463E+02  0.00000000000E+00 0. -1.
        -12    1    6    6    0    0  0.53392618480E+01 -0.14068102655E+02 -0.21210430663E+02  0.26005799320E+02  0.00000000000E+00 0.  1.
</event>
<event>
12    1  0.8251070E-002  0.1764021E+03  0.7818608E-02  0.1171705E+00
         21   -1    0    0  503  502  0.00000000000E+00  0.00000000000E+00  0.10305061027E+03  0.10305061027E+03  0.00000000000E+00 0.  1.
         21   -1    0    0  501  503 -0.00000000000E+00 -0.00000000000E+00 -0.34224497221E+03  0.34224497221E+03  0.00000000000E+00 0.  1.
          6    2    1    2  501    0 -0.36166679584E+02 -0.13274051273E+02 -0.19792241437E+03  0.26412967191E+03  0.17060765611E+03 0.  0.
         24    2    3    3    0    0  0.22277483405E+01 -0.69600234074E+02 -0.15265015910E+03  0.18216359318E+03  0.70939045399E+02 0.  0.
         -6    2    1    2    0  502  0.36166679584E+02  0.13274051273E+02 -0.41271947572E+02  0.18116591057E+03  0.17214378975E+03 0.  0.
        -24    2    5    5    0    0  0.92183723890E+02  0.15905244735E+02 -0.25956795301E+02  0.12284373365E+03  0.75272916211E+02 0.  0.
          5    1    3    3  501    0 -0.38394427924E+02  0.56326182801E+02 -0.45272255279E+02  0.81966078731E+02  0.47000000000E+01 0. -1.
        -13    1    4    4    0    0 -0.84004287934E+01 -0.61060201243E+02 -0.52134460727E+02  0.80727426411E+02  0.00000000000E+00 0.  1.
         14    1    4    4    0    0  0.10628177134E+02 -0.85400328309E+01 -0.10051569837E+03  0.10143616677E+03  0.00000000000E+00 0. -1.
         -5    1    5    5    0  502 -0.56017044306E+02 -0.26311934614E+01 -0.15315152270E+02  0.58322176922E+02  0.47000000000E+01 0.  1.
         13    1    6    6    0    0 -0.23436032605E+01  0.24933042090E+02 -0.37244593071E+01  0.25318385833E+02  0.00000000000E+00 0. -1.
        -14    1    6    6    0    0  0.94527327150E+02 -0.90277973550E+01 -0.22232335994E+02  0.97525347818E+02  0.00000000000E+00 0.  1.
</event>
<event>
12    1  0.8251070E-002  0.2045014E+03  0.7818608E-02  0.1146122E+00
         21   -1    0    0  501  502  0.00000000000E+00  0.00000000000E+00  0.44336561337E+02  0.44336561337E+02  0.00000000000E+00 0.  1.
         21   -1    0    0  502  503 -0.00000000000E+00 -0.00000000000E+00 -0.10553183275E+04  0.10553183275E+04  0.00000000000E+00 0.  1.
         -6    2    1    2    0  503  0.38415601133E+02  0.10394289596E+03 -0.68623204292E+03  0.71587997365E+03  0.17114273547E+03 0.  0.
        -24    2    3    3    0    0 -0.36817092484E+02  0.45950310606E+02 -0.24482708002E+03  0.26434533553E+03  0.80443942974E+02 0.  0.
          6    2    1    2  501    0 -0.38415601133E+02 -0.10394289596E+03 -0.32474972327E+03  0.38377491522E+03  0.17187471820E+03 0.  0.
         24    2    5    5    0    0  0.31502685612E+02 -0.59056740650E+02 -0.10240115061E+03  0.14636322317E+03  0.80349733245E+02 0.  0.
          5    1    5    5  501    0 -0.69918286744E+02 -0.44886155307E+02 -0.22234857266E+03  0.23741169206E+03  0.47000000000E+01 0. -1.
        -13    1    6    6    0    0  0.41637748406E+00  0.11125445366E+02  0.66787479217E+01  0.12982857105E+02  0.00000000000E+00 0.  1.
         14    1    6    6    0    0  0.31086308128E+02 -0.70182186017E+02 -0.10907989853E+03  0.13338036606E+03  0.00000000000E+00 0. -1.
         -5    1    3    3    0  503  0.75232693617E+02  0.57992585351E+02 -0.44140496290E+03  0.45153463812E+03  0.47000000000E+01 0.  1.
         11    1    4    4    0    0  0.22241013448E+02  0.31674043285E+02 -0.86672148180E+02  0.94920856335E+02  0.00000000000E+00 0. -1.
        -12    1    4    4    0    0 -0.59058105932E+02  0.14276267321E+02 -0.15815493184E+03  0.16942447920E+03  0.00000000000E+00 0.  1.
</event>
<event>
12    1  0.8251070E-002  0.1856346E+03  0.7818608E-02  0.1163597E+00
         21   -1    0    0  503  502  0.00000000000E+00  0.00000000000E+00  0.39379026015E+02  0.39379026015E+02  0.00000000000E+00 0. -1.
         21   -1    0    0  501  503 -0.00000000000E+00 -0.00000000000E+00 -0.13595557275E+04  0.13595557275E+04  0.00000000000E+00 0.  1.
          6    2    1    2  501    0  0.30179615948E+01 -0.70780193128E+02 -0.10817873873E+04  0.10967929750E+04  0.16634883496E+03 0.  0.
         24    2    3    3    0    0 -0.39920240261E+02 -0.97238314228E+02 -0.63333581107E+03  0.64548972046E+03  0.67035917970E+02 0.  0.
         -6    2    1    2    0  502 -0.30179615948E+01  0.70780193128E+02 -0.23838931416E+03  0.30214177847E+03  0.17158451376E+03 0.  0.
        -24    2    5    5    0    0  0.24377476882E+02  0.10411716355E+03 -0.13443666615E+03  0.18949140486E+03  0.79994563477E+02 0.  0.
          5    1    3    3  501    0  0.42938201856E+02  0.26458121099E+02 -0.44845157625E+03  0.45130325458E+03  0.47000000000E+01 0. -1.
        -13    1    4    4    0    0  0.66036410505E+01 -0.70817921463E+02 -0.35303157387E+03  0.36012508691E+03  0.00000000000E+00 0.  1.
         14    1    4    4    0    0 -0.46523881312E+02 -0.26420392765E+02 -0.28030423721E+03  0.28536463355E+03  0.00000000000E+00 0. -1.
         -5    1    5    5    0  502 -0.27395438477E+02 -0.33336970425E+02 -0.10395264801E+03  0.11265037361E+03  0.47000000000E+01 0.  1.
         11    1    6    6    0    0  0.96913328823E+01  0.71891552395E+02 -0.13589759120E+03  0.15404698158E+03  0.00000000000E+00 0. -1.
        -12    1    6    6    0    0  0.14686144000E+02  0.32225611159E+02  0.14609250502E+01  0.35444423287E+02  0.00000000000E+00 0.  1.
</event>
<event>
12    1  0.8251070E-002  0.2399664E+03  0.7818608E-02  0.1119964E+00
         21   -1    0    0  501  502  0.00000000000E+00  0.00000000000E+00  0.54594356519E+03  0.54594356519E+03  0.00000000000E+00 0. -1.
         21   -1    0    0  502  503 -0.00000000000E+00 -0.00000000000E+00 -0.11141214843E+03  0.11141214843E+03  0.00000000000E+00 0.  1.
         -6    2    1    2    0  503 -0.64863126285E+02 -0.15312011260E+03  0.13854832048E+03  0.27631780529E+03  0.17176407768E+03 0.  0.
        -24    2    3    3    0    0 -0.10972472837E+03 -0.12193741544E+03  0.92335672353E+02  0.20460572269E+03  0.80183390229E+02 0.  0.
          6    2    1    2  501    0  0.64863126285E+02  0.15312011260E+03  0.29598309628E+03  0.38103790832E+03  0.17300549200E+03 0.  0.
         24    2    5    5    0    0  0.17585018663E+02  0.59556487912E+02  0.47464166760E+02  0.11127297425E+03  0.79199870829E+02 0.  0.
          5    1    5    5  501    0  0.47278107623E+02  0.93563624687E+02  0.24851892952E+03  0.26976493407E+03  0.47000000000E+01 0. -1.
        -11    1    6    6    0    0 -0.12032696310E+02  0.26104358355E+02 -0.16580560022E+02  0.33183403627E+02  0.00000000000E+00 0.  1.
         12    1    6    6    0    0  0.29617714972E+02  0.33452129558E+02  0.64044726782E+02  0.78089570627E+02  0.00000000000E+00 0. -1.
         -5    1    3    3    0  503  0.44861602088E+02 -0.31182697159E+02  0.46212648125E+02  0.71712082600E+02  0.47000000000E+01 0.  1.
         13    1    4    4    0    0 -0.30606454817E+02 -0.59661338896E+02  0.78068573271E+02  0.10291225665E+03  0.00000000000E+00 0. -1.
        -14    1    4    4    0    0 -0.79118273556E+02 -0.62276076544E+02  0.14267099081E+02  0.10169346605E+03  0.00000000000E+00 0.  1.
</event>
<event>
12    1  0.8251070E-002  0.3786079E+03  0.7818608E-02  0.1051640E+00
         21   -1    0    0  503  502  0.00000000000E+00  0.00000000000E+00  0.55198994908E+03  0.55198994908E+03  0.00000000000E+00 0. -1.
         21   -1    0    0  501  503 -0.00000000000E+00 -0.00000000000E+00 -0.28245139986E+03  0.28245139986E+03  0.00000000000E+00 0.  1.
          6    2    1    2  501    0 -0.31947189225E+03  0.10159193922E+03  0.12392666839E+02  0.37676467167E+03  0.17150751464E+03 0.  0.
         24    2    3    3    0    0 -0.30846050675E+03  0.80572792228E+02  0.52792835599E+02  0.32967625710E+03  0.65264783245E+02 0.  0.
         -6    2    1    2    0  502  0.31947189225E+03 -0.10159193922E+03  0.25714588239E+03  0.45767667727E+03  0.17595659702E+03 0.  0.
        -24    2    5    5    0    0  0.24289323221E+03 -0.19619678466E+02  0.12895125110E+03  0.28726630142E+03  0.80693548273E+02 0.  0.
          5    1    3    3  501    0 -0.11011385495E+02  0.21019146994E+02 -0.40400168760E+02  0.47088414570E+02  0.47000000000E+01 0. -1.
        -11    1    4    4    0    0 -0.46573737787E+02  0.14887462553E+01 -0.12863913454E+02  0.48340559432E+02  0.00000000000E+00 0.  1.
         12    1    4    4    0    0 -0.26188676897E+03  0.79084045973E+02  0.65656749053E+02  0.28133569767E+03  0.00000000000E+00 0. -1.
         -5    1    5    5    0  502  0.76578660034E+02 -0.81972260756E+02  0.12819463129E+03  0.17041037585E+03  0.47000000000E+01 0.  1.
         11    1    6    6    0    0  0.14114315017E+03 -0.50705065939E+02  0.68232288482E+02  0.16476661598E+03  0.00000000000E+00 0. -1.
        -12    1    6    6    0    0  0.10175008205E+03  0.31085387472E+02  0.60718962619E+02  0.12249968544E+03  0.00000000000E+00 0.  1.
</event>
<event>
12    1  0.8251070E-002  0.2005511E+03  0.7818608E-02  0.1152665E+00
         21   -1    0    0  503  502  0.00000000000E+00  0.00000000000E+00  0.27161405278E+03  0.27161405278E+03  0.00000000000E+00 0.  1.
         21   -1    0    0  501  503 -0.00000000000E+00 -0.00000000000E+00 -0.14508088200E+03  0.14508088200E+03  0.00000000000E+00 0.  1.
          6    2    1    2  501    0  0.80014594592E+02  0.66390317462E+02  0.11034020922E+03  0.21549121225E+03  0.15313879713E+03 0.  0.
         24    2    3    3    0    0  0.76699393442E+01  0.29722829978E+02  0.10274130511E+03  0.13389410982E+03  0.80184676077E+02 0.  0.
         -6    2    1    2    0  502 -0.80014594592E+02 -0.66390317462E+02  0.16192961570E+02  0.20120372253E+03  0.17149552867E+03 0.  0.
        -24    2    5    5    0    0 -0.11888024935E+03 -0.77426123974E+02  0.19750162563E+02  0.16037393164E+03  0.72127738555E+02 0.  0.
          5    1    3    3  501    0  0.72344655248E+02  0.36667487484E+02  0.75989041046E+01  0.81597102430E+02  0.47000000000E+01 0. -1.
        -13    1    4    4    0    0  0.33743509721E+02  0.33321837625E+02  0.95450504740E+02  0.10658221318E+03  0.00000000000E+00 0.  1.
         14    1    4    4    0    0 -0.26073570377E+02 -0.35990076477E+01  0.72908003728E+01  0.27311896644E+02  0.00000000000E+00 0. -1.
         -5    1    5    5    0  502  0.38865654759E+02  0.11035806512E+02 -0.35572009935E+01  0.40829790890E+02  0.47000000000E+01 0.  1.
         13    1    6    6    0    0 -0.86746925568E+02 -0.43377328180E+02 -0.19916747609E+02  0.99011608061E+02  0.00000000000E+00 0. -1.
        -14    1    6    6    0    0 -0.32133323783E+02 -0.34048795794E+02  0.39666910173E+02  0.61362323579E+02  0.00000000000E+00 0.  1.
</event>
<event>
12    1  0.8251070E-002  0.2408966E+03  0.7818608E-02  0.1119436E+00
         21   -1    0    0  503  502  0.00000000000E+00  0.00000000000E+00  0.19842330562E+03  0.19842330562E+03  0.00000000000E+00 0. -1.
         21   -1    0    0  501  503 -0.00000000000E+00 -0.00000000000E+00 -0.65581775300E+03  0.65581775300E+03  0.00000000000E+00 0.  1.
          6    2    1    2  501    0 -0.90113499961E+02  0.14284665915E+03 -0.54708043448E+03  0.59719095357E+03  0.16974811434E+03 0.  0.
         24    2    3    3    0    0 -0.92073415108E+02  0.14533999458E+03 -0.55548861621E+03  0.58704967608E+03  0.80364741337E+02 0.  0.
         -6    2    1    2    0  502  0.90113499961E+02 -0.14284665915E+03  0.89685987099E+02  0.25705010506E+03  0.17177185254E+03 0.  0.
        -24    2    5    5    0    0  0.20495540584E+02 -0.13000914870E+03  0.10206827666E+03  0.18503015617E+03  0.80596399824E+02 0.  0.
          5    1    3    3  501    0  0.19599151476E+01 -0.24933354327E+01  0.84081817316E+01  0.10141277483E+02  0.47000000000E+01 0. -1.
        -13    1    4    4    0    0 -0.53271120472E+02  0.78984857023E+02 -0.42549189157E+03  0.43602725799E+03  0.00000000000E+00 0.  1.
         14    1    4    4    0    0 -0.38802294636E+02  0.66355137555E+02 -0.12999672464E+03  0.15102241809E+03  0.00000000000E+00 0. -1.
         -5    1    5    5    0  502  0.69617959377E+02 -0.12837510450E+02 -0.12382289562E+02  0.72019948883E+02  0.47000000000E+01 0.  1.
         13    1    6    6    0    0  0.50843133271E+02 -0.82361709267E+02  0.74666802285E+02  0.12224404574E+03  0.00000000000E+00 0. -1.
        -14    1    6    6    0    0 -0.30347592687E+02 -0.47647439428E+02  0.27401474376E+02  0.62786110438E+02  0.00000000000E+00 0.  1.
</event>
<event>
12    1  0.8251070E-002  0.2915435E+03  0.7818608E-02  0.1090142E+00
         21   -1    0    0  503  502  0.00000000000E+00  0.00000000000E+00  0.41716248481E+03  0.41716248481E+03  0.00000000000E+00 0.  1.
         21   -1    0    0  501  503 -0.00000000000E+00 -0.00000000000E+00 -0.63058704833E+03  0.63058704833E+03  0.00000000000E+00 0.  1.
          6    2    1    2  501    0  0.64377822624E+02  0.22574576337E+03 -0.53958274820E+03  0.61330836159E+03  0.17289288738E+03 0.  0.
         24    2    3    3    0    0  0.47556824940E+00  0.20158834573E+03 -0.45867167225E+03  0.50730944105E+03  0.79656002681E+02 0.  0.
         -6    2    1    2    0  502 -0.64377822624E+02 -0.22574576337E+03  0.32615818468E+03  0.43444117155E+03  0.16508881361E+03 0.  0.
        -24    2    5    5    0    0 -0.58348762847E+02 -0.18160473282E+03  0.15756752851E+03  0.26000012280E+03  0.79922967340E+02 0.  0.
          5    1    3    3  501    0  0.63902254375E+02  0.24157417640E+02 -0.80911075957E+02  0.10599892053E+03  0.47000000000E+01 0. -1.
        -11    1    4    4    0    0  0.37086711968E+02  0.10021698297E+03 -0.19300747111E+03  0.22061448680E+03  0.00000000000E+00 0.  1.
         12    1    4    4    0    0 -0.36611143718E+02  0.10137136276E+03 -0.26566420113E+03  0.28669495426E+03  0.00000000000E+00 0. -1.
         -5    1    5    5    0  502 -0.60290597770E+01 -0.44141030553E+02  0.16859065618E+03  0.17444104876E+03  0.47000000000E+01 0.  1.
         11    1    6    6    0    0  0.18261270900E+02 -0.31577012519E+02  0.15493248873E+02  0.39631079914E+02  0.00000000000E+00 0. -1.
        -12    1    6    6    0    0 -0.76610033747E+02 -0.15002772030E+03  0.14207427963E+03  0.22036904288E+03  0.00000000000E+00 0.  1.
</event>
<event>
12    1  0.8251070E-002  0.2418384E+03  0.7818608E-02  0.1118934E+00
         21   -1    0    0  503  502  0.00000000000E+00  0.00000000000E+00  0.74272353814E+02  0.74272353814E+02  0.00000000000E+00 0. -1.
         21   -1    0    0  501  503 -0.00000000000E+00 -0.00000000000E+00 -0.16360284386E+04  0.16360284386E+04  0.00000000000E+00 0. -1.
          6    2    1    2  501    0 -0.17087829253E+03  0.40058150652E+01 -0.13976252413E+04  0.14180256935E+04  0.16800331829E+03 0.  0.
         24    2    3    3    0    0 -0.53414115590E+02  0.56156096166E+02 -0.58474473576E+03  0.59503462980E+03  0.78314939685E+02 0.  0.
         -6    2    1    2    0  502  0.17087829253E+03 -0.40058150652E+01 -0.16413084355E+03  0.29227509895E+03  0.17108583300E+03 0.  0.
        -24    2    5    5    0    0  0.59835024890E+02 -0.54966566372E+02 -0.10637564510E+03  0.15705173407E+03  0.82145697894E+02 0.  0.
          5    1    3    3  501    0 -0.11746417694E+03 -0.52150281101E+02 -0.81288050550E+03  0.82299106368E+03  0.47000000000E+01 0. -1.
        -13    1    4    4    0    0 -0.57138432841E+02  0.23172227631E+02 -0.21115437576E+03  0.21997255066E+03  0.00000000000E+00 0.  1.
         14    1    4    4    0    0  0.37243172511E+01  0.32983868535E+02 -0.37359035999E+03  0.37506207913E+03  0.00000000000E+00 0. -1.
         -5    1    5    5    0  502  0.11104326764E+03  0.50960751307E+02 -0.57755198446E+02  0.13522336488E+03  0.47000000000E+01 0.  1.
         11    1    6    6    0    0  0.20480043590E+01  0.20069760247E+02 -0.12682013023E+02  0.23829038011E+02  0.00000000000E+00 0. -1.
        -12    1    6    6    0    0  0.57787020530E+02 -0.75036326618E+02 -0.93693632078E+02  0.13322269606E+03  0.00000000000E+00 0.  1.
</event>
<event>
12    1  0.8251070E-002  0.1816500E+03  0.7818608E-02  0.1166567E+00
         21   -1    0    0  501  502  0.00000000000E+00  0.00000000000E+00  0.73272380312E+03  0.73272380312E+03  0.00000000000E+00 0.  1.
         21   -1    0    0  502  503 -0.00000000000E+00 -0.00000000000E+00 -0.51925013109E+02  0.51925013109E+02  0.00000000000E+00 0.  1.
         -6    2    1    2    0  503 -0.21805672605E+02  0.48670327116E+02  0.19494767554E+03  0.26646069682E+03  0.17364451806E+03 0.  0.
        -24    2    3    3    0    0 -0.38803102902E+02 -0.22995912695E+02  0.16123003890E+03  0.18531926729E+03  0.79458244320E+02 0.  0.
          6    2    1    2  501    0  0.21805672605E+02 -0.48670327116E+02  0.48585111447E+03  0.51818811941E+03  0.17211430378E+03 0.  0.
         24    2    5    5    0    0  0.25815849185E+02 -0.61221387959E+02  0.49195026729E+03  0.50292704770E+03  0.80659986458E+02 0.  0.
          5    1    5    5  501    0 -0.40101765796E+01  0.12551060843E+02 -0.60991528181E+01  0.15261071705E+02  0.47000000000E+01 0. -1.
        -13    1    6    6    0    0 -0.12164720492E+02 -0.26725412194E+02  0.49819273470E+02  0.57828955469E+02  0.00000000000E+00 0.  1.
         14    1    6    6    0    0  0.37980569677E+02 -0.34495975765E+02  0.44213099382E+03  0.44509809223E+03  0.00000000000E+00 0. -1.
         -5    1    3    3    0  503  0.16997430297E+02  0.71666239810E+02  0.33717636641E+02  0.81141429528E+02  0.47000000000E+01 0.  1.
         13    1    4    4    0    0  0.21334329369E+02 -0.22007019128E+02  0.44958470303E+02  0.54412558776E+02  0.00000000000E+00 0. -1.
        -14    1    4    4    0    0 -0.60137432271E+02 -0.98889356672E+00  0.11627156860E+03  0.13090670851E+03  0.00000000000E+00 0.  1.
</event>
<event>
12    1  0.8251070E-002  0.1822348E+03  0.7818608E-02  0.1166512E+00
         21   -1    0    0  503  502  0.00000000000E+00  0.00000000000E+00  0.60952793955E+03  0.60952793955E+03  0.00000000000E+00 0.  1.
         21   -1    0    0  501  503 -0.00000000000E+00 -0.00000000000E+00 -0.12543697297E+03  0.12543697297E+03  0.00000000000E+00 0.  1.
          6    2    1    2  501    0 -0.12306231869E+02  0.47455655484E+02 -0.37396211782E+02  0.18255346120E+03  0.17182493113E+03 0.  0.
         24    2    3    3    0    0 -0.71383185900E+02  0.85675711425E+01 -0.21777325499E+02  0.10996965302E+03  0.80312577930E+02 0.  0.
         -6    2    1    2    0  502  0.12306231869E+02 -0.47455655484E+02  0.52148717837E+03  0.55241145132E+03  0.17551652847E+03 0.  0.
        -24    2    5    5    0    0  0.66342214409E+02 -0.22569063066E+01  0.38534149233E+03  0.39904733503E+03  0.79651282793E+02 0.  0.
          5    1    3    3  501    0  0.59076954031E+02  0.38888084342E+02 -0.15618886284E+02  0.72583808182E+02  0.47000000000E+01 0. -1.
        -13    1    4    4    0    0 -0.39992756118E+02  0.22234963665E+02 -0.48395468844E+02  0.66602819428E+02  0.00000000000E+00 0.  1.
         14    1    4    4    0    0 -0.31390429782E+02 -0.13667392522E+02  0.26618143345E+02  0.43366833588E+02  0.00000000000E+00 0. -1.
         -5    1    5    5    0  502 -0.54035982540E+02 -0.45198749178E+02  0.13614568604E+03  0.15336411629E+03  0.47000000000E+01 0.  1.
         11    1    6    6    0    0  0.33385161539E+02  0.12597931867E+02  0.48187901812E+02  0.59961243978E+02  0.00000000000E+00 0. -1.
        -12    1    6    6    0    0  0.32957052869E+02 -0.14854838173E+02  0.33715359051E+03  0.33908609106E+03  0.00000000000E+00 0.  1.
</event>
<event>
12    1  0.8251070E-002  0.2256282E+03  0.7818608E-02  0.1130640E+00
         21   -1    0    0  501  502  0.00000000000E+00  0.00000000000E+00  0.16567876497E+04  0.16567876497E+04  0.00000000000E+00 0. -1.
         21   -1    0    0  502  503 -0.00000000000E+00 -0.00000000000E+00 -0.30528283643E+02  0.30528283643E+02  0.00000000000E+00 0.  1.
         -6    2    1    2    0  503 -0.13142598863E+03  0.63959075336E+02  0.70114403203E+03  0.73508357695E+03  0.16547313270E+03 0.  0.
        -24    2    3    3    0    0 -0.41973006116E+02  0.57339084958E+01  0.49132055823E+03  0.49962660361E+03  0.80226187454E+02 0.  0.
          6    2    1    2  501    0  0.13142598863E+03 -0.63959075336E+02  0.92511533404E+03  0.95223235641E+03  0.17188521025E+03 0.  0.
         24    2    5    5    0    0  0.13914637988E+03 -0.88981705697E+01  0.55223574407E+03  0.57520107615E+03  0.80318543945E+02 0.  0.
          5    1    5    5  501    0 -0.77203912536E+01 -0.55060904766E+02  0.37287958997E+03  0.37703128026E+03  0.47000000000E+01 0. -1.
        -13    1    6    6    0    0  0.71444658228E+02 -0.16472971815E+02  0.14690307248E+03  0.16418346656E+03  0.00000000000E+00 0.  1.
         14    1    6    6    0    0  0.67701721655E+02  0.75748012449E+01  0.40533267160E+03  0.41101760959E+03  0.00000000000E+00 0. -1.
         -5    1    3    3    0  503 -0.89452982514E+02  0.58225166840E+02  0.20982347380E+03  0.23545697334E+03  0.47000000000E+01 0.  1.
         13    1    4    4    0    0 -0.32949803496E+02 -0.32600401844E+02  0.18202456674E+03  0.18783348649E+03  0.00000000000E+00 0. -1.
        -14    1    4    4    0    0 -0.90232026198E+01  0.38334310340E+02  0.30929599149E+03  0.31179311713E+03  0.00000000000E+00 0.  1.
</event>
<event>
12    1  0.8251070E-002  0.2092664E+03  0.7818608E-02  0.1143086E+00
         21   -1    0    0  501  502  0.00000000000E+00  0.00000000000E+00  0.57232717277E+02  0.57232717277E+02  0.00000000000E+00 0.  1.
         21   -1    0    0  502  503 -0.00000000000E+00 -0.00000000000E+00 -0.15679289116E+04  0.15679289116E+04  0.00000000000E+00 0.  1.
         -6    2    1    2    0  503  0.67591966351E+02  0.87069673360E+02 -0.13469223457E+04  0.13630818901E+04  0.17788375950E+03 0.  0.
        -24    2    3    3    0    0  0.62474466193E+02  0.15857567275E+02 -0.11294725155E+04  0.11341629710E+04  0.80392538410E+02 0.  0.
          6    2    1    2  501    0 -0.67591966351E+02 -0.87069673360E+02 -0.16377384870E+03  0.26207973883E+03  0.17237782355E+03 0.  0.
         24    2    5    5    0    0  0.33384122054E+02 -0.41302369016E+02 -0.56719854435E+02  0.10789327942E+03  0.74856079018E+02 0.  0.
          5    1    5    5  501    0 -0.10097608841E+03 -0.45767304343E+02 -0.10705399426E+03  0.15418645940E+03  0.47000000000E+01 0. -1.
        -11    1    6    6    0    0  0.42730279382E+02 -0.58142029774E+02 -0.40701852963E+02  0.82843305324E+02  0.00000000000E+00 0.  1.
         12    1    6    6    0    0 -0.93461573280E+01  0.16839660758E+02 -0.16018001472E+02  0.25049974099E+02  0.00000000000E+00 0. -1.
         -5    1    3    3    0  503  0.51175001587E+01  0.71212106085E+02 -0.21744983019E+03  0.22891891908E+03  0.47000000000E+01 0.  1.
         13    1    4    4    0    0 -0.70562892956E+01 -0.74594950238E+01 -0.22146219427E+02  0.24410864785E+02  0.00000000000E+00 0. -1.
        -14    1    4    4    0    0  0.69530755488E+02  0.23317062299E+02 -0.11073262960E+04  0.11097521062E+04  0.00000000000E+00 0.  1.
</event>
<event>
12    1  0.8251070E-002  0.2782144E+03  0.7818608E-02  0.1096697E+00
         21   -1    0    0  503  502  0.00000000000E+00  0.00000000000E+00  0.41204199809E+03  0.41204199809E+03  0.00000000000E+00 0. -1.
         21   -1    0    0  501  503 -0.00000000000E+00 -0.00000000000E+00 -0.38305011860E+03  0.38305011860E+03  0.00000000000E+00 0. -1.
          6    2    1    2  501    0  0.16062875262E+03 -0.14750477997E+03 -0.26939793769E+03  0.38712185721E+03  0.17242049535E+03 0.  0.
         24    2    3    3    0    0  0.48561844219E+02 -0.13165371982E+03 -0.21065773435E+03  0.25951797970E+03  0.57288271845E+02 0.  0.
         -6    2    1    2    0  502 -0.16062875262E+03  0.14750477997E+03  0.29838981719E+03  0.40797025948E+03  0.17275414131E+03 0.  0.
        -24    2    5    5    0    0 -0.89012882683E+02  0.33840554106E+02  0.68998337633E+02  0.14209259972E+03  0.79756253135E+02 0.  0.
          5    1    3    3  501    0  0.11206690840E+03 -0.15851060147E+02 -0.58740203346E+02  0.12760387751E+03  0.47000000000E+01 0. -1.
        -11    1    4    4    0    0 -0.81158533493E+01 -0.12677084215E+02 -0.47249932387E+02  0.49589632488E+02  0.00000000000E+00 0.  1.
         12    1    4    4    0    0  0.56677697568E+02 -0.11897663561E+03 -0.16340780196E+03  0.20992834721E+03  0.00000000000E+00 0. -1.
         -5    1    5    5    0  502 -0.71615869940E+02  0.11366422586E+03  0.22939147955E+03  0.26587765976E+03  0.47000000000E+01 0.  1.
         13    1    6    6    0    0 -0.56302476934E+02  0.56720435225E+01  0.79579165011E+02  0.97647245177E+02  0.00000000000E+00 0. -1.
        -14    1    6    6    0    0 -0.32710405748E+02  0.28168510583E+02 -0.10580827379E+02  0.44445354546E+02  0.00000000000E+00 0.  1.
</event>
<event>
12    1  0.8251070E-002  0.2334458E+03  0.7818608E-02  0.1124259E+00
         21   -1    0    0  503  502  0.00000000000E+00  0.00000000000E+00  0.88959236567E+02  0.88959236567E+02  0.00000000000E+00 0.  1.
         21   -1    0    0  501  503 -0.00000000000E+00 -0.00000000000E+00 -0.61511364791E+03  0.61511364791E+03  0.00000000000E+00 0.  1.
          6    2    1    2  501    0  0.17478102193E+02  0.15657027384E+03 -0.23911050604E+03  0.33408486389E+03  0.17210208446E+03 0.  0.
         24    2    3    3    0    0  0.13782225425E+02  0.27158196817E+02 -0.16200703834E+03  0.18332618283E+03  0.80216528517E+02 0.  0.
         -6    2    1    2    0  502 -0.17478102193E+02 -0.15657027384E+03 -0.28704390530E+03  0.36998802059E+03  0.17227070878E+03 0.  0.
        -24    2    5    5    0    0 -0.18716193482E+02 -0.15904729790E+03 -0.30332889239E+03  0.35281364076E+03  0.82599692969E+02 0.  0.
          5    1    3    3  501    0  0.36958767677E+01  0.12941207702E+03 -0.77103467704E+02  0.15075868106E+03  0.47000000000E+01 0. -1.
        -13    1    4    4    0    0  0.96931757174E+00  0.54858124558E+02 -0.95223284796E+02  0.10989916912E+03  0.00000000000E+00 0.  1.
         14    1    4    4    0    0  0.12812907853E+02 -0.27699927741E+02 -0.66783753541E+02  0.73427013704E+02  0.00000000000E+00 0. -1.
         -5    1    5    5    0  502  0.12380912889E+01  0.24770240653E+01  0.16284987085E+02  0.17174379832E+02  0.47000000000E+01 0.  1.
         11    1    6    6    0    0 -0.80995788809E+01  0.88260969842E+01 -0.19611734264E+02  0.22980933116E+02  0.00000000000E+00 0. -1.
        -12    1    6    6    0    0 -0.10616614601E+02 -0.16787339489E+03 -0.28371715812E+03  0.32983270764E+03  0.00000000000E+00 0.  1.
</event>
<event>
12    1  0.8251070E-002  0.2151088E+03  0.7818608E-02  0.1138500E+00
         21   -1    0    0  501  502  0.00000000000E+00  0.00000000000E+00  0.26089165977E+03  0.26089165977E+03  0.00000000000E+00 0.  1.
         21   -1    0    0  502  503 -0.00000000000E+00 -0.00000000000E+00 -0.53206113443E+03  0.53206113443E+03  0.00000000000E+00 0. -1.
         -6    2    1    2    0  503  0.11050261852E+03  0.46570454011E+02 -0.46056839464E+03  0.50634552717E+03  0.17286674305E+03 0.  0.
        -24    2    3    3    0    0  0.11783847395E+03  0.15453442905E+02 -0.44818783992E+03  0.47174131803E+03  0.86849389431E+02 0.  0.
          6    2    1    2  501    0 -0.11050261852E+03 -0.46570454011E+02  0.18939891998E+03  0.28660726704E+03  0.17858370234E+03 0.  0.
         24    2    5    5    0    0 -0.91249372205E+02 -0.97200036468E+02  0.10925254749E+03  0.18975907069E+03  0.79360511321E+02 0.  0.
          5    1    5    5  501    0 -0.19253246310E+02  0.50629582457E+02  0.80146372488E+02  0.96848196350E+02  0.47000000000E+01 0. -1.
        -13    1    6    6    0    0 -0.39928343446E+02  0.15853027316E+01  0.48832109835E+02  0.63098024898E+02  0.00000000000E+00 0.  1.
         14    1    6    6    0    0 -0.51321028760E+02 -0.98785339199E+02  0.60420437658E+02  0.12666104579E+03  0.00000000000E+00 0. -1.
         -5    1    3    3    0  503 -0.73358554307E+01  0.31117011106E+02 -0.12380554726E+02  0.34604209142E+02  0.47000000000E+01 0.  1.
         11    1    4    4    0    0  0.66939195810E+02  0.40020039757E+02 -0.15917826837E+03  0.17725738529E+03  0.00000000000E+00 0. -1.
        -12    1    4    4    0    0  0.50899278135E+02 -0.24566596851E+02 -0.28900957154E+03  0.29448393274E+03  0.00000000000E+00 0.  1.
</event>
<event>
12    1  0.8251070E-002  0.1784361E+03  0.7818608E-02  0.1169404E+00
         21   -1    0    0  501  502  0.00000000000E+00  0.00000000000E+00  0.48047736130E+03  0.48047736130E+03  0.00000000000E+00 0. -1.
         21   -1    0    0  502  503 -0.00000000000E+00 -0.00000000000E+00 -0.69646829380E+02  0.69646829380E+02  0.00000000000E+00 0. -1.
         -6    2    1    2    0  503  0.43955470700E+02 -0.33282636981E+01  0.26689591683E+03  0.32087190156E+03  0.17257516059E+03 0.  0.
        -24    2    3    3    0    0  0.11755304529E+02 -0.33046179550E+02  0.52651979829E+02  0.10214248022E+03  0.80191134904E+02 0.  0.
          6    2    1    2  501    0 -0.43955470700E+02  0.33282636981E+01  0.14393461509E+03  0.22925228911E+03  0.17290540159E+03 0.  0.
         24    2    5    5    0    0 -0.51232877813E+02 -0.42851969559E+02  0.31059624264E+02  0.10698852444E+03  0.77593460020E+02 0.  0.
          5    1    5    5  501    0  0.72774071129E+01  0.46180233257E+02  0.11287499083E+03  0.12226376467E+03  0.47000000000E+01 0. -1.
        -11    1    6    6    0    0 -0.15214136728E+02 -0.33203032843E+01  0.48339819247E+02  0.50786144716E+02  0.00000000000E+00 0.  1.
         12    1    6    6    0    0 -0.36018741086E+02 -0.39531666275E+02 -0.17280194983E+02  0.56202379723E+02  0.00000000000E+00 0. -1.
         -5    1    3    3    0  503  0.32200166171E+02  0.29717915852E+02  0.21424393700E+03  0.21872942135E+03  0.47000000000E+01 0.  1.
         13    1    4    4    0    0 -0.19413161061E+02 -0.36944615008E+02  0.10691438046E+01  0.41748275041E+02  0.00000000000E+00 0. -1.
        -14    1    4    4    0    0  0.31168465590E+02  0.38984354577E+01  0.51582836025E+02  0.60394205174E+02  0.00000000000E+00 0.  1.
</event>
<event>
12    1  0.8251070E-002  0.1999017E+03  0.7818608E-02  0.1150142E+00
         21   -1    0    0  503  502  0.00000000000E+00  0.00000000000E+00  0.61638642099E+03  0.61638642099E+03  0.00000000000E+00 0. -1.
         21   -1    0    0  501  503 -0.00000000000E+00 -0.00000000000E+00 -0.76820077229E+02  0.76820077229E+02  0.00000000000E+00 0. -1.
          6    2    1    2  501    0 -0.17855820644E+02 -0.97910975647E+02  0.12923360351E+03  0.23677068027E+03  0.17162063185E+03 0.  0.
         24    2    3    3    0    0 -0.28643383548E+01 -0.11579628789E+03  0.14943128006E+03  0.20555105386E+03  0.80650750516E+02 0.  0.
         -6    2    1    2    0  502  0.17855820644E+02  0.97910975647E+02  0.41033274025E+03  0.45643581795E+03  0.17336466970E+03 0.  0.
        -24    2    5    5    0    0 -0.36485837904E+02  0.99527715872E+02  0.35480207751E+03  0.37858099018E+03  0.78753217872E+02 0.  0.
          5    1    3    3  501    0 -0.14991482289E+02  0.17885312248E+02 -0.20197676547E+02  0.31219626412E+02  0.47000000000E+01 0. -1.
        -11    1    4    4    0    0  0.86842869632E+01  0.94959266279E+01  0.27398108119E+02  0.30269552211E+02  0.00000000000E+00 0.  1.
         12    1    4    4    0    0 -0.11548625318E+02 -0.12529221452E+03  0.12203317194E+03  0.17528150165E+03  0.00000000000E+00 0. -1.
         -5    1    5    5    0  502  0.54341658548E+02 -0.16167402247E+01  0.55530662747E+02  0.77854827774E+02  0.47000000000E+01 0.  1.
         11    1    6    6    0    0 -0.33420443630E+02  0.64856719226E+02  0.11449330474E+03  0.13576463792E+03  0.00000000000E+00 0. -1.
        -12    1    6    6    0    0 -0.30653942736E+01  0.34670996646E+02  0.24030877277E+03  0.24281635225E+03  0.00000000000E+00 0.  1.
</event>
<event>
12    1  0.8251070E-002  0.1754070E+03  0.7818608E-02  0.1172724E+00
         21   -1    0    0  503  502  0.00000000000E+00  0.00000000000E+00  0.56435934652E+03  0.56435934652E+03  0.00000000000E+00 0. -1.
         21   -1    0    0  501  503 -0.00000000000E+00 -0.00000000000E+00 -0.61559069775E+02  0.61559069775E+02  0.00000000000E+00 0. -1.
          6    2    1    2  501    0 -0.20696357400E+02  0.24954404369E+02  0.14291356013E+03  0.22625630086E+03  0.17238493699E+03 0.  0.
         24    2    3    3    0    0 -0.14865827644E+02 -0.32751501813E+02  0.19541455081E+02  0.89849801784E+02  0.79984152877E+02 0.  0.
         -6    2    1    2    0  502  0.20696357400E+02 -0.24954404369E+02  0.35988671661E+03  0.39966211543E+03  0.17076386097E+03 0.  0.
        -24    2    5    5    0    0  0.64042319942E+02 -0.16811866197E+02  0.33051135583E+03  0.34646272429E+03  0.80091231751E+02 0.  0.
          5    1    3    3  501    0 -0.58305297563E+01  0.57705906182E+02  0.12337210505E+03  0.13640649908E+03  0.47000000000E+01 0. -1.
        -11    1    4    4    0    0  0.30689706481E+02 -0.13466109944E+02  0.22378865040E+02  0.40298980153E+02  0.00000000000E+00 0.  1.
         12    1    4    4    0    0 -0.45555534125E+02 -0.19285391869E+02 -0.28374099593E+01  0.49550821630E+02  0.00000000000E+00 0. -1.
         -5    1    5    5    0  502 -0.43345962542E+02 -0.81425381712E+01  0.29375360781E+02  0.53199391139E+02  0.47000000000E+01 0.  1.
         13    1    6    6    0    0  0.37255105596E+02  0.26614973907E+02  0.94610313216E+02  0.10510666533E+03  0.00000000000E+00 0. -1.
        -14    1    6    6    0    0  0.26787214346E+02 -0.43426840104E+02  0.23590104261E+03  0.24135605897E+03  0.00000000000E+00 0.  1.
</event>
<event>
12    1  0.8251070E-002  0.2440186E+03  0.7818608E-02  0.1117284E+00
         21   -1    0    0  503  502  0.00000000000E+00  0.00000000000E+00  0.16263581158E+04  0.16263581158E+04  0.00000000000E+00 0. -1.
         21   -1    0    0  501  503 -0.00000000000E+00 -0.00000000000E+00 -0.52243607242E+02  0.52243607242E+02  0.00000000000E+00 0.  1.
          6    2    1    2  501    0  0.14350224486E+03  0.10699956140E+03  0.32705801751E+03  0.40805883902E+03  0.16584109525E+03 0.  0.
         24    2    3    3    0    0  0.34946897902E+02  0.64405724629E+02  0.23708018484E+03  0.26069331167E+03  0.79903727471E+02 0.  0.
         -6    2    1    2    0  502 -0.14350224486E+03 -0.10699956140E+03  0.12470564910E+04  0.12705428840E+04  0.16458289046E+03 0.  0.
        -24    2    5    5    0    0 -0.81834123203E+02 -0.92991158097E+02  0.50959484404E+03  0.53035982327E+03  0.79059837277E+02 0.  0.
          5    1    3    3  501    0  0.10855534696E+03  0.42593836768E+02  0.89977832663E+02  0.14736552736E+03  0.47000000000E+01 0. -1.
        -11    1    4    4    0    0 -0.16704110134E+02  0.17388096538E+02  0.16239335181E+02  0.29070418018E+02  0.00000000000E+00 0.  1.
         12    1    4    4    0    0  0.51651008035E+02  0.47017628091E+02  0.22084084966E+03  0.23162289365E+03  0.00000000000E+00 0. -1.
         -5    1    5    5    0  502 -0.61668121654E+02 -0.14008403300E+02  0.73746164700E+03  0.74018306072E+03  0.47000000000E+01 0.  1.
         13    1    6    6    0    0  0.14275426386E+01 -0.25397175032E+02  0.22141680282E+03  0.22287318131E+03  0.00000000000E+00 0. -1.
        -14    1    6    6    0    0 -0.83261665841E+02 -0.67593983065E+02  0.28817804122E+03  0.30748664197E+03  0.00000000000E+00 0.  1.
</event>
<event>
12    1  0.8251070E-002  0.1760100E+03  0.7818608E-02  0.1175143E+00
         21   -1    0    0  501  502  0.00000000000E+00  0.00000000000E+00  0.34969757670E+03  0.34969757670E+03  0.00000000000E+00 0. -1.
         21   -1    0    0  502  503 -0.00000000000E+00 -0.00000000000E+00 -0.87288418693E+02  0.87288418693E+02  0.00000000000E+00 0. -1.
         -6    2    1    2    0  503  0.30939017884E+02  0.37178962214E+02  0.82679856311E+02  0.19446203995E+03  0.16923364997E+03 0.  0.
        -24    2    3    3    0    0  0.24903102398E+02  0.84962525392E+02  0.82295944228E+02  0.14606846006E+03  0.82003520400E+02 0.  0.
          6    2    1    2  501    0 -0.30939017884E+02 -0.37178962214E+02  0.17972930170E+03  0.24252395545E+03  0.15548552672E+03 0.  0.
         24    2    5    5    0    0 -0.60770304038E+02 -0.24138575980E+01  0.69886537936E+02  0.12341878812E+03  0.81542703635E+02 0.  0.
          5    1    5    5  501    0  0.29831286154E+02 -0.34765104616E+02  0.10984276376E+03  0.11910516732E+03  0.47000000000E+01 0. -1.
        -11    1    6    6    0    0  0.15957089216E+02 -0.95961151073E+01 -0.10880835671E+01  0.18652025285E+02  0.00000000000E+00 0.  1.
         12    1    6    6    0    0 -0.76727393253E+02  0.71822575094E+01  0.70974621503E+02  0.10476676284E+03  0.00000000000E+00 0. -1.
         -5    1    3    3    0  503  0.60359154861E+01 -0.47783563178E+02  0.38391208389E+00  0.48393579886E+02  0.47000000000E+01 0.  1.
         13    1    4    4    0    0 -0.40137564563E+00  0.50765215909E+02 -0.28918142440E+01  0.50849098697E+02  0.00000000000E+00 0. -1.
        -14    1    4    4    0    0  0.25304478043E+02  0.34197309483E+02  0.85187758472E+02  0.95219361363E+02  0.00000000000E+00 0.  1.
</event>
<event>
12    1  0.8251070E-002  0.3163312E+03  0.7818608E-02  0.1077350E+00
         21   -1    0    0  501  502  0.00000000000E+00  0.00000000000E+00  0.25542637122E+03  0.25542637122E+03  0.00000000000E+00 0.  1.
         21   -1    0    0  502  503 -0.00000000000E+00 -0.00000000000E+00 -0.40044962178E+03  0.40044962178E+03  0.00000000000E+00 0. -1.
         -6    2    1    2    0  503 -0.18928783504E+03 -0.18625895513E+03 -0.12082483520E+03  0.33862081684E+03  0.17188116225E+03 0.  0.
        -24    2    3    3    0    0 -0.16931546239E+03 -0.11799478741E+03 -0.31935717855E+02  0.22468110714E+03  0.82892787214E+02 0.  0.
          6    2    1    2  501    0  0.18928783504E+03  0.18625895513E+03 -0.24198415364E+02  0.31725517616E+03  0.17188077448E+03 0.  0.
         24    2    5    5    0    0  0.14992297342E+03  0.16996941158E+03  0.32482236568E+02  0.24619373892E+03  0.90497306910E+02 0.  0.
          5    1    5    5  501    0  0.39364861616E+02  0.16289543543E+02 -0.56680651932E+02  0.71061437238E+02  0.47000000000E+01 0. -1.
        -13    1    6    6    0    0  0.14164118437E+03  0.18084785503E+03  0.34775389262E+02  0.23233058232E+03  0.00000000000E+00 0.  1.
         14    1    6    6    0    0  0.82817890494E+01 -0.10878443451E+02 -0.22931526942E+01  0.13863156605E+02  0.00000000000E+00 0. -1.
         -5    1    3    3    0  503 -0.19972372651E+02 -0.68264167720E+02 -0.88889117348E+02  0.11393970970E+03  0.47000000000E+01 0.  1.
         11    1    4    4    0    0 -0.38334014334E+02 -0.53796683850E+02 -0.42308064437E+02  0.78444580211E+02  0.00000000000E+00 0. -1.
        -12    1    4    4    0    0 -0.13098144805E+03 -0.64198103557E+02  0.10372346581E+02  0.14623652693E+03  0.00000000000E+00 0.  1.
</event>
<event>
12    1  0.8251070E-002  0.8476918E+03  0.7818608E-02  0.9493475E-01
         21   -1    0    0  503  502  0.00000000000E+00  0.00000000000E+00  0.37887022928E+03  0.37887022928E+03  0.00000000000E+00 0. -1.
         21   -1    0    0  501  503 -0.00000000000E+00 -0.00000000000E+00 -0.19117914118E+04  0.19117914118E+04  0.00000000000E+00 0.  1.
          6    2    1    2  501    0  0.58578577857E+03 -0.58814653457E+03 -0.66378359147E+03  0.10766568810E+04  0.17181402340E+03 0.  0.
         24    2    3    3    0    0  0.50137998293E+03 -0.42127783537E+03 -0.49677107111E+03  0.82588851565E+03  0.80333314008E+02 0.  0.
         -6    2    1    2    0  502 -0.58578577857E+03  0.58814653457E+03 -0.86913759101E+03  0.12140047600E+04  0.17130697814E+03 0.  0.
        -24    2    5    5    0    0 -0.27489674302E+03  0.36918031207E+03 -0.47611482147E+03  0.66711611835E+03  0.80599441635E+02 0.  0.
          5    1    3    3  501    0  0.84405795642E+02 -0.16686869920E+03 -0.16701252037E+03  0.25076836537E+03  0.47000000000E+01 0. -1.
        -11    1    4    4    0    0  0.14344608403E+02 -0.18947025811E+02 -0.27276325791E+01  0.23920651262E+02  0.00000000000E+00 0.  1.
         12    1    4    4    0    0  0.48703537452E+03 -0.40233080956E+03 -0.49404343853E+03  0.80196786439E+03  0.00000000000E+00 0. -1.
         -5    1    5    5    0  502 -0.31088903555E+03  0.21896622250E+03 -0.39302276954E+03  0.54688864168E+03  0.47000000000E+01 0.  1.
         13    1    6    6    0    0 -0.15144339023E+03  0.14192465482E+03 -0.18922247151E+03  0.28086091187E+03  0.00000000000E+00 0. -1.
        -14    1    6    6    0    0 -0.12345335278E+03  0.22725565724E+03 -0.28689234997E+03  0.38625520648E+03  0.00000000000E+00 0.  1.
</event>
<event>
12    1  0.8251070E-002  0.1900690E+03  0.7818608E-02  0.1159532E+00
         21   -1    0    0  503  502  0.00000000000E+00  0.00000000000E+00  0.34393159524E+03  0.34393159524E+03  0.00000000000E+00 0. -1.
         21   -1    0    0  501  503 -0.00000000000E+00 -0.00000000000E+00 -0.10419979968E+03  0.10419979968E+03  0.00000000000E+00 0. -1.
          6    2    1    2  501    0 -0.27043441121E+02 -0.62362343153E+02  0.88203747640E+02  0.20505324726E+03  0.17218165862E+03 0.  0.
         24    2    3    3    0    0 -0.13452685835E+02 -0.37225396111E+02  0.12818954438E+03  0.15568191270E+03  0.78978438706E+02 0.  0.
         -6    2    1    2    0  502  0.27043441121E+02  0.62362343153E+02  0.15152804792E+03  0.24307814766E+03  0.17749880848E+03 0.  0.
        -24    2    5    5    0    0 -0.43146060498E+02  0.81600262742E+01  0.11525294569E+03  0.14714884904E+03  0.80258169159E+02 0.  0.
          5    1    3    3  501    0 -0.13590755286E+02 -0.25136947042E+02 -0.39985796742E+02  0.49371334567E+02  0.47000000000E+01 0. -1.
        -13    1    4    4    0    0 -0.46380374726E+02 -0.27691589788E+02  0.80793172482E+02  0.97187962343E+02  0.00000000000E+00 0.  1.
         14    1    4    4    0    0  0.32927688891E+02 -0.95338063223E+01  0.47396371899E+02  0.58493950353E+02  0.00000000000E+00 0. -1.
         -5    1    5    5    0  502  0.70189501619E+02  0.54202316879E+02  0.36275102228E+02  0.95929298622E+02  0.47000000000E+01 0.  1.
         11    1    6    6    0    0 -0.33154514675E+02 -0.16892083728E+02  0.10049218161E+02  0.38542847867E+02  0.00000000000E+00 0. -1.
        -12    1    6    6    0    0 -0.99915458226E+01  0.25052110003E+02  0.10520372753E+03  0.10860600117E+03  0.00000000000E+00 0.  1.
</event>
<event>
12    1  0.8251070E-002  0.2193017E+03  0.7818608E-02  0.1134460E+00
         21   -1    0    0  503  502  0.00000000000E+00  0.00000000000E+00  0.45862056107E+02  0.45862056107E+02  0.00000000000E+00 0.  1.
         21   -1    0    0  501  503 -0.00000000000E+00 -0.00000000000E+00 -0.19659289507E+04  0.19659289507E+04  0.00000000000E+00 0. -1.
          6    2    1    2  501    0  0.12036160143E+03 -0.58592254219E+02 -0.16473173556E+04  0.16618116526E+04  0.17333069967E+03 0.  0.
         24    2    3    3    0    0  0.10682659213E+03 -0.96413710731E+02 -0.10166535277E+04  0.10298523083E+04  0.79396833535E+02 0.  0.
         -6    2    1    2    0  502 -0.12036160143E+03  0.58592254219E+02 -0.27274953899E+03  0.34997935416E+03  0.17370454792E+03 0.  0.
        -24    2    5    5    0    0  0.80710670131E+01  0.11769799232E+02 -0.93802566861E+02  0.12474303061E+03  0.80982910781E+02 0.  0.
          5    1    3    3  501    0  0.13535009297E+02  0.37821456513E+02 -0.63066382787E+03  0.63195934429E+03  0.47000000000E+01 0. -1.
        -11    1    4    4    0    0  0.37928422931E+02 -0.85616042353E+02 -0.52651862333E+03  0.53478082678E+03  0.00000000000E+00 0.  1.
         12    1    4    4    0    0  0.68898169201E+02 -0.10797668378E+02 -0.49013490438E+03  0.49507148156E+03  0.00000000000E+00 0. -1.
         -5    1    5    5    0  502 -0.12843266844E+03  0.46822454987E+02 -0.17894697213E+03  0.22523632355E+03  0.47000000000E+01 0.  1.
         13    1    6    6    0    0 -0.20815289726E+02 -0.12284918495E+02 -0.81779529770E+02  0.85276532517E+02  0.00000000000E+00 0. -1.
        -14    1    6    6    0    0  0.28886356739E+02  0.24054717727E+02 -0.12023037091E+02  0.39466498090E+02  0.00000000000E+00 0.  1.
</event>
<event>
12    1  0.8251070E-002  0.4068471E+03  0.7818608E-02  0.1041494E+00
         21   -1    0    0  501  502  0.00000000000E+00  0.00000000000E+00  0.13157156989E+03  0.13157156989E+03  0.00000000000E+00 0.  1.
         21   -1    0    0  502  503 -0.00000000000E+00 -0.00000000000E+00 -0.12902351813E+04  0.12902351813E+04  0.00000000000E+00 0. -1.
         -6    2    1    2    0  503 -0.34886422731E+03  0.11871675849E+03 -0.46381593431E+03  0.61696822078E+03  0.17240837188E+03 0.  0.
        -24    2    3    3    0    0 -0.18656141175E+03  0.11877741884E+03 -0.20774679427E+03  0.31375921350E+03  0.79830307193E+02 0.  0.
          6    2    1    2  501    0  0.34886422731E+03 -0.11871675849E+03 -0.69484767713E+03  0.80483853043E+03  0.17073912209E+03 0.  0.
         24    2    5    5    0    0  0.20584268249E+03 -0.40960575153E+01 -0.41371839868E+03  0.46920654659E+03  0.81264274662E+02 0.  0.
          5    1    5    5  501    0  0.14302154481E+03 -0.11462070098E+03 -0.28112927845E+03  0.33563198384E+03  0.47000000000E+01 0. -1.
        -11    1    6    6    0    0  0.91304483896E+02 -0.40453030318E+01 -0.10120435926E+03  0.13636420201E+03  0.00000000000E+00 0.  1.
         12    1    6    6    0    0  0.11453819860E+03 -0.50754483454E-01 -0.31251403942E+03  0.33284234458E+03  0.00000000000E+00 0. -1.
         -5    1    3    3    0  503 -0.16230281556E+03 -0.60660347698E-01 -0.25606914004E+03  0.30320900728E+03  0.47000000000E+01 0.  1.
         13    1    4    4    0    0 -0.27576501865E+02  0.18899456993E+02 -0.79894987557E+02  0.86607516801E+02  0.00000000000E+00 0. -1.
        -14    1    4    4    0    0 -0.15898490988E+03  0.99877961846E+02 -0.12785180672E+03  0.22715169670E+03  0.00000000000E+00 0.  1.
</event>
<event>
12    1  0.8251070E-002  0.2099211E+03  0.7818608E-02  0.1141670E+00
         21   -1    0    0  503  502  0.00000000000E+00  0.00000000000E+00  0.35991735434E+03  0.35991735434E+03  0.00000000000E+00 0. -1.
         21   -1    0    0  501  503 -0.00000000000E+00 -0.00000000000E+00 -0.41500634517E+03  0.41500634517E+03  0.00000000000E+00 0. -1.
          6    2    1    2  501    0 -0.11545167629E+03 -0.32949109992E+02 -0.35293247557E+03  0.41053707721E+03  0.17194367114E+03 0.  0.
         24    2    3    3    0    0 -0.41948226709E+02 -0.30819159640E+02 -0.67220985200E+02  0.11547701634E+03  0.78146056380E+02 0.  0.
         -6    2    1    2    0  502  0.11545167629E+03  0.32949109992E+02  0.29784348475E+03  0.36438662230E+03  0.17219795498E+03 0.  0.
        -24    2    5    5    0    0  0.12152431479E+03  0.37423860392E+00  0.29736619685E+03  0.33091548566E+03  0.79436166092E+02 0.  0.
          5    1    3    3  501    0 -0.73503449579E+02 -0.21299503513E+01 -0.28571149037E+03  0.29506006087E+03  0.47000000000E+01 0. -1.
        -13    1    4    4    0    0  0.13080803260E+01 -0.45013371877E+02 -0.18184211455E+02  0.48565216648E+02  0.00000000000E+00 0.  1.
         14    1    4    4    0    0 -0.43256307035E+02  0.14194212237E+02 -0.49036773745E+02  0.66911799697E+02  0.00000000000E+00 0. -1.
         -5    1    5    5    0  502 -0.60726384979E+01  0.32574871388E+02  0.47728789914E+00  0.33471136640E+02  0.47000000000E+01 0.  1.
         13    1    6    6    0    0  0.50567007149E+02  0.25360898699E+02  0.20015448270E+03  0.20799522672E+03  0.00000000000E+00 0. -1.
        -14    1    6    6    0    0  0.70957307636E+02 -0.24986660095E+02  0.97211714152E+02  0.12292025894E+03  0.00000000000E+00 0.  1.
</event>
<event>
12    1  0.8251070E-002  0.1760044E+03  0.7818608E-02  0.1174067E+00
         21   -1    0    0  503  502  0.00000000000E+00  0.00000000000E+00  0.86504028847E+02  0.86504028847E+02  0.00000000000E+00 0. -1.
         21   -1    0    0  501  503 -0.00000000000E+00 -0.00000000000E+00 -0.55922706350E+03  0.55922706350E+03  0.00000000000E+00 0. -1.
          6    2    1    2  501    0 -0.16761758780E+02 -0.28300107803E+02 -0.43474884792E+03  0.46567667100E+03  0.16360424349E+03 0.  0.
         24    2    3    3    0    0  0.31858377430E+02 -0.29795544349E+02 -0.13816947771E+03  0.16509795117E+03  0.79144161105E+02 0.  0.
         -6    2    1    2    0  502  0.16761758780E+02  0.28300107803E+02 -0.37974186735E+02  0.18005442135E+03  0.17290373949E+03 0.  0.
        -24    2    5    5    0    0 -0.25890897164E+02  0.64708930257E+02  0.84063015955E+01  0.10712917806E+03  0.80922250792E+02 0.  0.
          5    1    3    3  501    0 -0.48620136210E+02  0.14954365458E+01 -0.29657937022E+03  0.30057871983E+03  0.47000000000E+01 0. -1.
        -11    1    4    4    0    0  0.12106402446E+02  0.22006318154E+02 -0.13179652108E+02  0.28364524473E+02  0.00000000000E+00 0.  1.
         12    1    4    4    0    0  0.19751974983E+02 -0.51801862503E+02 -0.12498982560E+03  0.13673342670E+03  0.00000000000E+00 0. -1.
         -5    1    5    5    0  502  0.42652655944E+02 -0.36408822453E+02 -0.46380488331E+02  0.72925243293E+02  0.47000000000E+01 0.  1.
         11    1    6    6    0    0 -0.14558567543E+02  0.97290279685E+01  0.39321213589E+02  0.43043741848E+02  0.00000000000E+00 0. -1.
        -12    1    6    6    0    0 -0.11332329622E+02  0.54979902288E+02 -0.30914911994E+02  0.64085436207E+02  0.00000000000E+00 0.  1.
</event>
<event>
12    1  0.8251070E-002  0.2547191E+03  0.7818608E-02  0.1110404E+00
         21   -1    0    0  503  502  0.00000000000E+00  0.00000000000E+00  0.67736972433E+03  0.67736972433E+03  0.00000000000E+00 0. -1.
         21   -1    0    0  501  503 -0.00000000000E+00 -0.00000000000E+00 -0.98856293727E+02  0.98856293727E+02  0.00000000000E+00 0.  1.
          6    2    1    2  501    0  0.16266086895E+03  0.92745190754E+02  0.21943969755E+03  0.33598087628E+03  0.17224732123E+03 0.  0.
         24    2    3    3    0    0  0.18366339608E+03  0.74563102449E+02  0.15052616022E+03  0.26153048939E+03  0.80300514734E+02 0.  0.
         -6    2    1    2    0  502 -0.16266086895E+03 -0.92745190754E+02  0.35907373305E+03  0.44024514178E+03  0.17268934649E+03 0.  0.
        -24    2    5    5    0    0 -0.17991122909E+02 -0.64415027893E+00  0.13394737959E+03  0.15719761555E+03  0.80281345303E+02 0.  0.
          5    1    3    3  501    0 -0.21002527121E+02  0.18182088305E+02  0.68913537331E+02  0.74450386890E+02  0.47000000000E+01 0. -1.
        -13    1    4    4    0    0  0.16102956391E+03  0.76779344773E+02  0.15725655759E+03  0.23781339983E+03  0.00000000000E+00 0.  1.
         14    1    4    4    0    0  0.22633832167E+02 -0.22162423243E+01 -0.67303973630E+01  0.23717089561E+02  0.00000000000E+00 0. -1.
         -5    1    5    5    0  502 -0.14466974604E+03 -0.92101040475E+02  0.22512635346E+03  0.28304752622E+03  0.47000000000E+01 0.  1.
         13    1    6    6    0    0 -0.29005072417E+02  0.29525863995E+02  0.38634426242E+02  0.56618811022E+02  0.00000000000E+00 0. -1.
        -14    1    6    6    0    0  0.11013949508E+02 -0.30170014274E+02  0.95312953347E+02  0.10057880453E+03  0.00000000000E+00 0.  1.
</event>
<event>
12    1  0.8251070E-002  0.2177351E+03  0.7818608E-02  0.1135596E+00
         21   -1    0    0  503  502  0.00000000000E+00  0.00000000000E+00  0.60042819090E+03  0.60042819090E+03  0.00000000000E+00 0. -1.
         21   -1    0    0  501  503 -0.00000000000E+00 -0.00000000000E+00 -0.80216124181E+02  0.80216124181E+02  0.00000000000E+00 0. -1.
          6    2    1    2  501    0  0.11122172814E+03  0.73920422541E+02  0.21702220022E+03  0.30737139565E+03  0.17188379154E+03 0.  0.
         24    2    3    3    0    0  0.82422210740E+02  0.11031434357E+03  0.20286680278E+03  0.25862311396E+03  0.82269679612E+02 0.  0.
         -6    2    1    2    0  502 -0.11122172814E+03 -0.73920422541E+02  0.30318986650E+03  0.37327291944E+03  0.17197114744E+03 0.  0.
        -24    2    5    5    0    0 -0.12775232592E+03 -0.94569818811E+01  0.20489527197E+03  0.25447597857E+03  0.79786339121E+02 0.  0.
          5    1    3    3  501    0  0.28799517403E+02 -0.36393921031E+02  0.14155397434E+02  0.48748281684E+02  0.47000000000E+01 0. -1.
        -11    1    4    4    0    0 -0.15264169978E+02  0.19606208806E+02  0.49732728646E+02  0.55594447631E+02  0.00000000000E+00 0.  1.
         12    1    4    4    0    0  0.97686380718E+02  0.90708134766E+02  0.15313407414E+03  0.20302866633E+03  0.00000000000E+00 0. -1.
         -5    1    5    5    0  502  0.16530597773E+02 -0.64463440660E+02  0.98294594537E+02  0.11879694087E+03  0.47000000000E+01 0.  1.
         11    1    6    6    0    0 -0.32161350969E+02 -0.16353227879E+02  0.10238294364E+02  0.37504709433E+02  0.00000000000E+00 0. -1.
        -12    1    6    6    0    0 -0.95590974946E+02  0.68962459976E+01  0.19465697760E+03  0.21697126913E+03  0.00000000000E+00 0.  1.
</event>
<event>
12    1  0.8251070E-002  0.4640673E+03  0.7818608E-02  0.1023631E+00
         21   -1    0    0  503  502  0.00000000000E+00  0.00000000000E+00  0.90498751672E+03  0.90498751672E+03  0.00000000000E+00 0. -1.
         21   -1    0    0  501  503 -0.00000000000E+00 -0.00000000000E+00 -0.46590245853E+03  0.46590245853E+03  0.00000000000E+00 0.  1.
          6    2    1    2  501    0 -0.48569177034E+02 -0.42787094073E+03 -0.26010070890E+03  0.53171228956E+03  0.17214259561E+03 0.  0.
         24    2    3    3    0    0 -0.18937605585E+02 -0.24934895025E+03 -0.22835052729E+03  0.34792356536E+03  0.79833026537E+02 0.  0.
         -6    2    1    2    0  502  0.48569177034E+02  0.42787094073E+03  0.69918576709E+03  0.83917768569E+03  0.17299116849E+03 0.  0.
        -24    2    5    5    0    0  0.45950036302E+01  0.30705440032E+03  0.59270576894E+03  0.67217336129E+03  0.78824997787E+02 0.  0.
          5    1    3    3  501    0 -0.29631571449E+02 -0.17852199048E+03 -0.31750181618E+02  0.18378872420E+03  0.47000000000E+01 0. -1.
        -13    1    4    4    0    0 -0.93934454356E+01 -0.20607330395E+03 -0.14068375983E+03  0.24969253833E+03  0.00000000000E+00 0.  1.
         14    1    4    4    0    0 -0.95441601490E+01 -0.43275646304E+02 -0.87666767457E+02  0.98231027035E+02  0.00000000000E+00 0. -1.
         -5    1    5    5    0  502  0.43974173404E+02  0.12081654041E+03  0.10647999816E+03  0.16700432440E+03  0.47000000000E+01 0.  1.
         13    1    6    6    0    0  0.67164336869E+01  0.30370088439E+03  0.54209071697E+03  0.62140299572E+03  0.00000000000E+00 0. -1.
        -14    1    6    6    0    0 -0.21214300568E+01  0.33535159349E+01  0.50615051964E+02  0.50770365568E+02  0.00000000000E+00 0.  1.
</event>
<event>
12    1  0.8251070E-002  0.1941475E+03  0.7818608E-02  0.1155087E+00
         21   -1    0    0  501  502  0.00000000000E+00  0.00000000000E+00  0.10517647506E+04  0.10517647506E+04  0.00000000000E+00 0.  1.
         21   -1    0    0  502  503 -0.00000000000E+00 -0.00000000000E+00 -0.18588258545E+03  0.18588258545E+03  0.00000000000E+00 0. -1.
         -6    2    1    2    0  503  0.21640442156E+02  0.86071458741E+02 -0.12321720365E+03  0.22994720194E+03  0.17267493061E+03 0.  0.
        -24    2    3    3    0    0  0.24667607669E+02  0.11946891182E+03 -0.60899214015E+02  0.15902347224E+03  0.81843989984E+02 0.  0.
          6    2    1    2  501    0 -0.21640442156E+02 -0.86071458741E+02  0.98909936876E+03  0.10077001341E+04  0.17107131311E+03 0.  0.
         24    2    5    5    0    0 -0.58873593460E+02 -0.88048247763E+02  0.91581295361E+03  0.92533992585E+03  0.79511121523E+02 0.  0.
          5    1    5    5  501    0  0.37233151304E+02  0.19767890219E+01  0.73286415158E+02  0.82360208217E+02  0.47000000000E+01 0. -1.
        -11    1    6    6    0    0 -0.21516621912E+02 -0.21223929015E+01  0.50031994901E+02  0.54503853845E+02  0.00000000000E+00 0.  1.
         12    1    6    6    0    0 -0.37356971548E+02 -0.85925854861E+02  0.86578095870E+03  0.87083607201E+03  0.00000000000E+00 0. -1.
         -5    1    3    3    0  503 -0.30271655125E+01 -0.33397453077E+02 -0.62317989635E+02  0.70923729704E+02  0.47000000000E+01 0.  1.
         11    1    4    4    0    0 -0.51332103235E+01  0.23476539025E+02 -0.53009749144E+02  0.58202501983E+02  0.00000000000E+00 0. -1.
        -12    1    4    4    0    0  0.29800817992E+02  0.95992372793E+02 -0.78894648708E+01  0.10082097026E+03  0.00000000000E+00 0.  1.
</event>
<event>
12    1  0.8251070E-002  0.2379486E+03  0.7818608E-02  0.1121375E+00
         21   -1    0    0  503  502  0.00000000000E+00  0.00000000000E+00  0.55239458914E+03  0.55239458914E+03  0.00000000000E+00 0.  1.
         21   -1    0    0  501  503 -0.00000000000E+00 -0.00000000000E+00 -0.10227943839E+03  0.10227943839E+03  0.00000000000E+00 0. -1.
          6    2    1    2  501    0 -0.92494711956E+02 -0.13630799337E+03  0.20641560689E+03  0.31407304841E+03  0.16999804756E+03 0.  0.
         24    2    3    3    0    0 -0.81166680631E+02 -0.52677591221E+02  0.19131355810E+03  0.22820960837E+03  0.78203511313E+02 0.  0.
         -6    2    1    2    0  502  0.92494711956E+02  0.13630799337E+03  0.24369954385E+03  0.34060097912E+03  0.17171027491E+03 0.  0.
        -24    2    5    5    0    0  0.73288876477E+02  0.49855288278E+02  0.53410258710E+02  0.13066042474E+03  0.79766419459E+02 0.  0.
          5    1    3    3  501    0 -0.11328031325E+02 -0.83630402145E+02  0.15102048797E+02  0.85863440034E+02  0.47000000000E+01 0. -1.
        -11    1    4    4    0    0 -0.59025679634E+02 -0.51439681691E+02  0.19056425237E+03  0.20602137266E+03  0.00000000000E+00 0.  1.
         12    1    4    4    0    0 -0.22141000997E+02 -0.12379095293E+01  0.74930572156E+00  0.22188235717E+02  0.00000000000E+00 0. -1.
         -5    1    5    5    0  502  0.19205835479E+02  0.86452705088E+02  0.19028928514E+03  0.20994055438E+03  0.47000000000E+01 0.  1.
         11    1    6    6    0    0  0.36194048859E+02 -0.13946773622E+02 -0.12702900007E+01  0.38808959068E+02  0.00000000000E+00 0. -1.
        -12    1    6    6    0    0  0.37094827618E+02  0.63802061900E+02  0.54680548711E+02  0.91851465672E+02  0.00000000000E+00 0.  1.
</event>
<event>
12    1  0.8251070E-002  0.2034440E+03  0.7818608E-02  0.1147139E+00
         21   -1    0    0  503  502  0.00000000000E+00  0.00000000000E+00  0.10415501903E+03  0.10415501903E+03  0.00000000000E+00 0.  1.
         21   -1    0    0  501  503 -0.00000000000E+00 -0.00000000000E+00 -0.55241422188E+03  0.55241422188E+03  0.00000000000E+00 0.  1.
          6    2    1    2  501    0  0.40162926135E+02 -0.99612986489E+02 -0.40000510221E+03  0.44876893908E+03  0.17278214948E+03 0.  0.
         24    2    3    3    0    0  0.78318270305E+01 -0.84591238725E+02 -0.39544855911E+03  0.41252249153E+03  0.81106275520E+02 0.  0.
         -6    2    1    2    0  502 -0.40162926135E+02  0.99612986489E+02 -0.48254100642E+02  0.20780030184E+03  0.17122120050E+03 0.  0.
        -24    2    5    5    0    0 -0.87352351034E+02  0.55894304496E+02 -0.67430878099E+01  0.13109685235E+03  0.79914385161E+02 0.  0.
          5    1    3    3  501    0  0.32331099105E+02 -0.15021747764E+02 -0.45565430957E+01  0.36246447553E+02  0.47000000000E+01 0. -1.
        -11    1    4    4    0    0 -0.10021775754E+02 -0.42952962710E+02 -0.62444049480E+02  0.76450325770E+02  0.00000000000E+00 0.  1.
         12    1    4    4    0    0  0.17853602785E+02 -0.41638276015E+02 -0.33300450963E+03  0.33607216576E+03  0.00000000000E+00 0. -1.
         -5    1    5    5    0  502  0.47189424899E+02  0.43718681993E+02 -0.41511012832E+02  0.76703449491E+02  0.47000000000E+01 0.  1.
         11    1    6    6    0    0 -0.52156313853E+02  0.73795652385E+02  0.30347566488E+01  0.90417305499E+02  0.00000000000E+00 0. -1.
        -12    1    6    6    0    0 -0.35196037181E+02 -0.17901347889E+02 -0.97778444587E+01  0.40679546848E+02  0.00000000000E+00 0.  1.
</event>
<event>
12    1  0.8251070E-002  0.1761102E+03  0.7818608E-02  0.1172214E+00
         21   -1    0    0  501  502  0.00000000000E+00  0.00000000000E+00  0.17833447951E+03  0.17833447951E+03  0.00000000000E+00 0.  1.
         21   -1    0    0  502  503 -0.00000000000E+00 -0.00000000000E+00 -0.63213990445E+03  0.63213990445E+03  0.00000000000E+00 0.  1.
         -6    2    1    2    0  503 -0.21901580864E+02 -0.17705916510E+02 -0.57237742365E+03  0.59816774037E+03  0.17145131028E+03 0.  0.
        -24    2    3    3    0    0  0.13075002803E+01  0.25855779896E+02 -0.15951202493E+03  0.18233579079E+03  0.84451309004E+02 0.  0.
          6    2    1    2  501    0  0.21901580864E+02  0.17705916510E+02  0.11857199870E+03  0.21230664359E+03  0.17384364616E+03 0.  0.
         24    2    5    5    0    0 -0.20217908016E+02 -0.81466884326E+01  0.14069933957E+03  0.15795484748E+03  0.68398080031E+02 0.  0.
          5    1    5    5  501    0  0.42119488880E+02  0.25852604943E+02 -0.22127340867E+02  0.54351796103E+02  0.47000000000E+01 0. -1.
        -11    1    6    6    0    0 -0.28168842771E+02  0.18326162180E+02  0.11639164452E+03  0.12114597326E+03  0.00000000000E+00 0.  1.
         12    1    6    6    0    0  0.79509347544E+01 -0.26472850613E+02  0.24307695048E+02  0.36808874223E+02  0.00000000000E+00 0. -1.
         -5    1    3    3    0  503 -0.23209081144E+02 -0.43561696407E+02 -0.41286539872E+03  0.41583194959E+03  0.47000000000E+01 0.  1.
         13    1    4    4    0    0  0.42225382048E+02  0.72668448524E+01 -0.87954401940E+02  0.97835406392E+02  0.00000000000E+00 0. -1.
        -14    1    4    4    0    0 -0.40917881768E+02  0.18588935044E+02 -0.71557622991E+02  0.84500384393E+02  0.00000000000E+00 0.  1.
</event>
<event>
12    1  0.8251070E-002  0.1943338E+03  0.7818608E-02  0.1154696E+00
         21   -1    0    0  503  502  0.00000000000E+00  0.00000000000E+00  0.92365651204E+02  0.92365651204E+02  0.00000000000E+00 0. -1.
         21   -1    0    0  501  503 -0.00000000000E+00 -0.00000000000E+00 -0.59313977392E+03  0.59313977392E+03  0.00000000000E+00 0.  1.
          6    2    1    2  501    0  0.91321161337E+02 -0.15290169765E+02 -0.44203011485E+03  0.48286254156E+03  0.17085744880E+03 0.  0.
         24    2    3    3    0    0  0.67177118754E+02  0.18873344320E+02 -0.42553639811E+03  0.43764956578E+03  0.74745888858E+02 0.  0.
         -6    2    1    2    0  502 -0.91321161337E+02  0.15290169765E+02 -0.58744007868E+02  0.20264288356E+03  0.17041107945E+03 0.  0.
        -24    2    5    5    0    0 -0.67770599862E+02  0.52611893632E+02 -0.90356310254E+02  0.14815464923E+03  0.80154049990E+02 0.  0.
          5    1    3    3  501    0  0.24144042584E+02 -0.34163514085E+02 -0.16493716735E+02  0.45212975777E+02  0.47000000000E+01 0. -1.
        -13    1    4    4    0    0  0.35650476523E+02  0.70804268734E+00 -0.56414590582E+02  0.66738773073E+02  0.00000000000E+00 0.  1.
         14    1    4    4    0    0  0.31526642231E+02  0.18165301633E+02 -0.36912180753E+03  0.37091079271E+03  0.00000000000E+00 0. -1.
         -5    1    5    5    0  502 -0.23550561475E+02 -0.37321723868E+02  0.31612302386E+02  0.54488234330E+02  0.47000000000E+01 0.  1.
         11    1    6    6    0    0 -0.52160430432E+01  0.91097074437E+01  0.14892742213E+02  0.18220528130E+02  0.00000000000E+00 0. -1.
        -12    1    6    6    0    0 -0.62554556819E+02  0.43502186188E+02 -0.10524905247E+03  0.12993412110E+03  0.00000000000E+00 0.  1.
</event>
<event>
12    1  0.8251070E-002  0.1925895E+03  0.7818608E-02  0.1156276E+00
         21   -1    0    0  503  502  0.00000000000E+00  0.00000000000E+00  0.31605127386E+02  0.31605127386E+02  0.00000000000E+00 0.  1.
         21   -1    0    0  501  503 -0.00000000000E+00 -0.00000000000E+00 -0.11703107309E+04  0.11703107309E+04  0.00000000000E+00 0.  1.
          6    2    1    2  501    0 -0.62132332563E+02 -0.59044477116E+02 -0.55880312958E+03  0.59086954255E+03  0.17181152946E+03 0.  0.
         24    2    3    3    0    0 -0.41452560366E+02 -0.10227849519E+03 -0.47604163717E+03  0.49511784323E+03  0.79667013394E+02 0.  0.
         -6    2    1    2    0  502  0.62132332563E+02  0.59044477116E+02 -0.57990247393E+03  0.61104631573E+03  0.17246461572E+03 0.  0.
        -24    2    5    5    0    0  0.88733574505E+02  0.87851903653E+02 -0.50555986052E+03  0.52686550993E+03  0.80030548967E+02 0.  0.
          5    1    3    3  501    0 -0.20679772197E+02  0.43234018076E+02 -0.82761492415E+02  0.95751699326E+02  0.47000000000E+01 0. -1.
        -11    1    4    4    0    0 -0.26916735690E+02 -0.18377521130E+01 -0.46593423158E+02  0.53840830924E+02  0.00000000000E+00 0.  1.
         12    1    4    4    0    0 -0.14535824676E+02 -0.10044074308E+03 -0.42944821401E+03  0.44127701230E+03  0.00000000000E+00 0. -1.
         -5    1    5    5    0  502 -0.26601241942E+02 -0.28807426537E+02 -0.74342613407E+02  0.84180805798E+02  0.47000000000E+01 0.  1.
         13    1    6    6    0    0  0.24123108637E+02  0.73973084045E+02 -0.33580353639E+03  0.34469980647E+03  0.00000000000E+00 0. -1.
        -14    1    6    6    0    0  0.64610465868E+02  0.13878819608E+02 -0.16975632413E+03  0.18216570346E+03  0.00000000000E+00 0.  1.
</event>
<event>
12    1  0.8251070E-002  0.2889513E+03  0.7818608E-02  0.1091050E+00
         21   -1    0    0  503  502  0.00000000000E+00  0.00000000000E+00  0.29276053444E+03  0.29276053444E+03  0.00000000000E+00 0. -1.
         21   -1    0    0  501  503 -0.00000000000E+00 -0.00000000000E+00 -0.97681855195E+03  0.97681855195E+03  0.00000000000E+00 0. -1.
          6    2    1    2  501    0 -0.25017159233E+02 -0.22941628668E+03 -0.87681493688E+03  0.92319947960E+03  0.17388258897E+03 0.  0.
         24    2    3    3    0    0 -0.80784354947E+01 -0.49295644809E+02 -0.45502549411E+03  0.46422367411E+03  0.77201668373E+02 0.  0.
         -6    2    1    2    0  502  0.25017159233E+02  0.22941628668E+03  0.19275691937E+03  0.34637960679E+03  0.17194740819E+03 0.  0.
        -24    2    5    5    0    0  0.66629350376E+02  0.20838188309E+03  0.18620498645E+03  0.29906112825E+03  0.83082982128E+02 0.  0.
          5    1    3    3  501    0 -0.16938723739E+02 -0.18012064187E+03 -0.42178944278E+03  0.45897580549E+03  0.47000000000E+01 0. -1.
        -11    1    4    4    0    0 -0.31561362504E+02  0.46637610110E+01 -0.12596161758E+03  0.12993921414E+03  0.00000000000E+00 0.  1.
         12    1    4    4    0    0  0.23482927009E+02 -0.53959405820E+02 -0.32906387653E+03  0.33428445997E+03  0.00000000000E+00 0. -1.
         -5    1    5    5    0  502 -0.41612191143E+02  0.21034403589E+02  0.65519329184E+01  0.47318478537E+02  0.47000000000E+01 0.  1.
         11    1    6    6    0    0  0.25870648162E+02  0.17401898979E+02  0.56803097386E+02  0.64797441285E+02  0.00000000000E+00 0. -1.
        -12    1    6    6    0    0  0.40758702214E+02  0.19097998411E+03  0.12940188907E+03  0.23426368697E+03  0.00000000000E+00 0.  1.
</event>
<event>
12    1  0.8251070E-002  0.1836371E+03  0.7818608E-02  0.1165609E+00
         21   -1    0    0  501  502  0.00000000000E+00  0.00000000000E+00  0.19923551912E+03  0.19923551912E+03  0.00000000000E+00 0.  1.
         21   -1    0    0  502  503 -0.00000000000E+00 -0.00000000000E+00 -0.24697856091E+03  0.24697856091E+03  0.00000000000E+00 0.  1.
         -6    2    1    2    0  503 -0.34922025398E+02 -0.38945470441E+02 -0.15313107951E+03  0.23910605862E+03  0.17602920846E+03 0.  0.
        -24    2    3    3    0    0  0.21090015430E+02 -0.99185072807E+01 -0.12289849497E+02  0.84709635798E+02  0.80507865820E+02 0.  0.
          6    2    1    2  501    0  0.34922025398E+02  0.38945470441E+02  0.10538803771E+03  0.20710802141E+03  0.17044294211E+03 0.  0.
         24    2    5    5    0    0 -0.51106417702E+02  0.45314187108E+01  0.62589114897E+02  0.10493631411E+03  0.66796953746E+02 0.  0.
          5    1    5    5  501    0  0.86028443101E+02  0.34414051730E+02  0.42798922813E+02  0.10217170730E+03  0.47000000000E+01 0. -1.
        -11    1    6    6    0    0 -0.44550774332E+02  0.32648136354E+02  0.43772780053E+02  0.70475020926E+02  0.00000000000E+00 0.  1.
         12    1    6    6    0    0 -0.65556433702E+01 -0.28116717643E+02  0.18816334844E+02  0.34461293185E+02  0.00000000000E+00 0. -1.
         -5    1    3    3    0  503 -0.56012040828E+02 -0.29026963160E+02 -0.14084123001E+03  0.15439642282E+03  0.47000000000E+01 0.  1.
         11    1    4    4    0    0  0.34302431693E+02  0.26264534534E+02  0.29067743977E+01  0.43300484198E+02  0.00000000000E+00 0. -1.
        -12    1    4    4    0    0 -0.13212416263E+02 -0.36183041815E+02 -0.15196623894E+02  0.41409151601E+02  0.00000000000E+00 0.  1.
</event>
<event>
12    1  0.8251070E-002  0.1845182E+03  0.7818608E-02  0.1163556E+00
         21   -1    0    0  501  502  0.00000000000E+00  0.00000000000E+00  0.81176466804E+03  0.81176466804E+03  0.00000000000E+00 0.  1.
         21   -1    0    0  502  503 -0.00000000000E+00 -0.00000000000E+00 -0.47589029803E+02  0.47589029803E+02  0.00000000000E+00 0.  1.
         -6    2    1    2    0  503 -0.23650358262E+02  0.61686004192E+02  0.23358685502E+03  0.29767396449E+03  0.17228600563E+03 0.  0.
        -24    2    3    3    0    0  0.44400042240E+02  0.58990630225E+02  0.18560219638E+03  0.21423093294E+03  0.77430350125E+02 0.  0.
          6    2    1    2  501    0  0.23650358262E+02 -0.61686004192E+02  0.53058878322E+03  0.56167973336E+03  0.17203244877E+03 0.  0.
         24    2    5    5    0    0  0.55514232353E+02  0.13240742675E+02  0.35519826019E+03  0.36825468473E+03  0.78667410812E+02 0.  0.
          5    1    5    5  501    0 -0.31863874091E+02 -0.74926746867E+02  0.17539052303E+03  0.19342504863E+03  0.47000000000E+01 0. -1.
        -13    1    6    6    0    0 -0.19916802668E+02  0.83575050819E+01  0.79588350626E+02  0.82467159979E+02  0.00000000000E+00 0.  1.
         14    1    6    6    0    0  0.75431035021E+02  0.48832375931E+01  0.27560990957E+03  0.28578752475E+03  0.00000000000E+00 0. -1.
         -5    1    3    3    0  503 -0.68050400502E+02  0.26953739671E+01  0.47984658637E+02  0.83443031547E+02  0.47000000000E+01 0.  1.
         13    1    4    4    0    0 -0.44083573489E+01  0.12001321970E+02  0.11740893069E+03  0.11810301584E+03  0.00000000000E+00 0. -1.
        -14    1    4    4    0    0  0.48808399589E+02  0.46989308254E+02  0.68193265689E+02  0.96127917100E+02  0.00000000000E+00 0.  1.
</event>
<event>
12    1  0.8251070E-002  0.2105129E+03  0.7818608E-02  0.1142173E+00
         21   -1    0    0  503  502  0.00000000000E+00  0.00000000000E+00  0.15506875909E+04  0.15506875909E+04  0.00000000000E+00 0. -1.
         21   -1    0    0  501  503 -0.00000000000E+00 -0.00000000000E+00 -0.60326902067E+02  0.60326902067E+02  0.00000000000E+00 0. -1.
          6    2    1    2  501    0 -0.11276109655E+03  0.46314887515E+02  0.15878435431E+03  0.26368189403E+03  0.17162615291E+03 0.  0.
         24    2    3    3    0    0 -0.10609718128E+03  0.58826588698E+02  0.49497630707E+02  0.15337945349E+03  0.79737456032E+02 0.  0.
         -6    2    1    2    0  502  0.11276109655E+03 -0.46314887515E+02  0.13315763346E+04  0.13473325990E+04  0.16537673295E+03 0.  0.
        -24    2    5    5    0    0  0.10417402039E+02 -0.55621400625E+02  0.78386006747E+03  0.79003910159E+03  0.80764560276E+02 0.  0.
          5    1    3    3  501    0 -0.66639152736E+01 -0.12511701183E+02  0.10928672360E+03  0.11030244054E+03  0.47000000000E+01 0. -1.
        -13    1    4    4    0    0 -0.19813923131E+00  0.11117729194E+02 -0.16418225485E+02  0.19829303812E+02  0.00000000000E+00 0.  1.
         14    1    4    4    0    0 -0.10589904204E+03  0.47708859504E+02  0.65915856192E+02  0.13355014968E+03  0.00000000000E+00 0. -1.
         -5    1    5    5    0  502  0.10234369451E+03  0.93065131095E+01  0.54771626710E+03  0.55729349739E+03  0.47000000000E+01 0.  1.
         13    1    6    6    0    0  0.28725016149E+02  0.80034145816E+01  0.33471903540E+03  0.33604466051E+03  0.00000000000E+00 0. -1.
        -14    1    6    6    0    0 -0.18307614110E+02 -0.63624815206E+02  0.44914103207E+03  0.45399444108E+03  0.00000000000E+00 0.  1.
</event>
<event>
12    1  0.8251070E-002  0.2294655E+03  0.7818608E-02  0.1127190E+00
         21   -1    0    0  501  502  0.00000000000E+00  0.00000000000E+00  0.32106616385E+03  0.32106616385E+03  0.00000000000E+00 0. -1.
         21   -1    0    0  502  503 -0.00000000000E+00 -0.00000000000E+00 -0.16445642368E+03  0.16445642368E+03  0.00000000000E+00 0.  1.
         -6    2    1    2    0  503 -0.10764298045E+03  0.10296514852E+03  0.57754703879E+02  0.23566918392E+03  0.17324989287E+03 0.  0.
        -24    2    3    3    0    0 -0.84457902710E+02  0.10027743268E+03 -0.20289379694E+02  0.15407420474E+03  0.78348585199E+02 0.  0.
          6    2    1    2  501    0  0.10764298045E+03 -0.10296514852E+03  0.98855036297E+02  0.24985340361E+03  0.17454389719E+03 0.  0.
         24    2    5    5    0    0 -0.12415888509E+02 -0.34849600797E+02  0.15315235484E+02  0.88438261270E+02  0.78855061064E+02 0.  0.
          5    1    5    5  501    0  0.12005886896E+03 -0.68115547723E+02  0.83539800813E+02  0.16141514234E+03  0.47000000000E+01 0. -1.
        -11    1    6    6    0    0 -0.10323044834E+01  0.27230857233E+01 -0.29050607142E+02  0.29196209064E+02  0.00000000000E+00 0.  1.
         12    1    6    6    0    0 -0.11383584025E+02 -0.37572686521E+02  0.44365842626E+02  0.59242052206E+02  0.00000000000E+00 0. -1.
         -5    1    3    3    0  503 -0.23185077739E+02  0.26877158411E+01  0.78044083573E+02  0.81594979177E+02  0.47000000000E+01 0.  1.
         11    1    4    4    0    0 -0.36884291711E+02  0.84855440978E+02  0.13802082058E+02  0.93548887261E+02  0.00000000000E+00 0. -1.
        -12    1    4    4    0    0 -0.47573610999E+02  0.15421991702E+02 -0.34091461751E+02  0.60525317479E+02  0.00000000000E+00 0.  1.
</event>
<event>
12    1  0.8251070E-002  0.2679660E+03  0.7818608E-02  0.1102490E+00
         21   -1    0    0  503  502  0.00000000000E+00  0.00000000000E+00  0.62222496345E+02  0.62222496345E+02  0.00000000000E+00 0.  1.
         21   -1    0    0  501  503 -0.00000000000E+00 -0.00000000000E+00 -0.17824763652E+04  0.17824763652E+04  0.00000000000E+00 0. -1.
          6    2    1    2  501    0  0.15406353739E+03 -0.13506465451E+03 -0.14086202309E+04  0.14338817089E+04  0.17270716747E+03 0.  0.
         24    2    3    3    0    0  0.30681410575E+02 -0.46710327077E+02 -0.32296255734E+03  0.33765896210E+03  0.81151448730E+02 0.  0.
         -6    2    1    2    0  502 -0.15406353739E+03  0.13506465451E+03 -0.31163363791E+03  0.41081715262E+03  0.17227064219E+03 0.  0.
        -24    2    5    5    0    0 -0.74615005846E+01  0.65709504828E+02 -0.14473568517E+03  0.17805265659E+03  0.79880641853E+02 0.  0.
          5    1    3    3  501    0  0.12338212682E+03 -0.88354327429E+02 -0.10856576736E+04  0.10962227468E+04  0.47000000000E+01 0. -1.
        -13    1    4    4    0    0  0.35598738899E+02 -0.14513033308E+02 -0.51587770356E+02  0.64336586771E+02  0.00000000000E+00 0.  1.
         14    1    4    4    0    0 -0.49173283239E+01 -0.32197293769E+02 -0.27137478698E+03  0.27332237533E+03  0.00000000000E+00 0. -1.
         -5    1    5    5    0  502 -0.14660203681E+03  0.69355149678E+02 -0.16689795274E+03  0.23276449603E+03  0.47000000000E+01 0.  1.
         13    1    6    6    0    0 -0.40669758278E+02  0.22350624272E+02 -0.86839248621E+02  0.98461336294E+02  0.00000000000E+00 0. -1.
        -14    1    6    6    0    0  0.33208257693E+02  0.43358880556E+02 -0.57896436549E+02  0.79591320300E+02  0.00000000000E+00 0.  1.
</event>
<event>
12    1  0.8251070E-002  0.2937113E+03  0.7818608E-02  0.1089089E+00
         21   -1    0    0  501  502  0.00000000000E+00  0.00000000000E+00  0.17656089810E+03  0.17656089810E+03  0.00000000000E+00 0.  1.
         21   -1    0    0  502  503 -0.00000000000E+00 -0.00000000000E+00 -0.49637626624E+03  0.49637626624E+03  0.00000000000E+00 0. -1.
         -6    2    1    2    0  503  0.20646302158E+03  0.11947399771E+03 -0.97688198906E+02  0.30468883644E+03  0.16245395481E+03 0.  0.
        -24    2    3    3    0    0  0.10690067587E+03  0.13318070761E+03 -0.69097548442E+02  0.20009414310E+03  0.78091865912E+02 0.  0.
          6    2    1    2  501    0 -0.20646302158E+03 -0.11947399771E+03 -0.22212716923E+03  0.36824832790E+03  0.17136317072E+03 0.  0.
         24    2    5    5    0    0 -0.22314505712E+03 -0.93624110492E+02 -0.22040207860E+03  0.33707826347E+03  0.80532533013E+02 0.  0.
          5    1    5    5  501    0  0.16682035535E+02 -0.25849887216E+02 -0.17250906334E+01  0.31170064427E+02  0.47000000000E+01 0. -1.
        -13    1    6    6    0    0  0.33976716827E+01  0.36022961568E+01  0.17237317518E+01  0.52432777550E+01  0.00000000000E+00 0.  1.
         14    1    6    6    0    0 -0.22654272880E+03 -0.97226406649E+02 -0.22212581035E+03  0.33183498572E+03  0.00000000000E+00 0. -1.
         -5    1    3    3    0  503  0.99562345717E+02 -0.13706709900E+02 -0.28590650464E+02  0.10459469334E+03  0.47000000000E+01 0.  1.
         11    1    4    4    0    0 -0.11908886006E+02  0.72900740820E+01 -0.10030267332E+02  0.17192236876E+02  0.00000000000E+00 0. -1.
        -12    1    4    4    0    0  0.11880956187E+03  0.12589063353E+03 -0.59067281109E+02  0.18290190622E+03  0.00000000000E+00 0.  1.
</event>
<event>
12    1  0.8251070E-002  0.2133292E+03  0.7818608E-02  0.1140827E+00
         21   -1    0    0  503  502  0.00000000000E+00  0.00000000000E+00  0.30024103129E+03  0.30024103129E+03  0.00000000000E+00 0.  1.
         21   -1    0    0  501  503 -0.00000000000E+00 -0.00000000000E+00 -0.14644237533E+03  0.14644237533E+03  0.00000000000E+00 0. -1.
          6    2    1    2  501    0 -0.55027718049E+02 -0.97607800757E+02  0.56169912713E+02  0.22060012831E+03  0.18153243511E+03 0.  0.
         24    2    3    3    0    0  0.16574082868E+02 -0.86055472396E+02  0.69995133741E+02  0.14661701591E+03  0.94429794310E+02 0.  0.
         -6    2    1    2    0  502  0.55027718049E+02  0.97607800757E+02  0.97628743249E+02  0.22608327831E+03  0.17037295766E+03 0.  0.
        -24    2    5    5    0    0  0.44406891422E+02  0.84220225053E+01 -0.17703104681E+01  0.92034157163E+02  0.80151416811E+02 0.  0.
          5    1    3    3  501    0 -0.71601800917E+02 -0.11552328361E+02 -0.13825221028E+02  0.73983112408E+02  0.47000000000E+01 0. -1.
        -11    1    4    4    0    0 -0.27607169701E+02 -0.23288126408E+02 -0.82077974404E+01  0.37038636440E+02  0.00000000000E+00 0.  1.
         12    1    4    4    0    0  0.44181252570E+02 -0.62767345988E+02  0.78202931181E+02  0.10957837947E+03  0.00000000000E+00 0. -1.
         -5    1    5    5    0  502  0.10620826628E+02  0.89185778252E+02  0.99399053717E+02  0.13404912115E+03  0.47000000000E+01 0.  1.
         11    1    6    6    0    0 -0.20706354768E+02 -0.37517539642E+01  0.12215924592E+02  0.24332233749E+02  0.00000000000E+00 0. -1.
        -12    1    6    6    0    0  0.65113246189E+02  0.12173776469E+02 -0.13986235060E+02  0.67701923414E+02  0.00000000000E+00 0.  1.
</event>
<event>
12    1  0.8251070E-002  0.1727060E+03  0.7818608E-02  0.1175380E+00
         21   -1    0    0  501  502  0.00000000000E+00  0.00000000000E+00  0.33976837390E+02  0.33976837390E+02  0.00000000000E+00 0. -1.
         21   -1    0    0  502  503 -0.00000000000E+00 -0.00000000000E+00 -0.12475645714E+04  0.12475645714E+04  0.00000000000E+00 0. -1.
         -6    2    1    2    0  503  0.31587087831E+02  0.21545772218E+02 -0.95706565638E+03  0.97229890104E+03  0.16711827525E+03 0.  0.
        -24    2    3    3    0    0  0.20948707372E+02 -0.40679811108E+02 -0.59610677042E+03  0.60583115933E+03  0.97951092408E+02 0.  0.
          6    2    1    2  501    0 -0.31587087831E+02 -0.21545772218E+02 -0.25652207761E+03  0.30924250773E+03  0.16842027155E+03 0.  0.
         24    2    5    5    0    0 -0.81373681972E+02 -0.20487304074E+02 -0.13655574853E+03  0.17926621981E+03  0.80296322206E+02 0.  0.
          5    1    5    5  501    0  0.49786594140E+02 -0.10584681443E+01 -0.11996632908E+03  0.12997628793E+03  0.47000000000E+01 0. -1.
        -13    1    6    6    0    0 -0.13791633032E+02  0.14970054465E+02 -0.84420776779E+02  0.86839963291E+02  0.00000000000E+00 0.  1.
         14    1    6    6    0    0 -0.67582048940E+02 -0.35457358539E+02 -0.52134971756E+02  0.92426256515E+02  0.00000000000E+00 0. -1.
         -5    1    3    3    0  503  0.10638380459E+02  0.62225583326E+02 -0.36095888596E+03  0.36646774171E+03  0.47000000000E+01 0.  1.
         11    1    4    4    0    0  0.39315292933E+02  0.89021894835E+01 -0.42074219815E+03  0.42266882845E+03  0.00000000000E+00 0. -1.
        -12    1    4    4    0    0 -0.18366585560E+02 -0.49582000591E+02 -0.17536457227E+03  0.18316233088E+03  0.00000000000E+00 0.  1.
</event>
<event>
12    1  0.8251070E-002  0.1760339E+03  0.7818608E-02  0.1172285E+00
         21   -1    0    0  501  502  0.00000000000E+00  0.00000000000E+00  0.41134166255E+02  0.41134166255E+02  0.00000000000E+00 0.  1.
         21   -1    0    0  502  503 -0.00000000000E+00 -0.00000000000E+00 -0.11937953289E+04  0.11937953289E+04  0.00000000000E+00 0.  1.
         -6    2    1    2    0  503  0.33066973622E+02 -0.19711266686E+01 -0.19464953607E+03  0.26087907427E+03  0.17050554073E+03 0.  0.
        -24    2    3    3    0    0  0.17944134147E+02  0.31750939652E+02 -0.20818719245E+03  0.22124025276E+03  0.65385229400E+02 0.  0.
          6    2    1    2  501    0 -0.33066973622E+02  0.19711266686E+01 -0.95801162661E+03  0.97405042091E+03  0.17288908489E+03 0.  0.
         24    2    5    5    0    0 -0.48726196107E+00  0.64166975475E+02 -0.61784100425E+03  0.62667756139E+03  0.82943482218E+02 0.  0.
          5    1    5    5  501    0 -0.32579711661E+02 -0.62195848807E+02 -0.34017062235E+03  0.34737285952E+03  0.47000000000E+01 0. -1.
        -13    1    6    6    0    0 -0.38387730138E+02  0.19727563504E+02 -0.18824833028E+03  0.19313267057E+03  0.00000000000E+00 0.  1.
         14    1    6    6    0    0  0.37900468177E+02  0.44439411971E+02 -0.42959267397E+03  0.43354489082E+03  0.00000000000E+00 0. -1.
         -5    1    3    3    0  503  0.15122839474E+02 -0.33722066321E+02  0.13537656380E+02  0.39638821513E+02  0.47000000000E+01 0.  1.
         11    1    4    4    0    0  0.21942413110E+02 -0.25923746578E+01 -0.16223814385E+03  0.16373577868E+03  0.00000000000E+00 0. -1.
        -12    1    4    4    0    0 -0.39982789626E+01  0.34343314310E+02 -0.45949048591E+02  0.57504474077E+02  0.00000000000E+00 0.  1.
</event>
<event>
12    1  0.8251070E-002  0.2298186E+03  0.7818608E-02  0.1126975E+00
         21   -1    0    0  503  502  0.00000000000E+00  0.00000000000E+00  0.40003285925E+03  0.40003285925E+03  0.00000000000E+00 0.  1.
         21   -1    0    0  501  503 -0.00000000000E+00 -0.00000000000E+00 -0.21714060037E+03  0.21714060037E+03  0.00000000000E+00 0.  1.
          6    2    1    2  501    0  0.14703061989E+03 -0.42292257541E+02 -0.10265373509E+03  0.25063134314E+03  0.16991657543E+03 0.  0.
         24    2    3    3    0    0  0.45549407906E+02 -0.77984183994E+02 -0.59731594288E+02  0.13471434624E+03  0.80148675681E+02 0.  0.
         -6    2    1    2    0  502 -0.14703061989E+03  0.42292257541E+02  0.28554599396E+03  0.36654211647E+03  0.17149335336E+03 0.  0.
        -24    2    5    5    0    0 -0.88355150125E+02  0.24020977487E+02  0.65877272558E+02  0.13839065890E+03  0.80178048862E+02 0.  0.
          5    1    3    3  501    0  0.10148121198E+03  0.35691926453E+02 -0.42922140803E+02  0.11591699690E+03  0.47000000000E+01 0. -1.
        -11    1    4    4    0    0  0.34303538549E+02 -0.46302392530E+02 -0.77589091995E+02  0.96647356444E+02  0.00000000000E+00 0.  1.
         12    1    4    4    0    0  0.11245869357E+02 -0.31681791465E+02  0.17857497706E+02  0.38066989799E+02  0.00000000000E+00 0. -1.
         -5    1    5    5    0  502 -0.58675469764E+02  0.18271280054E+02  0.21966872141E+03  0.22815145757E+03  0.47000000000E+01 0.  1.
         11    1    6    6    0    0  0.70262464021E+01  0.12953094083E+02 -0.84285783218E+01  0.16976210335E+02  0.00000000000E+00 0. -1.
        -12    1    6    6    0    0 -0.95381396527E+02  0.11067883404E+02  0.74305850879E+02  0.12141444857E+03  0.00000000000E+00 0.  1.
</event>
<event>
12    1  0.8251070E-002  0.1819910E+03  0.7818608E-02  0.1167051E+00
         21   -1    0    0  503  502  0.00000000000E+00  0.00000000000E+00  0.33966375283E+03  0.33966375283E+03  0.00000000000E+00 0.  1.
         21   -1    0    0  501  503 -0.00000000000E+00 -0.00000000000E+00 -0.12779041885E+03  0.12779041885E+03  0.00000000000E+00 0.  1.
          6    2    1    2  501    0  0.15753841682E+02  0.51519778457E+02  0.22335257096E+03  0.28510151757E+03  0.16880175729E+03 0.  0.
         24    2    3    3    0    0  0.66896240260E+02  0.75351359995E+02  0.16383924806E+03  0.20295886839E+03  0.64777068774E+02 0.  0.
         -6    2    1    2    0  502 -0.15753841682E+02 -0.51519778457E+02 -0.11479236984E+02  0.18235265412E+03  0.17383396240E+03 0.  0.
        -24    2    5    5    0    0 -0.61810409608E+01 -0.47583302458E+02  0.53326076819E+02  0.11655787428E+03  0.91867794400E+02 0.  0.
          5    1    3    3  501    0 -0.51142398577E+02 -0.23831581539E+02  0.59513322901E+02  0.82142649175E+02  0.47000000000E+01 0. -1.
        -11    1    4    4    0    0  0.74326273628E+01 -0.93352984042E+01  0.39130042190E+02  0.40909069258E+02  0.00000000000E+00 0.  1.
         12    1    4    4    0    0  0.59463612897E+02  0.84686658400E+02  0.12470920587E+03  0.16204979913E+03  0.00000000000E+00 0. -1.
         -5    1    5    5    0  502 -0.95728007217E+01 -0.39364759982E+01 -0.64805313803E+02  0.65794779839E+02  0.47000000000E+01 0.  1.
         13    1    6    6    0    0 -0.30752707372E+02  0.16560729107E+02  0.16738541667E+02  0.38731970469E+02  0.00000000000E+00 0. -1.
        -14    1    6    6    0    0  0.24571666411E+02 -0.64144031566E+02  0.36587535152E+02  0.77825903812E+02  0.00000000000E+00 0.  1.
</event>
<event>
12    1  0.8251070E-002  0.2496089E+03  0.7818608E-02  0.1113612E+00
         21   -1    0    0  503  502  0.00000000000E+00  0.00000000000E+00  0.42625055540E+02  0.42625055540E+02  0.00000000000E+00 0. -1.
         21   -1    0    0  501  503 -0.00000000000E+00 -0.00000000000E+00 -0.19173557702E+04  0.19173557702E+04  0.00000000000E+00 0.  1.
          6    2    1    2  501    0  0.47563728264E+02 -0.17346950207E+03 -0.14168003926E+04  0.14386201603E+04  0.17306252240E+03 0.  0.
         24    2    3    3    0    0 -0.22384117639E+02 -0.12198049632E+03 -0.11143315263E+04  0.11238927799E+04  0.77588272599E+02 0.  0.
         -6    2    1    2    0  502 -0.47563728264E+02  0.17346950207E+03 -0.45793032206E+03  0.52136066547E+03  0.17251894750E+03 0.  0.
        -24    2    5    5    0    0 -0.45388762937E+02  0.18063881168E+03 -0.29393231218E+03  0.35712435183E+03  0.80318605820E+02 0.  0.
          5    1    3    3  501    0  0.69947845903E+02 -0.51489005758E+02 -0.30246886636E+03  0.31472738041E+03  0.47000000000E+01 0. -1.
        -11    1    4    4    0    0 -0.19643326174E+02 -0.11099297779E+03 -0.10993472742E+04  0.11051107323E+04  0.00000000000E+00 0.  1.
         12    1    4    4    0    0 -0.27407914648E+01 -0.10987518527E+02 -0.14984252091E+02  0.18782047598E+02  0.00000000000E+00 0. -1.
         -5    1    5    5    0  502 -0.21749653274E+01 -0.71693096079E+01 -0.16399800988E+03  0.16423631364E+03  0.47000000000E+01 0.  1.
         11    1    6    6    0    0  0.43529954911E+01  0.41215501003E+01  0.40468120390E+01  0.72327334151E+01  0.00000000000E+00 0. -1.
        -12    1    6    6    0    0 -0.49741758428E+02  0.17651726158E+03 -0.29797912422E+03  0.34989161841E+03  0.00000000000E+00 0.  1.
</event>
<event>
12    1  0.8251070E-002  0.2959745E+03  0.7818608E-02  0.1087630E+00
         21   -1    0    0  501  502  0.00000000000E+00  0.00000000000E+00  0.96656350897E+02  0.96656350897E+02  0.00000000000E+00 0.  1.
         21   -1    0    0  502  503 -0.00000000000E+00 -0.00000000000E+00 -0.16576201483E+04  0.16576201483E+04  0.00000000000E+00 0.  1.
         -6    2    1    2    0  503 -0.16787410350E+03 -0.17273098433E+03 -0.13723459960E+04  0.14033098367E+04  0.16711450371E+03 0.  0.
        -24    2    3    3    0    0 -0.46834288335E+02 -0.86544962715E+02 -0.40524018122E+03  0.42484450045E+03  0.81177361088E+02 0.  0.
          6    2    1    2  501    0  0.16787410350E+03  0.17273098433E+03 -0.18861780144E+03  0.35096666258E+03  0.17199771989E+03 0.  0.
         24    2    5    5    0    0  0.53654837264E+02  0.11171365437E+03 -0.35104403911E+02  0.15007463049E+03  0.77014890820E+02 0.  0.
          5    1    5    5  501    0  0.11421926624E+03  0.61017329959E+02 -0.15351339753E+03  0.20089203209E+03  0.47000000000E+01 0. -1.
        -11    1    6    6    0    0  0.64755338975E+02  0.92939629013E+02 -0.49839058228E+02  0.12375362739E+03  0.00000000000E+00 0.  1.
         12    1    6    6    0    0 -0.11100501711E+02  0.18774025355E+02  0.14734654318E+02  0.26321003099E+02  0.00000000000E+00 0. -1.
         -5    1    3    3    0  503 -0.12103981517E+03 -0.86186021611E+02 -0.96710581478E+03  0.97846533621E+03  0.47000000000E+01 0.  1.
         11    1    4    4    0    0  0.39584231085E+01 -0.15100703261E+02 -0.21288888565E+03  0.21346048343E+03  0.00000000000E+00 0. -1.
        -12    1    4    4    0    0 -0.50792711443E+02 -0.71444259455E+02 -0.19235129556E+03  0.21138401702E+03  0.00000000000E+00 0.  1.
</event>
<event>
12    1  0.8251070E-002  0.1834727E+03  0.7818608E-02  0.1165434E+00
         21   -1    0    0  501  502  0.00000000000E+00  0.00000000000E+00  0.72232165154E+02  0.72232165154E+02  0.00000000000E+00 0. -1.
         21   -1    0    0  502  503 -0.00000000000E+00 -0.00000000000E+00 -0.61454424311E+03  0.61454424311E+03  0.00000000000E+00 0. -1.
         -6    2    1    2    0  503 -0.15511891966E+02 -0.44947925980E+02 -0.44337021281E+03  0.47832564129E+03  0.17308188429E+03 0.  0.
        -24    2    3    3    0    0 -0.73354578425E+02 -0.41397675704E+02 -0.22693702361E+03  0.25421897910E+03  0.77667334954E+02 0.  0.
          6    2    1    2  501    0  0.15511891966E+02  0.44947925980E+02 -0.98941865145E+02  0.20845076697E+03  0.17720410472E+03 0.  0.
         24    2    5    5    0    0 -0.31153083503E+02  0.85612842446E+02 -0.69096153931E+02  0.13957325362E+03  0.80039622912E+02 0.  0.
          5    1    5    5  501    0  0.46664975469E+02 -0.40664916466E+02 -0.29845711215E+02  0.68877513345E+02  0.47000000000E+01 0. -1.
        -13    1    6    6    0    0 -0.26572309197E+02 -0.76300041097E+01 -0.19771952716E+02  0.33988743622E+02  0.00000000000E+00 0.  1.
         14    1    6    6    0    0 -0.45807743057E+01  0.93242846556E+02 -0.49324201214E+02  0.10558451000E+03  0.00000000000E+00 0. -1.
         -5    1    3    3    0  503  0.57842686459E+02 -0.35502502765E+01 -0.21643318919E+03  0.22410666219E+03  0.47000000000E+01 0.  1.
         11    1    4    4    0    0 -0.59502762153E+02  0.10842116198E+02 -0.11628314997E+03  0.13107212195E+03  0.00000000000E+00 0. -1.
        -12    1    4    4    0    0 -0.13851816272E+02 -0.52239791902E+02 -0.11065387365E+03  0.12314685715E+03  0.00000000000E+00 0.  1.
</event>
<event>
12    1  0.8251070E-002  0.2558216E+03  0.7818608E-02  0.1109730E+00
         21   -1    0    0  503  502  0.00000000000E+00  0.00000000000E+00  0.66845257082E+02  0.66845257082E+02  0.00000000000E+00 0. -1.
         21   -1    0    0  501  503 -0.00000000000E+00 -0.00000000000E+00 -0.16566416164E+04  0.16566416164E+04  0.00000000000E+00 0.  1.
          6    2    1    2  501    0  0.27989074394E+02 -0.18674969519E+03 -0.13468285076E+04  0.13709090764E+04  0.17258571772E+03 0.  0.
         24    2    3    3    0    0 -0.15812476542E+02 -0.17866510922E+03 -0.85862691343E+03  0.88065728096E+03  0.78395244540E+02 0.  0.
         -6    2    1    2    0  502 -0.27989074394E+02  0.18674969519E+03 -0.24296785172E+03  0.35257779708E+03  0.17210139187E+03 0.  0.
        -24    2    5    5    0    0 -0.59435101924E+02  0.13768904889E+03 -0.97943077516E+02  0.19621260020E+03  0.80098267872E+02 0.  0.
          5    1    3    3  501    0  0.43801550937E+02 -0.80845859625E+01 -0.48820159418E+03  0.49025179546E+03  0.47000000000E+01 0. -1.
        -13    1    4    4    0    0 -0.16950195114E+02 -0.17559307989E+01 -0.11621309802E+03  0.11745584940E+03  0.00000000000E+00 0.  1.
         14    1    4    4    0    0  0.11377185715E+01 -0.17690917843E+03 -0.74241381541E+03  0.76320143156E+03  0.00000000000E+00 0. -1.
         -5    1    5    5    0  502  0.31446027530E+02  0.49060646292E+02 -0.14502477421E+03  0.15636519688E+03  0.47000000000E+01 0.  1.
         11    1    6    6    0    0 -0.16018189690E+02  0.14480108161E+02  0.12672070370E+02  0.25036719049E+02  0.00000000000E+00 0. -1.
        -12    1    6    6    0    0 -0.43416912234E+02  0.12320894073E+03 -0.11061514789E+03  0.17117588115E+03  0.00000000000E+00 0.  1.
</event>
<event>
12    1  0.8251070E-002  0.1800530E+03  0.7818608E-02  0.1168046E+00
         21   -1    0    0  503  502  0.00000000000E+00  0.00000000000E+00  0.23857538448E+02  0.23857538448E+02  0.00000000000E+00 0.  1.
         21   -1    0    0  501  503 -0.00000000000E+00 -0.00000000000E+00 -0.14587327197E+04  0.14587327197E+04  0.00000000000E+00 0.  1.
          6    2    1    2  501    0  0.45273255919E+02  0.13403390562E+02 -0.51256424704E+03  0.54286873468E+03  0.17249648452E+03 0.  0.
         24    2    3    3    0    0  0.33624900896E+02 -0.55749705489E+02 -0.36457461830E+03  0.37903694570E+03  0.80719825766E+02 0.  0.
         -6    2    1    2    0  502 -0.45273255919E+02 -0.13403390562E+02 -0.92231093418E+03  0.93972152343E+03  0.17375201787E+03 0.  0.
        -24    2    5    5    0    0 -0.40331974042E+02  0.61065147936E+02 -0.56849068755E+03  0.57808519172E+03  0.75134590084E+02 0.  0.
          5    1    3    3  501    0  0.11648355022E+02  0.69153096051E+02 -0.14798962874E+03  0.16383178898E+03  0.47000000000E+01 0. -1.
        -13    1    4    4    0    0  0.27670877462E+02  0.13967561040E+02 -0.75511214890E+02  0.81625448208E+02  0.00000000000E+00 0.  1.
         14    1    4    4    0    0  0.59540234343E+01 -0.69717266530E+02 -0.28906340341E+03  0.29741149749E+03  0.00000000000E+00 0. -1.
         -5    1    5    5    0  502 -0.49412818772E+01 -0.74468538497E+02 -0.35382024663E+03  0.36163633172E+03  0.47000000000E+01 0.  1.
         11    1    6    6    0    0 -0.37857304087E+01  0.23092990688E+02 -0.41760731617E+03  0.41826246364E+03  0.00000000000E+00 0. -1.
        -12    1    6    6    0    0 -0.36546243633E+02  0.37972157247E+02 -0.15088337138E+03  0.15982272808E+03  0.00000000000E+00 0.  1.
</event>
<event>
12    1  0.8251070E-002  0.2096722E+03  0.7818608E-02  0.1141946E+00
         21   -1    0    0  501  502  0.00000000000E+00  0.00000000000E+00  0.24754144695E+03  0.24754144695E+03  0.00000000000E+00 0.  1.
         21   -1    0    0  502  503 -0.00000000000E+00 -0.00000000000E+00 -0.19471771811E+03  0.19471771811E+03  0.00000000000E+00 0.  1.
         -6    2    1    2    0  503  0.29018193845E+02  0.11628679305E+03  0.92923452788E+02  0.22878689625E+03  0.17130091070E+03 0.  0.
        -24    2    3    3    0    0  0.11394171875E+02  0.82751670560E+02  0.13166222278E+03  0.17439946304E+03  0.78118920048E+02 0.  0.
          6    2    1    2  501    0 -0.29018193845E+02 -0.11628679305E+03 -0.40099723952E+02  0.21347226881E+03  0.17203996012E+03 0.  0.
         24    2    5    5    0    0 -0.74252632843E+02 -0.12212011312E+03 -0.35317338671E+02  0.16737299220E+03  0.79621784677E+02 0.  0.
          5    1    5    5  501    0  0.45234438998E+02  0.58333200729E+01 -0.47823852813E+01  0.46099276605E+02  0.47000000000E+01 0. -1.
        -13    1    6    6    0    0 -0.12307431347E+02 -0.76013043374E+02 -0.45566442554E+02  0.89474892100E+02  0.00000000000E+00 0.  1.
         14    1    6    6    0    0 -0.61945201496E+02 -0.46107069746E+02  0.10249103883E+02  0.77898100101E+02  0.00000000000E+00 0. -1.
         -5    1    3    3    0  503  0.17624021970E+02  0.33535122487E+02 -0.38738769990E+02  0.54387433208E+02  0.47000000000E+01 0.  1.
         13    1    4    4    0    0 -0.12523247212E+01 -0.12503773988E+02  0.38743151239E+02  0.40730141776E+02  0.00000000000E+00 0. -1.
        -14    1    4    4    0    0  0.12646496596E+02  0.95255444548E+02  0.92919071539E+02  0.13366932127E+03  0.00000000000E+00 0.  1.
</event>
<event>
12    1  0.8251070E-002  0.1831669E+03  0.7818608E-02  0.1165105E+00
         21   -1    0    0  503  502  0.00000000000E+00  0.00000000000E+00  0.30760972579E+03  0.30760972579E+03  0.00000000000E+00 0. -1.
         21   -1    0    0  501  503 -0.00000000000E+00 -0.00000000000E+00 -0.11886684016E+03  0.11886684016E+03  0.00000000000E+00 0. -1.
          6    2    1    2  501    0 -0.42988891031E+02 -0.44350180529E+02  0.15847245180E+03  0.24220578022E+03  0.17243879704E+03 0.  0.
         24    2    3    3    0    0 -0.64548293471E+02 -0.16217719930E+02  0.17506955922E+03  0.20278754652E+03  0.77742792770E+02 0.  0.
         -6    2    1    2    0  502  0.42988891031E+02  0.44350180529E+02  0.30270433823E+02  0.18427078573E+03  0.17095157222E+03 0.  0.
        -24    2    5    5    0    0  0.27008451942E+02 -0.27009534434E+02  0.59996623504E+02  0.10519285135E+03  0.77504643197E+02 0.  0.
          5    1    3    3  501    0  0.21559402440E+02 -0.28132460599E+02 -0.16597107424E+02  0.39418233696E+02  0.47000000000E+01 0. -1.
        -11    1    4    4    0    0  0.79638201241E+01 -0.26024519850E+02  0.66585308955E+02  0.71932617309E+02  0.00000000000E+00 0.  1.
         12    1    4    4    0    0 -0.72512113595E+02  0.98067999194E+01  0.10848425027E+03  0.13085492921E+03  0.00000000000E+00 0. -1.
         -5    1    5    5    0  502  0.15980439088E+02  0.71359714963E+02 -0.29726189681E+02  0.79077934382E+02  0.47000000000E+01 0.  1.
         13    1    6    6    0    0  0.27326641473E+02  0.97742468797E+01 -0.60010109223E+01  0.29636014718E+02  0.00000000000E+00 0. -1.
        -14    1    6    6    0    0 -0.31818953072E+00 -0.36783781314E+02  0.65997634427E+02  0.75556836635E+02  0.00000000000E+00 0.  1.
</event>
<event>
12    1  0.8251070E-002  0.2111986E+03  0.7818608E-02  0.1141492E+00
         21   -1    0    0  501  502  0.00000000000E+00  0.00000000000E+00  0.97584705308E+02  0.97584705308E+02  0.00000000000E+00 0. -1.
         21   -1    0    0  502  503 -0.00000000000E+00 -0.00000000000E+00 -0.16836955053E+04  0.16836955053E+04  0.00000000000E+00 0. -1.
         -6    2    1    2    0  503 -0.19630649457E+02  0.11628881569E+03 -0.15539441952E+04  0.15676460843E+04  0.16989182691E+03 0.  0.
        -24    2    3    3    0    0 -0.77983579431E+02  0.83132869678E+02 -0.99921342295E+03  0.10088503248E+04  0.79743341694E+02 0.  0.
          6    2    1    2  501    0  0.19630649457E+02 -0.11628881569E+03 -0.32166604778E+02  0.21363412627E+03  0.17520387664E+03 0.  0.
         24    2    5    5    0    0 -0.29102117462E+02 -0.10273563965E+03  0.26725106719E+02  0.13585948493E+03  0.79636822021E+02 0.  0.
          5    1    5    5  501    0  0.48732766919E+02 -0.13553176048E+02 -0.58891711496E+02  0.77774641340E+02  0.47000000000E+01 0. -1.
        -13    1    6    6    0    0 -0.52316499506E+01 -0.90457017882E+02 -0.91326511227E+01  0.91067269432E+02  0.00000000000E+00 0.  1.
         14    1    6    6    0    0 -0.23870467511E+02 -0.12278621764E+02  0.35857757841E+02  0.44792215496E+02  0.00000000000E+00 0. -1.
         -5    1    3    3    0  503  0.58352929973E+02  0.33155946016E+02 -0.55473077223E+03  0.55879575952E+03  0.47000000000E+01 0.  1.
         13    1    4    4    0    0 -0.93480552624E+02  0.77481093436E+02 -0.91655391875E+03  0.92456098746E+03  0.00000000000E+00 0. -1.
        -14    1    4    4    0    0  0.15496973193E+02  0.56517762421E+01 -0.82659504201E+02  0.84289337330E+02  0.00000000000E+00 0.  1.
</event>
<event>
12    1  0.8251070E-002  0.2115872E+03  0.7818608E-02  0.1140433E+00
         21   -1    0    0  501  502  0.00000000000E+00  0.00000000000E+00  0.37366617533E+02  0.37366617533E+02  0.00000000000E+00 0. -1.
         21   -1    0    0  502  503 -0.00000000000E+00 -0.00000000000E+00 -0.13435001042E+04  0.13435001042E+04  0.00000000000E+00 0. -1.
         -6    2    1    2    0  503  0.89644727451E+02 -0.83599229226E+02 -0.88201252127E+03  0.90689652777E+03  0.17172715599E+03 0.  0.
        -24    2    3    3    0    0  0.46492169596E+02 -0.55365274301E+02 -0.24234652434E+03  0.26513802405E+03  0.79620967744E+02 0.  0.
          6    2    1    2  501    0 -0.89644727451E+02  0.83599229226E+02 -0.42412096543E+03  0.47397019400E+03  0.17246490425E+03 0.  0.
         24    2    5    5    0    0 -0.63380379886E+01 -0.62384577427E+01 -0.23278663939E+03  0.24672202827E+03  0.81259157470E+02 0.  0.
          5    1    5    5  501    0 -0.83306689463E+02  0.89837686969E+02 -0.19133432603E+03  0.22724816573E+03  0.47000000000E+01 0. -1.
        -11    1    6    6    0    0  0.16623424101E+02 -0.29851138129E+02 -0.47392410592E+02  0.58424902723E+02  0.00000000000E+00 0.  1.
         12    1    6    6    0    0 -0.22961462089E+02  0.23612680386E+02 -0.18539422880E+03  0.18829712555E+03  0.00000000000E+00 0. -1.
         -5    1    3    3    0  503  0.43152557855E+02 -0.28233954925E+02 -0.63966599693E+03  0.64175850372E+03  0.47000000000E+01 0.  1.
         13    1    4    4    0    0  0.68427812701E+02 -0.43216398062E+02 -0.16410730531E+03  0.18297876999E+03  0.00000000000E+00 0. -1.
        -14    1    4    4    0    0 -0.21935643105E+02 -0.12148876239E+02 -0.78239219031E+02  0.82159254056E+02  0.00000000000E+00 0.  1.
</event>
<event>
12    1  0.8251070E-002  0.1946805E+03  0.7818608E-02  0.1154816E+00
         21   -1    0    0  501  502  0.00000000000E+00  0.00000000000E+00  0.31340598080E+03  0.31340598080E+03  0.00000000000E+00 0.  1.
         21   -1    0    0  502  503 -0.00000000000E+00 -0.00000000000E+00 -0.22473502183E+03  0.22473502183E+03  0.00000000000E+00 0.  1.
         -6    2    1    2    0  503 -0.93635046945E+02 -0.74154410899E+01 -0.13965054259E+03  0.23958872186E+03  0.17052264018E+03 0.  0.
        -24    2    3    3    0    0 -0.32472908607E+02  0.53288197866E+02 -0.11103666652E+03  0.14866797146E+03  0.76674002123E+02 0.  0.
          6    2    1    2  501    0  0.93635046945E+02  0.74154410899E+01  0.22832150157E+03  0.29855228077E+03  0.16786972775E+03 0.  0.
         24    2    5    5    0    0  0.61368856115E+00  0.38596771596E+02  0.69055573696E+02  0.11143473946E+03  0.78478923973E+02 0.  0.
          5    1    5    5  501    0  0.93021358384E+02 -0.31181330506E+02  0.15926592787E+03  0.18711754132E+03  0.47000000000E+01 0. -1.
        -11    1    6    6    0    0 -0.79444352196E+01 -0.22463745240E+02  0.93165379540E+01  0.25583818726E+02  0.00000000000E+00 0.  1.
         12    1    6    6    0    0  0.85581237807E+01  0.61060516835E+02  0.59739035742E+02  0.85850920730E+02  0.00000000000E+00 0. -1.
         -5    1    3    3    0  503 -0.61162138338E+02 -0.60703638956E+02 -0.28613876070E+02  0.90920750394E+02  0.47000000000E+01 0.  1.
         11    1    4    4    0    0  0.54629515038E+00 -0.11610083405E+02  0.41960644183E+01  0.12357161149E+02  0.00000000000E+00 0. -1.
        -12    1    4    4    0    0 -0.33019203757E+02  0.64898281271E+02 -0.11523273094E+03  0.13631081032E+03  0.00000000000E+00 0.  1.
</event>
<event>
12    1  0.8251070E-002  0.1779669E+03  0.7818608E-02  0.1169820E+00
         21   -1    0    0  501  502  0.00000000000E+00  0.00000000000E+00  0.97007820550E+03  0.97007820550E+03  0.00000000000E+00 0. -1.
         21   -1    0    0  502  503 -0.00000000000E+00 -0.00000000000E+00 -0.33302588146E+02  0.33302588146E+02  0.00000000000E+00 0. -1.
         -6    2    1    2    0  503  0.17698978444E+02  0.45582742480E+02  0.39655254829E+03  0.43459859138E+03  0.17097067533E+03 0.  0.
        -24    2    3    3    0    0  0.58428205289E+02 -0.16896113918E+02  0.19010820281E+03  0.21504487313E+03  0.80023964195E+02 0.  0.
          6    2    1    2  501    0 -0.17698978444E+02 -0.45582742480E+02  0.54022306906E+03  0.56878220226E+03  0.17111747140E+03 0.  0.
         24    2    5    5    0    0 -0.48400916483E+02  0.21531721660E+02  0.41968152655E+03  0.42736327225E+03  0.60831891182E+02 0.  0.
          5    1    5    5  501    0  0.30701938038E+02 -0.67114464140E+02  0.12054154251E+03  0.14141893002E+03  0.47000000000E+01 0. -1.
        -11    1    6    6    0    0 -0.42417900776E+02  0.41667858826E+02  0.29646016201E+03  0.30236421155E+03  0.00000000000E+00 0.  1.
         12    1    6    6    0    0 -0.59830157065E+01 -0.20136137166E+02  0.12322136454E+03  0.12499906070E+03  0.00000000000E+00 0. -1.
         -5    1    3    3    0  503 -0.40729226845E+02  0.62478856398E+02  0.20644434548E+03  0.21955371825E+03  0.47000000000E+01 0.  1.
         11    1    4    4    0    0  0.66557059735E+02  0.95279819796E+01  0.16301474522E+03  0.17633613300E+03  0.00000000000E+00 0. -1.
        -12    1    4    4    0    0 -0.81288544463E+01 -0.26424095898E+02  0.27093457592E+02  0.38708740136E+02  0.00000000000E+00 0.  1.
</event>
<event>
12    1  0.8251070E-002  0.1906880E+03  0.7818608E-02  0.1158845E+00
         21   -1    0    0  501  502  0.00000000000E+00  0.00000000000E+00  0.18956255034E+03  0.18956255034E+03  0.00000000000E+00 0. -1.
         21   -1    0    0  502  503 -0.00000000000E+00 -0.00000000000E+00 -0.28449896327E+03  0.28449896327E+03  0.00000000000E+00 0. -1.
         -6    2    1    2    0  503 -0.11689941262E+02 -0.79455337911E+02 -0.18556693929E+03  0.26293164942E+03  0.16807188302E+03 0.  0.
        -24    2    3    3    0    0 -0.40051667926E+02 -0.80877262987E+02 -0.59494095227E+02  0.13361474635E+03  0.78537158740E+02 0.  0.
          6    2    1    2  501    0  0.11689941262E+02  0.79455337911E+02  0.90630526360E+02  0.21112986419E+03  0.17295121218E+03 0.  0.
         24    2    5    5    0    0  0.71912153148E+02  0.64633472120E+02  0.43140122408E+02  0.13287495394E+03  0.80285987170E+02 0.  0.
          5    1    5    5  501    0 -0.60222211886E+02  0.14821865791E+02  0.47490403953E+02  0.78254910245E+02  0.47000000000E+01 0. -1.
        -11    1    6    6    0    0  0.42732298621E+02  0.56584694970E+02  0.64478457019E+02  0.95840223653E+02  0.00000000000E+00 0.  1.
         12    1    6    6    0    0  0.29179854527E+02  0.80487771497E+01 -0.21338334611E+02  0.37034730292E+02  0.00000000000E+00 0. -1.
         -5    1    3    3    0  503  0.28361726664E+02  0.14219250762E+01 -0.12607284406E+03  0.12931690307E+03  0.47000000000E+01 0.  1.
         13    1    4    4    0    0  0.11035737429E+02 -0.64652131144E+02 -0.38470343994E+02  0.76037181228E+02  0.00000000000E+00 0. -1.
        -14    1    4    4    0    0 -0.51087405356E+02 -0.16225131843E+02 -0.21023751234E+02  0.57577565121E+02  0.00000000000E+00 0.  1.
</event>
<event>
12    1  0.8251070E-002  0.1843566E+03  0.7818608E-02  0.1165472E+00
         21   -1    0    0  503  502  0.00000000000E+00  0.00000000000E+00  0.51630801115E+03  0.51630801115E+03  0.00000000000E+00 0.  1.
         21   -1    0    0  501  503 -0.00000000000E+00 -0.00000000000E+00 -0.14005294343E+03  0.14005294343E+03  0.00000000000E+00 0.  1.
          6    2    1    2  501    0 -0.11735216104E+02  0.46232169078E+02 -0.56821166780E+02  0.18567806965E+03  0.17021331264E+03 0.  0.
         24    2    3    3    0    0  0.57584257396E+02  0.17649884898E+02 -0.32065342395E+02  0.10657638056E+03  0.81871078987E+02 0.  0.
         -6    2    1    2    0  502  0.11735216104E+02 -0.46232169078E+02  0.43307623450E+03  0.47068288493E+03  0.17807926472E+03 0.  0.
        -24    2    5    5    0    0 -0.29512785749E+02 -0.68006300037E+02  0.15891825247E+03  0.19254586915E+03  0.79517541408E+02 0.  0.
          5    1    3    3  501    0 -0.69319473500E+02  0.28582284181E+02 -0.24755824384E+02  0.79101689086E+02  0.47000000000E+01 0. -1.
        -11    1    4    4    0    0 -0.17879355813E+02  0.16915598210E+02 -0.86528132801E-01  0.24613336105E+02  0.00000000000E+00 0.  1.
         12    1    4    4    0    0  0.75463613208E+02  0.73428668739E+00 -0.31978814263E+02  0.81963044459E+02  0.00000000000E+00 0. -1.
         -5    1    5    5    0  502  0.41248001853E+02  0.21774130959E+02  0.27415798203E+03  0.27813701578E+03  0.47000000000E+01 0.  1.
         11    1    6    6    0    0 -0.78066944828E+00  0.34161180599E+01 -0.79977280334E+01  0.87317215417E+01  0.00000000000E+00 0. -1.
        -12    1    6    6    0    0 -0.28732116301E+02 -0.71422418097E+02  0.16691598050E+03  0.18381414761E+03  0.00000000000E+00 0.  1.
</event>
<event>
12    1  0.8251070E-002  0.1898037E+03  0.7818608E-02  0.1159361E+00
         21   -1    0    0  501  502  0.00000000000E+00  0.00000000000E+00  0.31160121098E+03  0.31160121098E+03  0.00000000000E+00 0. -1.
         21   -1    0    0  502  503 -0.00000000000E+00 -0.00000000000E+00 -0.18237208936E+03  0.18237208936E+03  0.00000000000E+00 0.  1.
         -6    2    1    2    0  503  0.53328075182E+02 -0.56296903010E+02 -0.86614039634E+02  0.20863230426E+03  0.17324035797E+03 0.  0.
        -24    2    3    3    0    0  0.13932653548E+02 -0.24258989538E+02  0.24404680379E+02  0.86461631271E+02  0.78085900451E+02 0.  0.
          6    2    1    2  501    0 -0.53328075182E+02  0.56296903010E+02  0.21584316125E+03  0.28534099608E+03  0.16975861950E+03 0.  0.
         24    2    5    5    0    0 -0.28575296788E+02  0.83880427699E+02  0.21709319655E+03  0.24796181122E+03  0.80641987193E+02 0.  0.
          5    1    5    5  501    0 -0.24752778395E+02 -0.27583524689E+02 -0.12500353012E+01  0.37379184860E+02  0.47000000000E+01 0. -1.
        -11    1    6    6    0    0  0.88321197592E+01  0.74425531126E+02  0.10200966631E+03  0.12658253451E+03  0.00000000000E+00 0.  1.
         12    1    6    6    0    0 -0.37407416547E+02  0.94548965732E+01  0.11508353024E+03  0.12137927671E+03  0.00000000000E+00 0. -1.
         -5    1    3    3    0  503  0.39395421634E+02 -0.32037913472E+02 -0.11101872001E+03  0.12217067299E+03  0.47000000000E+01 0.  1.
         11    1    4    4    0    0 -0.26308665463E+02  0.10753228621E+02  0.16469756245E+01  0.28469111909E+02  0.00000000000E+00 0. -1.
        -12    1    4    4    0    0  0.40241319011E+02 -0.35012218160E+02  0.22757704755E+02  0.57992519361E+02  0.00000000000E+00 0.  1.
</event>
<event>
12    1  0.8251070E-002  0.1955109E+03  0.7818608E-02  0.1155118E+00
         21   -1    0    0  501  502  0.00000000000E+00  0.00000000000E+00  0.22531856739E+03  0.22531856739E+03  0.00000000000E+00 0. -1.
         21   -1    0    0  502  503 -0.00000000000E+00 -0.00000000000E+00 -0.20676864466E+03  0.20676864466E+03  0.00000000000E+00 0. -1.
         -6    2    1    2    0  503  0.67502448040E+02  0.58216015851E+02 -0.89463303776E+02  0.20872342131E+03  0.16618092216E+03 0.  0.
        -24    2    3    3    0    0  0.26573826238E+01  0.79949372425E+02 -0.84843282314E+02  0.14001639187E+03  0.77506410085E+02 0.  0.
          6    2    1    2  501    0 -0.67502448040E+02 -0.58216015851E+02  0.10801322650E+03  0.22336379073E+03  0.17400816337E+03 0.  0.
         24    2    5    5    0    0 -0.90063550218E+02 -0.41372861825E+02  0.17892452883E+02  0.12883052142E+03  0.80336832193E+02 0.  0.
          5    1    5    5  501    0  0.22561102178E+02 -0.16843154026E+02  0.90120773618E+02  0.94533269310E+02  0.47000000000E+01 0. -1.
        -11    1    6    6    0    0 -0.70747902353E+02 -0.63385603896E+02  0.25923912859E+02  0.98463443605E+02  0.00000000000E+00 0.  1.
         12    1    6    6    0    0 -0.19315647865E+02  0.22012742071E+02 -0.80314599768E+01  0.30367077819E+02  0.00000000000E+00 0. -1.
         -5    1    3    3    0  503  0.64845065416E+02 -0.21733356574E+02 -0.46200214614E+01  0.68707029445E+02  0.47000000000E+01 0.  1.
         11    1    4    4    0    0  0.24987379604E+02  0.88964349381E+01 -0.52495692769E+02  0.58815928569E+02  0.00000000000E+00 0. -1.
        -12    1    4    4    0    0 -0.22329996980E+02  0.71052937487E+02 -0.32347589545E+02  0.81200463299E+02  0.00000000000E+00 0.  1.
</event>
<event>
12    1  0.8251070E-002  0.2095158E+03  0.7818608E-02  0.1142189E+00
         21   -1    0    0  503  502  0.00000000000E+00  0.00000000000E+00  0.17951255896E+02  0.17951255896E+02  0.00000000000E+00 0.  1.
         21   -1    0    0  501  503 -0.00000000000E+00 -0.00000000000E+00 -0.24322410842E+04  0.24322410842E+04  0.00000000000E+00 0.  1.
          6    2    1    2  501    0 -0.76730048918E+02 -0.90149966116E+02 -0.12273991761E+04  0.12449511707E+04  0.17140642638E+03 0.  0.
         24    2    3    3    0    0 -0.11668428856E+03 -0.50513757312E+02 -0.83517774441E+03  0.84868470500E+03  0.81098710718E+02 0.  0.
         -6    2    1    2    0  502  0.76730048918E+02  0.90149966116E+02 -0.11868906522E+04  0.12052411694E+04  0.17286509031E+03 0.  0.
        -24    2    5    5    0    0  0.16890792894E+02  0.75587892045E+02 -0.10394377364E+04  0.10453748411E+04  0.79868155256E+02 0.  0.
          5    1    3    3  501    0  0.39954239642E+02 -0.39636208805E+02 -0.39222143172E+03  0.39626646567E+03  0.47000000000E+01 0. -1.
        -11    1    4    4    0    0 -0.11354543487E+03 -0.47768181822E+02 -0.83547166735E+03  0.84450415744E+03  0.00000000000E+00 0.  1.
         12    1    4    4    0    0 -0.31388536896E+01 -0.27455754892E+01  0.29392294934E+00  0.41805475660E+01  0.00000000000E+00 0. -1.
         -5    1    5    5    0  502  0.59839256024E+02  0.14562074071E+02 -0.14745291576E+03  0.15986632832E+03  0.47000000000E+01 0.  1.
         11    1    6    6    0    0 -0.26039206147E+02  0.40500253777E+01 -0.18385780127E+03  0.18573673317E+03  0.00000000000E+00 0. -1.
        -12    1    6    6    0    0  0.42929999041E+02  0.71537866667E+02 -0.85557993513E+03  0.85963810792E+03  0.00000000000E+00 0.  1.
</event>
<event>
12    1  0.8251070E-002  0.2265440E+03  0.7818608E-02  0.1129322E+00
         21   -1    0    0  503  502  0.00000000000E+00  0.00000000000E+00  0.14937422004E+04  0.14937422004E+04  0.00000000000E+00 0.  1.
         21   -1    0    0  501  503 -0.00000000000E+00 -0.00000000000E+00 -0.46730134487E+02  0.46730134487E+02  0.00000000000E+00 0.  1.
          6    2    1    2  501    0  0.12063026329E+03 -0.75870959989E+02  0.32562680469E+03  0.39667996418E+03  0.17610824812E+03 0.  0.
         24    2    3    3    0    0  0.86620178913E+02 -0.84673446235E+02  0.33000236346E+03  0.36096714970E+03  0.81994361884E+02 0.  0.
         -6    2    1    2    0  502 -0.12063026329E+03  0.75870959989E+02  0.11213852612E+04  0.11437923707E+04  0.17449361081E+03 0.  0.
        -24    2    5    5    0    0 -0.44099978442E+02  0.85143810131E+02  0.41809812177E+03  0.43627716892E+03  0.79608116341E+02 0.  0.
          5    1    3    3  501    0  0.34010084377E+02  0.88024862461E+01 -0.43755587702E+01  0.35712814479E+02  0.47000000000E+01 0. -1.
        -13    1    4    4    0    0  0.67147736056E+02 -0.88675007362E+01  0.14210334151E+03  0.15741921958E+03  0.00000000000E+00 0.  1.
         14    1    4    4    0    0  0.19472442858E+02 -0.75805945499E+02  0.18789902195E+03  0.20354793011E+03  0.00000000000E+00 0. -1.
         -5    1    5    5    0  502 -0.76530284848E+02 -0.92728501421E+01  0.70328713946E+03  0.70751520180E+03  0.47000000000E+01 0.  1.
         13    1    6    6    0    0 -0.50017531871E+02  0.92923685802E+02  0.41063703182E+03  0.42398034952E+03  0.00000000000E+00 0. -1.
        -14    1    6    6    0    0  0.59175534287E+01 -0.77798756714E+01  0.74610899548E+01  0.12296819400E+02  0.00000000000E+00 0.  1.
</event>
<event>
12    1  0.8251070E-002  0.2010846E+03  0.7818608E-02  0.1149032E+00
         21   -1    0    0  501  502  0.00000000000E+00  0.00000000000E+00  0.12276055629E+03  0.12276055629E+03  0.00000000000E+00 0.  1.
         21   -1    0    0  502  503 -0.00000000000E+00 -0.00000000000E+00 -0.33116922847E+03  0.33116922847E+03  0.00000000000E+00 0. -1.
         -6    2    1    2    0  503 -0.16183240741E+02  0.10224333381E+03 -0.81502519267E+02  0.21697395165E+03  0.17239326686E+03 0.  0.
        -24    2    3    3    0    0 -0.10776568552E+02  0.39337305603E+02 -0.11408631211E+03  0.14576865659E+03  0.81050950583E+02 0.  0.
          6    2    1    2  501    0  0.16183240741E+02 -0.10224333381E+03 -0.12690615292E+03  0.23695583311E+03  0.17125214921E+03 0.  0.
         24    2    5    5    0    0  0.52694158409E+02 -0.33543690381E+02 -0.20197985475E+02  0.10481420033E+03  0.81708044148E+02 0.  0.
          5    1    5    5  501    0 -0.36510917668E+02 -0.68699643429E+02 -0.10670816744E+03  0.13214163278E+03  0.47000000000E+01 0. -1.
        -11    1    6    6    0    0 -0.14068929066E+02  0.22093991517E+01  0.15534111610E+02  0.21074269458E+02  0.00000000000E+00 0.  1.
         12    1    6    6    0    0  0.66763087475E+02 -0.35753089532E+02 -0.35732097085E+02  0.83739930871E+02  0.00000000000E+00 0. -1.
         -5    1    3    3    0  503 -0.54066721887E+01  0.62906028207E+02  0.32583792845E+02  0.71205295063E+02  0.47000000000E+01 0.  1.
         11    1    4    4    0    0 -0.42057080556E+02  0.41106859807E+02 -0.82145323167E+02  0.10102685814E+03  0.00000000000E+00 0. -1.
        -12    1    4    4    0    0  0.31280512004E+02 -0.17695542040E+01 -0.31940988945E+02  0.44741798445E+02  0.00000000000E+00 0.  1.
</event>
<event>
12    1  0.8251070E-002  0.1816410E+03  0.7818608E-02  0.1166495E+00
         21   -1    0    0  501  502  0.00000000000E+00  0.00000000000E+00  0.28053926594E+03  0.28053926594E+03  0.00000000000E+00 0. -1.
         21   -1    0    0  502  503 -0.00000000000E+00 -0.00000000000E+00 -0.12309861775E+03  0.12309861775E+03  0.00000000000E+00 0. -1.
         -6    2    1    2    0  503  0.59799143185E+02  0.15255296417E+01  0.33121849483E+02  0.18352740948E+03  0.17031438093E+03 0.  0.
        -24    2    3    3    0    0  0.19543771925E+02  0.10024456829E+02 -0.46047741636E+02  0.94181783754E+02  0.79166692022E+02 0.  0.
          6    2    1    2  501    0 -0.59799143185E+02 -0.15255296417E+01  0.12431879870E+03  0.22011047421E+03  0.17150857815E+03 0.  0.
         24    2    5    5    0    0 -0.36440585651E+02 -0.20220074548E+02 -0.32643450705E+01  0.88982076084E+02  0.78551805951E+02 0.  0.
          5    1    5    5  501    0 -0.23358557534E+02  0.18694544907E+02  0.12758314377E+03  0.13112839812E+03  0.47000000000E+01 0. -1.
        -11    1    6    6    0    0  0.11889174027E+02 -0.34152088147E+02  0.88847354191E+01  0.37237831668E+02  0.00000000000E+00 0.  1.
         12    1    6    6    0    0 -0.48329759678E+02  0.13932013598E+02 -0.12149080490E+02  0.51744244416E+02  0.00000000000E+00 0. -1.
         -5    1    3    3    0  503  0.40255371260E+02 -0.84989271874E+01  0.79169591119E+02  0.89345625727E+02  0.47000000000E+01 0.  1.
         11    1    4    4    0    0  0.59644329726E+00 -0.33452829351E+02 -0.11033947116E+02  0.35230604951E+02  0.00000000000E+00 0. -1.
        -12    1    4    4    0    0  0.18947328628E+02  0.43477286180E+02 -0.35013794519E+02  0.58951178804E+02  0.00000000000E+00 0.  1.
</event>
<event>
12    1  0.8251070E-002  0.2492886E+03  0.7818608E-02  0.1113764E+00
         21   -1    0    0  503  502  0.00000000000E+00  0.00000000000E+00  0.10296289239E+04  0.10296289239E+04  0.00000000000E+00 0. -1.
         21   -1    0    0  501  503 -0.00000000000E+00 -0.00000000000E+00 -0.67570315686E+02  0.67570315686E+02  0.00000000000E+00 0.  1.
          6    2    1    2  501    0 -0.34313935699E+02  0.17803183426E+03  0.30165558468E+03  0.39133218011E+03  0.17109062870E+03 0.  0.
         24    2    3    3    0    0  0.78054181043E+01  0.35334053242E+02  0.16977917937E+03  0.19245992727E+03  0.83104957660E+02 0.  0.
         -6    2    1    2    0  502  0.34313935699E+02 -0.17803183426E+03  0.66040302355E+03  0.70586705948E+03  0.17100693541E+03 0.  0.
        -24    2    5    5    0    0  0.16280901243E+02 -0.13393164455E+03  0.62950983798E+03  0.64888902881E+03  0.81065297418E+02 0.  0.
          5    1    3    3  501    0 -0.42119353803E+02  0.14269778102E+03  0.13187640531E+03  0.19887225284E+03  0.47000000000E+01 0. -1.
        -13    1    4    4    0    0  0.65143215307E+01 -0.24496121547E+02  0.24133524981E+02  0.34998905467E+02  0.00000000000E+00 0.  1.
         14    1    4    4    0    0  0.12910965736E+01  0.59830174789E+02  0.14564565439E+03  0.15746102181E+03  0.00000000000E+00 0. -1.
         -5    1    5    5    0  502  0.18033034456E+02 -0.44100189717E+02  0.30893185573E+02  0.56978030675E+02  0.47000000000E+01 0.  1.
         13    1    6    6    0    0 -0.21949025075E+02 -0.10759928648E+03  0.47661377873E+03  0.48910127809E+03  0.00000000000E+00 0. -1.
        -14    1    6    6    0    0  0.38229926318E+02 -0.26332358067E+02  0.15289605924E+03  0.15978775072E+03  0.00000000000E+00 0.  1.
</event>
<event>
12    1  0.8251070E-002  0.1735955E+03  0.7818608E-02  0.1174241E+00
         21   -1    0    0  501  502  0.00000000000E+00  0.00000000000E+00  0.87191591935E+02  0.87191591935E+02  0.00000000000E+00 0.  1.
         21   -1    0    0  502  503 -0.00000000000E+00 -0.00000000000E+00 -0.36333179293E+03  0.36333179293E+03  0.00000000000E+00 0.  1.
         -6    2    1    2    0  503  0.55027773188E+01 -0.16151706076E+02 -0.18866322785E+03  0.25613304560E+03  0.17239247471E+03 0.  0.
        -24    2    3    3    0    0 -0.13945081974E+02  0.85974464471E+01 -0.19973699159E+02  0.84467711673E+02  0.80420546259E+02 0.  0.
          6    2    1    2  501    0 -0.55027773188E+01  0.16151706076E+02 -0.87476973137E+02  0.19439033926E+03  0.17275481180E+03 0.  0.
         24    2    5    5    0    0 -0.23656487786E+02 -0.17695222192E+02 -0.11773461975E+03  0.14527021166E+03  0.79807539787E+02 0.  0.
          5    1    5    5  501    0  0.18153710467E+02  0.33846928268E+02  0.30257646609E+02  0.49120127598E+02  0.47000000000E+01 0. -1.
        -11    1    6    6    0    0 -0.36455660029E+02  0.20498922525E+02 -0.78992268721E+02  0.89381203228E+02  0.00000000000E+00 0.  1.
         12    1    6    6    0    0  0.12799172243E+02 -0.38194144717E+02 -0.38742351025E+02  0.55889008434E+02  0.00000000000E+00 0. -1.
         -5    1    3    3    0  503  0.19447859292E+02 -0.24749152523E+02 -0.16868952869E+03  0.17166533393E+03  0.47000000000E+01 0.  1.
         13    1    4    4    0    0 -0.12151119628E+02  0.36838077574E+02 -0.35159030303E+02  0.52353138200E+02  0.00000000000E+00 0. -1.
        -14    1    4    4    0    0 -0.17939623456E+01 -0.28240631127E+02  0.15185331145E+02  0.32114573472E+02  0.00000000000E+00 0.  1.
</event>
<event>
12    1  0.8251070E-002  0.1793413E+03  0.7818608E-02  0.1168535E+00
         21   -1    0    0  503  502  0.00000000000E+00  0.00000000000E+00  0.53985473452E+03  0.53985473452E+03  0.00000000000E+00 0. -1.
         21   -1    0    0  501  503 -0.00000000000E+00 -0.00000000000E+00 -0.88317780581E+02  0.88317780581E+02  0.00000000000E+00 0. -1.
          6    2    1    2  501    0 -0.78386590413E+01 -0.49537155673E+02  0.40549528451E+03  0.44338441476E+03  0.17218576922E+03 0.  0.
         24    2    3    3    0    0 -0.14960064753E+02 -0.95619776510E+02  0.25799036301E+03  0.28861324746E+03  0.85858220352E+02 0.  0.
         -6    2    1    2    0  502  0.78386590413E+01  0.49537155673E+02  0.46041669430E+02  0.18478810034E+03  0.17178891797E+03 0.  0.
        -24    2    5    5    0    0 -0.30210225036E+02  0.86722658299E+02  0.47441280816E+02  0.13136031640E+03  0.81064051465E+02 0.  0.
          5    1    3    3  501    0  0.71214057118E+01  0.46082620836E+02  0.14750492150E+03  0.15477116730E+03  0.47000000000E+01 0. -1.
        -11    1    4    4    0    0  0.35928152233E+02 -0.34048782142E+02  0.98757341644E+02  0.11046793298E+03  0.00000000000E+00 0.  1.
         12    1    4    4    0    0 -0.50888216986E+02 -0.61570994368E+02  0.15923302137E+03  0.17814531448E+03  0.00000000000E+00 0. -1.
         -5    1    5    5    0  502  0.38048884078E+02 -0.37185502626E+02 -0.13996113864E+01  0.53427783943E+02  0.47000000000E+01 0.  1.
         13    1    6    6    0    0 -0.18868021653E+02 -0.68799933266E+01 -0.84095250480E+01  0.21772842277E+02  0.00000000000E+00 0. -1.
        -14    1    6    6    0    0 -0.11342203383E+02  0.93602651626E+02  0.55850805864E+02  0.10958747412E+03  0.00000000000E+00 0.  1.
</event>
<event>
12    1  0.8251070E-002  0.2285999E+03  0.7818608E-02  0.1127672E+00
         21   -1    0    0  503  502  0.00000000000E+00  0.00000000000E+00  0.33137059906E+02  0.33137059906E+02  0.00000000000E+00 0.  1.
         21   -1    0    0  501  503 -0.00000000000E+00 -0.00000000000E+00 -0.15756324809E+04  0.15756324809E+04  0.00000000000E+00 0.  1.
          6    2    1    2  501    0  0.94293175589E+02  0.11732262864E+03 -0.78248337614E+03  0.81519208348E+03  0.17205259920E+03 0.  0.
         24    2    3    3    0    0  0.60587604522E+02  0.13197872488E+03 -0.74284584835E+03  0.76093261162E+03  0.78161649006E+02 0.  0.
         -6    2    1    2    0  502 -0.94293175589E+02 -0.11732262864E+03 -0.76001204489E+03  0.79357745736E+03  0.17172964301E+03 0.  0.
        -24    2    5    5    0    0 -0.11492801241E+03 -0.39887365066E+02 -0.49174124587E+03  0.51355365811E+03  0.84430189743E+02 0.  0.
          5    1    3    3  501    0  0.33705571067E+02 -0.14656096234E+02 -0.39637527785E+02  0.54259471862E+02  0.47000000000E+01 0. -1.
        -11    1    4    4    0    0  0.11323541352E+02  0.25398599091E+02 -0.34508968214E+03  0.34620831900E+03  0.00000000000E+00 0.  1.
         12    1    4    4    0    0  0.49264063170E+02  0.10658012579E+03 -0.39775616621E+03  0.41472429262E+03  0.00000000000E+00 0. -1.
         -5    1    5    5    0  502  0.20634836823E+02 -0.77435263579E+02 -0.26827079902E+03  0.28002379925E+03  0.47000000000E+01 0.  1.
         13    1    6    6    0    0  0.20202132272E+01  0.13832674288E+02 -0.18880965509E+02  0.23492871216E+02  0.00000000000E+00 0. -1.
        -14    1    6    6    0    0 -0.11694822564E+03 -0.53720039353E+02 -0.47286028036E+03  0.49006078690E+03  0.00000000000E+00 0.  1.
</event>
<event>
12    1  0.8251070E-002  0.1892387E+03  0.7818608E-02  0.1159559E+00
         21   -1    0    0  501  502  0.00000000000E+00  0.00000000000E+00  0.66095551585E+03  0.66095551585E+03  0.00000000000E+00 0. -1.
         21   -1    0    0  502  503 -0.00000000000E+00 -0.00000000000E+00 -0.16057243850E+03  0.16057243850E+03  0.00000000000E+00 0. -1.
         -6    2    1    2    0  503  0.79277961015E+02  0.12783121962E+02 -0.84570057036E+02  0.20727613994E+03  0.17135606301E+03 0.  0.
        -24    2    3    3    0    0  0.94235177107E+02 -0.32692554208E+02 -0.91741651197E+02  0.15864202435E+03  0.82472356697E+02 0.  0.
          6    2    1    2  501    0 -0.79277961015E+02 -0.12783121962E+02  0.58495313439E+03  0.61425181441E+03  0.16937154060E+03 0.  0.
         24    2    5    5    0    0 -0.96779981252E+02 -0.32115025537E+01  0.26394135129E+03  0.29258647357E+03  0.81025484105E+02 0.  0.
          5    1    5    5  501    0  0.17502020237E+02 -0.95716194088E+01  0.32101178310E+03  0.32166534084E+03  0.47000000000E+01 0. -1.
        -13    1    6    6    0    0  0.10824938900E+01 -0.17610470952E+02  0.10513612063E+02  0.20538659129E+02  0.00000000000E+00 0.  1.
         14    1    6    6    0    0 -0.97862475142E+02  0.14398968398E+02  0.25342773922E+03  0.27204781444E+03  0.00000000000E+00 0. -1.
         -5    1    3    3    0  503 -0.14957216091E+02  0.45475676170E+02  0.71715941609E+01  0.48634115589E+02  0.47000000000E+01 0.  1.
         13    1    4    4    0    0 -0.16836758338E+01 -0.12062046621E+02 -0.50953732907E+02  0.52389031583E+02  0.00000000000E+00 0. -1.
        -14    1    4    4    0    0  0.95918852941E+02 -0.20630507587E+02 -0.40787918290E+02  0.10625299276E+03  0.00000000000E+00 0.  1.
</event>
<event>
12    1  0.8251070E-002  0.2856052E+03  0.7818608E-02  0.1092696E+00
         21   -1    0    0  503  502  0.00000000000E+00  0.00000000000E+00  0.12695046423E+03  0.12695046423E+03  0.00000000000E+00 0.  1.
         21   -1    0    0  501  503 -0.00000000000E+00 -0.00000000000E+00 -0.75547466168E+03  0.75547466168E+03  0.00000000000E+00 0. -1.
          6    2    1    2  501    0  0.84280450256E+02  0.21209802417E+03 -0.14318301732E+03  0.31928538524E+03  0.17132721509E+03 0.  0.
         24    2    3    3    0    0 -0.28254696110E+01  0.16188663415E+03 -0.67042841311E+02  0.19307904085E+03  0.81052500568E+02 0.  0.
         -6    2    1    2    0  502 -0.84280450256E+02 -0.21209802417E+03 -0.48534118012E+03  0.56313974066E+03  0.17170189352E+03 0.  0.
        -24    2    5    5    0    0 -0.20755959917E+02 -0.17353043644E+02 -0.14696482355E+03  0.16756216673E+03  0.75805556274E+02 0.  0.
          5    1    3    3  501    0  0.87105919867E+02  0.50211390015E+02 -0.76140176011E+02  0.12620634440E+03  0.47000000000E+01 0. -1.
        -13    1    4    4    0    0  0.25753841279E+02  0.94534873496E+02 -0.69083869832E+02  0.11988612813E+03  0.00000000000E+00 0.  1.
         14    1    4    4    0    0 -0.28579310890E+02  0.67351760656E+02  0.20410285219E+01  0.73192912716E+02  0.00000000000E+00 0. -1.
         -5    1    5    5    0  502 -0.63524490339E+02 -0.19474498052E+03 -0.33837635657E+03  0.39557757393E+03  0.47000000000E+01 0.  1.
         11    1    6    6    0    0 -0.41989830694E+02  0.10926218159E+02 -0.97874548106E+02  0.10706052163E+03  0.00000000000E+00 0. -1.
        -12    1    6    6    0    0  0.21233870778E+02 -0.28279261803E+02 -0.49090275446E+02  0.60501645099E+02  0.00000000000E+00 0.  1.
</event>
<event>
12    1  0.8251070E-002  0.1828515E+03  0.7818608E-02  0.1165113E+00
         21   -1    0    0  503  502  0.00000000000E+00  0.00000000000E+00  0.10328434054E+04  0.10328434054E+04  0.00000000000E+00 0. -1.
         21   -1    0    0  501  503 -0.00000000000E+00 -0.00000000000E+00 -0.46955643614E+02  0.46955643614E+02  0.00000000000E+00 0. -1.
          6    2    1    2  501    0  0.52538908206E+01 -0.59925196687E+02  0.19156743134E+03  0.26470429740E+03  0.17248667121E+03 0.  0.
         24    2    3    3    0    0  0.20022111507E+02 -0.61989262140E+02  0.36372704469E+02  0.10872399750E+03  0.79084640936E+02 0.  0.
         -6    2    1    2    0  502 -0.52538908206E+01  0.59925196687E+02  0.79432033048E+03  0.81509475165E+03  0.17267320054E+03 0.  0.
        -24    2    5    5    0    0 -0.66306561129E+02  0.15827364555E+02  0.52029895163E+03  0.53087326510E+03  0.80426109011E+02 0.  0.
          5    1    3    3  501    0 -0.14768220687E+02  0.20640654526E+01  0.15519472687E+03  0.15598029990E+03  0.47000000000E+01 0. -1.
        -11    1    4    4    0    0  0.31189945095E+02  0.44551708334E+01 -0.12948896121E+01  0.31533124826E+02  0.00000000000E+00 0.  1.
         12    1    4    4    0    0 -0.11167833588E+02 -0.66444432973E+02  0.37667594081E+02  0.77190872673E+02  0.00000000000E+00 0. -1.
         -5    1    5    5    0  502  0.61052670308E+02  0.44097832133E+02  0.27402137885E+03  0.28422148655E+03  0.47000000000E+01 0.  1.
         13    1    6    6    0    0  0.26744516776E+01  0.28918713994E+02  0.82108920238E+02  0.87093739692E+02  0.00000000000E+00 0. -1.
        -14    1    6    6    0    0 -0.68981012807E+02 -0.13091349440E+02  0.43819003140E+03  0.44377952541E+03  0.00000000000E+00 0.  1.
</event>
<event>
12    1  0.8251070E-002  0.1800794E+03  0.7818608E-02  0.1168055E+00
         21   -1    0    0  503  502  0.00000000000E+00  0.00000000000E+00  0.37361447365E+03  0.37361447365E+03  0.00000000000E+00 0.  1.
         21   -1    0    0  501  503 -0.00000000000E+00 -0.00000000000E+00 -0.87405762248E+02  0.87405762248E+02  0.00000000000E+00 0.  1.
          6    2    1    2  501    0 -0.46094826007E+02 -0.23924660508E+02  0.11490241596E+03  0.21247557264E+03  0.17101514965E+03 0.  0.
         24    2    3    3    0    0 -0.18084801718E+02 -0.58399276399E+02  0.12669569345E+02  0.10091076848E+03  0.79277548337E+02 0.  0.
         -6    2    1    2    0  502  0.46094826007E+02  0.23924660508E+02  0.17130629544E+03  0.24854466326E+03  0.17242818914E+03 0.  0.
        -24    2    5    5    0    0  0.19304295196E+02  0.42688239297E+02  0.20847154998E+02  0.94499710812E+02  0.79376633116E+02 0.  0.
          5    1    3    3  501    0 -0.28010024289E+02  0.34474615890E+02  0.10223284661E+03  0.11156480416E+03  0.47000000000E+01 0. -1.
        -11    1    4    4    0    0 -0.28247546771E+02 -0.75174212148E+02  0.76787295389E+01  0.80672479558E+02  0.00000000000E+00 0.  1.
         12    1    4    4    0    0  0.10162745053E+02  0.16774935750E+02  0.49908398065E+01  0.20238288920E+02  0.00000000000E+00 0. -1.
         -5    1    5    5    0  502  0.26790530811E+02 -0.18763578788E+02  0.15045914045E+03  0.15404495244E+03  0.47000000000E+01 0.  1.
         13    1    6    6    0    0 -0.27215649290E+02  0.28683811778E+02 -0.43375138541E+01  0.39777715506E+02  0.00000000000E+00 0. -1.
        -14    1    6    6    0    0  0.46519944486E+02  0.14004427519E+02  0.25184668852E+02  0.54721995306E+02  0.00000000000E+00 0.  1.
</event>
<event>
12    1  0.8251070E-002  0.1811270E+03  0.7818608E-02  0.1166784E+00
         21   -1    0    0  503  502  0.00000000000E+00  0.00000000000E+00  0.61535415315E+03  0.61535415315E+03  0.00000000000E+00 0. -1.
         21   -1    0    0  501  503 -0.00000000000E+00 -0.00000000000E+00 -0.18039842525E+03  0.18039842525E+03  0.00000000000E+00 0. -1.
          6    2    1    2  501    0 -0.24206907512E+02 -0.48287330798E+02 -0.11662694880E+03  0.21519212050E+03  0.17259247624E+03 0.  0.
         24    2    3    3    0    0 -0.47500720318E+02 -0.15757942020E+02 -0.21210706400E+01  0.93806581898E+02  0.79312954170E+02 0.  0.
         -6    2    1    2    0  502  0.24206907512E+02  0.48287330798E+02  0.55158267670E+03  0.58056045790E+03  0.17288538216E+03 0.  0.
        -24    2    5    5    0    0 -0.28496686797E+02  0.70837221707E+02  0.25673590184E+03  0.28015593551E+03  0.82122175868E+02 0.  0.
          5    1    3    3  501    0  0.23293812806E+02 -0.32529388779E+02 -0.11450587816E+03  0.12138553860E+03  0.47000000000E+01 0. -1.
        -11    1    4    4    0    0 -0.75722774217E+01 -0.42357345035E+02  0.10306469639E+02  0.44245987165E+02  0.00000000000E+00 0.  1.
         12    1    4    4    0    0 -0.39928442897E+02  0.26599403015E+02 -0.12427540279E+02  0.49560594733E+02  0.00000000000E+00 0. -1.
         -5    1    5    5    0  502  0.52703594309E+02 -0.22549890909E+02  0.29484677486E+03  0.30040452240E+03  0.47000000000E+01 0.  1.
         13    1    6    6    0    0  0.26498985912E+02  0.41707852271E+02  0.10081106422E+03  0.11227026260E+03  0.00000000000E+00 0. -1.
        -14    1    6    6    0    0 -0.54995672709E+02  0.29129369436E+02  0.15592483762E+03  0.16788567291E+03  0.00000000000E+00 0.  1.
</event>
<event>
12    1  0.8251070E-002  0.1968080E+03  0.7818608E-02  0.1152812E+00
         21   -1    0    0  501  502  0.00000000000E+00  0.00000000000E+00  0.33656254079E+03  0.33656254079E+03  0.00000000000E+00 0. -1.
         21   -1    0    0  502  503 -0.00000000000E+00 -0.00000000000E+00 -0.11460288096E+03  0.11460288096E+03  0.00000000000E+00 0. -1.
         -6    2    1    2    0  503 -0.92295019462E+02  0.96712729349E+01  0.12490429312E+03  0.23172722876E+03  0.17171057618E+03 0.  0.
        -24    2    3    3    0    0 -0.52603769283E+02  0.58574049482E+02  0.12434091328E+03  0.16856644748E+03  0.82194334877E+02 0.  0.
          6    2    1    2  501    0  0.92295019462E+02 -0.96712729349E+01  0.97055366711E+02  0.21943819299E+03  0.17355538654E+03 0.  0.
         24    2    5    5    0    0  0.14773684231E+02 -0.17813303692E+02 -0.12996950559E+02  0.84495788176E+02  0.80218713287E+02 0.  0.
          5    1    5    5  501    0  0.77521335232E+02  0.81420307573E+01  0.11005231727E+03  0.13494240482E+03  0.47000000000E+01 0. -1.
        -13    1    6    6    0    0  0.89086325445E+01 -0.19977545554E+02  0.32167866277E+02  0.38900355795E+02  0.00000000000E+00 0.  1.
         14    1    6    6    0    0  0.58650516861E+01  0.21642418619E+01 -0.45164816836E+02  0.45595432380E+02  0.00000000000E+00 0. -1.
         -5    1    3    3    0  503 -0.39691250179E+02 -0.48902776547E+02  0.56337983973E+00  0.63160781278E+02  0.47000000000E+01 0.  1.
         13    1    4    4    0    0 -0.34569495975E+02  0.38752130075E+01  0.10028964709E+03  0.10615121592E+03  0.00000000000E+00 0. -1.
        -14    1    4    4    0    0 -0.18034273308E+02  0.54698836474E+02  0.24051266187E+02  0.62415231559E+02  0.00000000000E+00 0.  1.
</event>
<event>
12    1  0.8251070E-002  0.1824988E+03  0.7818608E-02  0.1166189E+00
         21   -1    0    0  501  502  0.00000000000E+00  0.00000000000E+00  0.11344679631E+03  0.11344679631E+03  0.00000000000E+00 0. -1.
         21   -1    0    0  502  503 -0.00000000000E+00 -0.00000000000E+00 -0.29263727064E+03  0.29263727064E+03  0.00000000000E+00 0.  1.
         -6    2    1    2    0  503 -0.14867083581E+02  0.56014015948E+02 -0.64250172030E+02  0.19040585462E+03  0.16961044988E+03 0.  0.
        -24    2    3    3    0    0  0.20034401819E+01  0.93489547764E+02 -0.13561019724E+02  0.12498024634E+03  0.81803737110E+02 0.  0.
          6    2    1    2  501    0  0.14867083581E+02 -0.56014015948E+02 -0.11494030230E+03  0.21567821234E+03  0.17305264525E+03 0.  0.
         24    2    5    5    0    0  0.50261417748E+02  0.21539245661E+02 -0.58362343026E+02  0.11325544752E+03  0.80190299242E+02 0.  0.
          5    1    5    5  501    0 -0.35394334167E+02 -0.77553261609E+02 -0.56577959275E+02  0.10242276482E+03  0.47000000000E+01 0. -1.
        -11    1    6    6    0    0  0.23199977606E+02 -0.29382483868E+01 -0.70911896619E+02  0.74668395902E+02  0.00000000000E+00 0.  1.
         12    1    6    6    0    0  0.27061440142E+02  0.24477494048E+02  0.12549553593E+02  0.38587051621E+02  0.00000000000E+00 0. -1.
         -5    1    3    3    0  503 -0.16870523763E+02 -0.37475531816E+02 -0.50689152306E+02  0.65425608277E+02  0.47000000000E+01 0.  1.
         11    1    4    4    0    0 -0.19478090553E+02  0.53155894414E+02 -0.42588427274E+02  0.70842919619E+02  0.00000000000E+00 0. -1.
        -12    1    4    4    0    0  0.21481530735E+02  0.40333653350E+02  0.29027407549E+02  0.54137326719E+02  0.00000000000E+00 0.  1.
</event>
<event>
12    1  0.8251070E-002  0.2252019E+03  0.7818608E-02  0.1130075E+00
         21   -1    0    0  503  502  0.00000000000E+00  0.00000000000E+00  0.29726874528E+03  0.29726874528E+03  0.00000000000E+00 0.  1.
         21   -1    0    0  501  503 -0.00000000000E+00 -0.00000000000E+00 -0.21341438093E+03  0.21341438093E+03  0.00000000000E+00 0.  1.
          6    2    1    2  501    0  0.46894173782E+02  0.13830423243E+03 -0.72501871543E+02  0.23652412606E+03  0.17134764833E+03 0.  0.
         24    2    3    3    0    0  0.18277547710E+02  0.10551746209E+02  0.72009115637E+01  0.83180614104E+02  0.80135843023E+02 0.  0.
         -6    2    1    2    0  502 -0.46894173782E+02 -0.13830423243E+03  0.15635623590E+03  0.27415900015E+03  0.17143150415E+03 0.  0.
        -24    2    5    5    0    0 -0.27545571037E+02 -0.51704079533E+01  0.79931243761E+02  0.11936283395E+03  0.84101074882E+02 0.  0.
          5    1    3    3  501    0  0.28616626073E+02  0.12775248622E+03 -0.79702783107E+02  0.15334351196E+03  0.47000000000E+01 0. -1.
        -11    1    4    4    0    0 -0.22039051750E+02  0.30046955662E+02  0.90981409883E+01  0.38357730851E+02  0.00000000000E+00 0.  1.
         12    1    4    4    0    0  0.40316599460E+02 -0.19495209453E+02 -0.18972294246E+01  0.44822883253E+02  0.00000000000E+00 0. -1.
         -5    1    5    5    0  502 -0.19348602745E+02 -0.13313382448E+03  0.76424992137E+02  0.15479616621E+03  0.47000000000E+01 0.  1.
         13    1    6    6    0    0  0.97473371710E+01  0.25426679312E+02  0.14845396017E+01  0.27271422049E+02  0.00000000000E+00 0. -1.
        -14    1    6    6    0    0 -0.37292908208E+02 -0.30597087265E+02  0.78446704159E+02  0.92091411897E+02  0.00000000000E+00 0.  1.
</event>
<event>
12    1  0.8251070E-002  0.1817586E+03  0.7818608E-02  0.1166616E+00
         21   -1    0    0  503  502  0.00000000000E+00  0.00000000000E+00  0.92872719529E+03  0.92872719529E+03  0.00000000000E+00 0.  1.
         21   -1    0    0  501  503 -0.00000000000E+00 -0.00000000000E+00 -0.41818338822E+02  0.41818338822E+02  0.00000000000E+00 0. -1.
          6    2    1    2  501    0 -0.50412073851E+02  0.15797083479E+02  0.24769641651E+03  0.30599400709E+03  0.17172039072E+03 0.  0.
         24    2    3    3    0    0  0.14752834091E+02 -0.38302625533E+02  0.16425676861E+03  0.18700867781E+03  0.79418022556E+02 0.  0.
         -6    2    1    2    0  502  0.50412073851E+02 -0.15797083479E+02  0.63921243996E+03  0.66455152702E+03  0.17391165467E+03 0.  0.
        -24    2    5    5    0    0  0.57782646002E+02 -0.59978413748E+02  0.28647578840E+03  0.30895125898E+03  0.80288596890E+02 0.  0.
          5    1    3    3  501    0 -0.65164907941E+02  0.54099709012E+02  0.83439647903E+02  0.11898532928E+03  0.47000000000E+01 0. -1.
        -11    1    4    4    0    0  0.85984529577E+01 -0.59814277773E+02  0.14640198004E+03  0.15838314613E+03  0.00000000000E+00 0.  1.
         12    1    4    4    0    0  0.61543811331E+01  0.21511652240E+02  0.17854788572E+02  0.28625531684E+02  0.00000000000E+00 0. -1.
         -5    1    5    5    0  502 -0.73705721516E+01  0.44181330269E+02  0.35273665156E+03  0.35560026804E+03  0.47000000000E+01 0.  1.
         13    1    6    6    0    0  0.12044179860E+01 -0.12810701948E+02 -0.29567566752E+00  0.12870591719E+02  0.00000000000E+00 0. -1.
        -14    1    6    6    0    0  0.56578228016E+02 -0.47167711800E+02  0.28677146407E+03  0.29608066726E+03  0.00000000000E+00 0.  1.
</event>
<event>
12    1  0.8251070E-002  0.2011352E+03  0.7818608E-02  0.1148824E+00
         21   -1    0    0  501  502  0.00000000000E+00  0.00000000000E+00  0.49767618135E+03  0.49767618135E+03  0.00000000000E+00 0.  1.
         21   -1    0    0  502  503 -0.00000000000E+00 -0.00000000000E+00 -0.11258938446E+03  0.11258938446E+03  0.00000000000E+00 0. -1.
         -6    2    1    2    0  503 -0.44744081103E+02 -0.94145964508E+02  0.35369069889E+03  0.40688140312E+03  0.17201706399E+03 0.  0.
        -24    2    3    3    0    0 -0.43962588802E+02 -0.42880688795E+02  0.33883419279E+03  0.35329460440E+03  0.78974708680E+02 0.  0.
          6    2    1    2  501    0  0.44744081103E+02  0.94145964508E+02  0.31396098011E+02  0.20338416268E+03  0.17179612113E+03 0.  0.
         24    2    5    5    0    0 -0.10077940139E+02  0.97893343806E+01  0.58297521244E+02  0.99137955889E+02  0.78945154187E+02 0.  0.
          5    1    5    5  501    0  0.54822021241E+02  0.84356630128E+02 -0.26901423233E+02  0.10424620680E+03  0.47000000000E+01 0. -1.
        -13    1    6    6    0    0  0.15435217977E+02  0.90402664534E+01  0.69132558096E+02  0.71409263828E+02  0.00000000000E+00 0.  1.
         14    1    6    6    0    0 -0.25513158116E+02  0.74906792723E+00 -0.10835036852E+02  0.27728692061E+02  0.00000000000E+00 0. -1.
         -5    1    3    3    0  503 -0.78149230074E+00 -0.51265275713E+02  0.14856506102E+02  0.53586798726E+02  0.47000000000E+01 0.  1.
         11    1    4    4    0    0  0.83959308134E+01 -0.29861323808E+02  0.45676707777E+02  0.55213693475E+02  0.00000000000E+00 0. -1.
        -12    1    4    4    0    0 -0.52358519615E+02 -0.13019364988E+02  0.29315748501E+03  0.29808091092E+03  0.00000000000E+00 0.  1.
</event>
<event>
12    1  0.8251070E-002  0.1763291E+03  0.7818608E-02  0.1171442E+00
         21   -1    0    0  501  502  0.00000000000E+00  0.00000000000E+00  0.75853419589E+02  0.75853419589E+02  0.00000000000E+00 0.  1.
         21   -1    0    0  502  503 -0.00000000000E+00 -0.00000000000E+00 -0.15866777074E+04  0.15866777074E+04  0.00000000000E+00 0.  1.
         -6    2    1    2    0  503  0.38146969084E+02  0.41287767391E+01 -0.14713215361E+04  0.14818313636E+04  0.17194443685E+03 0.  0.
        -24    2    3    3    0    0  0.45040678304E+01  0.59615827592E+02 -0.11293888246E+04  0.11337642338E+04  0.79548018153E+02 0.  0.
          6    2    1    2  501    0 -0.38146969084E+02 -0.41287767391E+01 -0.39502751708E+02  0.18069976344E+03  0.17210374507E+03 0.  0.
         24    2    5    5    0    0  0.42383387146E+02  0.13866486732E+02 -0.77430085105E+01  0.92157462416E+02  0.80277099710E+02 0.  0.
          5    1    5    5  501    0 -0.80530356230E+02 -0.17995263472E+02 -0.31759743197E+02  0.88542301020E+02  0.47000000000E+01 0. -1.
        -13    1    6    6    0    0  0.70571470828E+01  0.43073939765E+02  0.65654241441E+01  0.44139238847E+02  0.00000000000E+00 0.  1.
         14    1    6    6    0    0  0.35326240064E+02 -0.29207453032E+02 -0.14308432655E+02  0.48018223569E+02  0.00000000000E+00 0. -1.
         -5    1    3    3    0  503  0.33642901253E+02 -0.55487050853E+02 -0.34193271151E+03  0.34806712976E+03  0.47000000000E+01 0.  1.
         13    1    4    4    0    0 -0.33089188913E+02  0.59577833411E+01 -0.43075512512E+03  0.43206523514E+03  0.00000000000E+00 0. -1.
        -14    1    4    4    0    0  0.37593256744E+02  0.53658044251E+02 -0.69863369952E+03  0.70169899869E+03  0.00000000000E+00 0.  1.
</event>
<event>
12    1  0.8251070E-002  0.1779664E+03  0.7818608E-02  0.1170471E+00
         21   -1    0    0  501  502  0.00000000000E+00  0.00000000000E+00  0.56569980151E+03  0.56569980151E+03  0.00000000000E+00 0. -1.
         21   -1    0    0  502  503 -0.00000000000E+00 -0.00000000000E+00 -0.56717116479E+02  0.56717116479E+02  0.00000000000E+00 0. -1.
         -6    2    1    2    0  503 -0.43481544729E+02  0.13253611211E+02  0.20034254899E+03  0.26614348862E+03  0.16920081755E+03 0.  0.
        -24    2    3    3    0    0 -0.24629212280E+02  0.59670709801E+02  0.64526606539E+02  0.12130558715E+03  0.79901006352E+02 0.  0.
          6    2    1    2  501    0  0.43481544729E+02 -0.13253611211E+02  0.30864013605E+03  0.35627342937E+03  0.17206312782E+03 0.  0.
         24    2    5    5    0    0 -0.42842462675E+02 -0.13048958439E+02  0.17487734095E+03  0.19700494069E+03  0.78886693119E+02 0.  0.
          5    1    5    5  501    0  0.86324007404E+02 -0.20465277240E+00  0.13376279509E+03  0.15926848868E+03  0.47000000000E+01 0. -1.
        -13    1    6    6    0    0  0.15030211646E+02  0.49137610265E+01  0.49084052204E+01  0.16557317155E+02  0.00000000000E+00 0.  1.
         14    1    6    6    0    0 -0.57872674321E+02 -0.17962719466E+02  0.16996893573E+03  0.18044762353E+03  0.00000000000E+00 0. -1.
         -5    1    3    3    0  503 -0.18852332449E+02 -0.46417098590E+02  0.13581594245E+03  0.14483790147E+03  0.47000000000E+01 0.  1.
         13    1    4    4    0    0 -0.47370274425E+02  0.63729718380E+02  0.46649150591E+02  0.92095402463E+02  0.00000000000E+00 0. -1.
        -14    1    4    4    0    0  0.22741062145E+02 -0.40590085791E+01  0.17877455948E+02  0.29210184685E+02  0.00000000000E+00 0.  1.
</event>
<event>
12    1  0.8251070E-002  0.1760207E+03  0.7818608E-02  0.1172102E+00
         21   -1    0    0  501  502  0.00000000000E+00  0.00000000000E+00  0.94606296482E+02  0.94606296482E+02  0.00000000000E+00 0.  1.
         21   -1    0    0  502  503 -0.00000000000E+00 -0.00000000000E+00 -0.49338603102E+03  0.49338603102E+03  0.00000000000E+00 0.  1.
         -6    2    1    2    0  503  0.58619657395E+02 -0.35129256757E+02 -0.37193245773E+03  0.41148149740E+03  0.16221264030E+03 0.  0.
        -24    2    3    3    0    0  0.49784055288E+02 -0.52537210708E+01 -0.36746692082E+03  0.37965939004E+03  0.81260450411E+02 0.  0.
          6    2    1    2  501    0 -0.58619657395E+02  0.35129256757E+02 -0.26847276804E+02  0.17651083010E+03  0.16051469702E+03 0.  0.
         24    2    5    5    0    0 -0.79471369691E+02 -0.73153589318E+01 -0.49923667992E+02  0.12368139572E+03  0.80221580295E+02 0.  0.
          5    1    5    5  501    0  0.20851712296E+02  0.42444615689E+02  0.23076391188E+02  0.52829434380E+02  0.47000000000E+01 0. -1.
        -11    1    6    6    0    0 -0.98299143692E+01 -0.11819463274E+02  0.19776764021E+02  0.25048898653E+02  0.00000000000E+00 0.  1.
         12    1    6    6    0    0 -0.69641455322E+02  0.45041043423E+01 -0.69700432013E+02  0.98632497069E+02  0.00000000000E+00 0. -1.
         -5    1    3    3    0  503  0.88356021066E+01 -0.29875535686E+02 -0.44655369154E+01  0.31822107363E+02  0.47000000000E+01 0.  1.
         13    1    4    4    0    0  0.55567211449E+01  0.23908184154E+02 -0.33571946956E+02  0.41587907399E+02  0.00000000000E+00 0. -1.
        -14    1    4    4    0    0  0.44227334143E+02 -0.29161905225E+02 -0.33389497386E+03  0.33807148264E+03  0.00000000000E+00 0.  1.
</event>
<event>
12    1  0.8251070E-002  0.3093106E+03  0.7818608E-02  0.1081030E+00
         21   -1    0    0  503  502  0.00000000000E+00  0.00000000000E+00  0.14926230796E+03  0.14926230796E+03  0.00000000000E+00 0.  1.
         21   -1    0    0  501  503 -0.00000000000E+00 -0.00000000000E+00 -0.76631547989E+03  0.76631547989E+03  0.00000000000E+00 0. -1.
          6    2    1    2  501    0 -0.20789575584E+03 -0.14776760278E+03 -0.12018457612E+03  0.33183935769E+03  0.17497747640E+03 0.  0.
         24    2    3    3    0    0 -0.66971458636E+02 -0.11194292064E+03 -0.10542542378E+03  0.18561012679E+03  0.79499719697E+02 0.  0.
         -6    2    1    2    0  502  0.20789575584E+03  0.14776760278E+03 -0.49686859581E+03  0.58373843016E+03  0.16975347894E+03 0.  0.
        -24    2    5    5    0    0  0.81225461646E+02  0.21656254423E+02 -0.27775018848E+03  0.30092329257E+03  0.79643529785E+02 0.  0.
          5    1    3    3  501    0 -0.14092429721E+03 -0.35824682141E+02 -0.14759152339E+02  0.14622923091E+03  0.47000000000E+01 0. -1.
        -13    1    4    4    0    0  0.87487556774E+01  0.70641564884E+01 -0.11869274747E+02  0.16350006600E+02  0.00000000000E+00 0.  1.
         14    1    4    4    0    0 -0.75720214313E+02 -0.11900707713E+03 -0.93556149035E+02  0.16926012019E+03  0.00000000000E+00 0. -1.
         -5    1    5    5    0  502  0.12667029420E+03  0.12611134836E+03 -0.21911840733E+03  0.28281513759E+03  0.47000000000E+01 0.  1.
         13    1    6    6    0    0  0.72992435927E+02  0.44221364306E+02 -0.16636881911E+03  0.18698130584E+03  0.00000000000E+00 0. -1.
        -14    1    6    6    0    0  0.82330257184E+01 -0.22565109882E+02 -0.11138136937E+03  0.11394198672E+03  0.00000000000E+00 0.  1.
</event>
<event>
12    1  0.8251070E-002  0.1913458E+03  0.7818608E-02  0.1158782E+00
         21   -1    0    0  501  502  0.00000000000E+00  0.00000000000E+00  0.14732485464E+04  0.14732485464E+04  0.00000000000E+00 0.  1.
         21   -1    0    0  502  503 -0.00000000000E+00 -0.00000000000E+00 -0.68142483305E+02  0.68142483305E+02  0.00000000000E+00 0.  1.
         -6    2    1    2    0  503  0.82184755994E+02 -0.16811573037E+02  0.86616994019E+02  0.21003740507E+03  0.17197745425E+03 0.  0.
        -24    2    3    3    0    0  0.12231576243E+03 -0.29268807312E+02  0.73528564871E+02  0.16577593943E+03  0.79103750981E+02 0.  0.
          6    2    1    2  501    0 -0.82184755994E+02  0.16811573037E+02  0.13184890691E+04  0.13313536247E+04  0.16447518184E+03 0.  0.
         24    2    5    5    0    0 -0.11075836550E+03  0.15131770385E+02  0.12400240548E+04  0.12476988497E+04  0.81218083934E+02 0.  0.
          5    1    5    5  501    0  0.28573609504E+02  0.16798026520E+01  0.78465014297E+02  0.83654774912E+02  0.47000000000E+01 0. -1.
        -11    1    6    6    0    0 -0.76614570122E+02  0.48234784646E+02  0.83368742727E+03  0.83858876286E+03  0.00000000000E+00 0.  1.
         12    1    6    6    0    0 -0.34143795377E+02 -0.33103014261E+02  0.40633662754E+03  0.40911008689E+03  0.00000000000E+00 0. -1.
         -5    1    3    3    0  503 -0.40131006440E+02  0.12457234275E+02  0.13088429148E+02  0.44261465647E+02  0.47000000000E+01 0.  1.
         13    1    4    4    0    0  0.11382355672E+02  0.14558226831E+02  0.36452836195E+02  0.40869417120E+02  0.00000000000E+00 0. -1.
        -14    1    4    4    0    0  0.11093340676E+03 -0.43827034143E+02  0.37075728676E+02  0.12490652231E+03  0.00000000000E+00 0.  1.
</event>
<event>
12    1  0.8251070E-002  0.1779679E+03  0.7818608E-02  0.1169837E+00
         21   -1    0    0  503  502  0.00000000000E+00  0.00000000000E+00  0.52828438703E+03  0.52828438703E+03  0.00000000000E+00 0.  1.
         21   -1    0    0  501  503 -0.00000000000E+00 -0.00000000000E+00 -0.19275006971E+03  0.19275006971E+03  0.00000000000E+00 0.  1.
          6    2    1    2  501    0 -0.39204970292E+02 -0.26772249793E+02 -0.13158655972E+03  0.22115998948E+03  0.17129779681E+03 0.  0.
         24    2    3    3    0    0 -0.31790948983E+02  0.51111797604E+00 -0.15972930437E+03  0.18099216721E+03  0.78954342743E+02 0.  0.
         -6    2    1    2    0  502  0.39204970292E+02  0.26772249793E+02  0.46712087704E+03  0.49987446727E+03  0.17151905493E+03 0.  0.
        -24    2    5    5    0    0  0.76472113713E+01 -0.37606087737E+02  0.36127336487E+03  0.37194382854E+03  0.79693599189E+02 0.  0.
          5    1    3    3  501    0 -0.74140213088E+01 -0.27283367769E+02  0.28142744654E+02  0.40167822264E+02  0.47000000000E+01 0. -1.
        -11    1    4    4    0    0 -0.47593182422E+02  0.22300999523E+02 -0.71441150392E+02  0.88692071585E+02  0.00000000000E+00 0.  1.
         12    1    4    4    0    0  0.15802233439E+02 -0.21789881547E+02 -0.88288153980E+02  0.92300095627E+02  0.00000000000E+00 0. -1.
         -5    1    5    5    0  502  0.31557758920E+02  0.64378337530E+02  0.10584751217E+03  0.12793063872E+03  0.47000000000E+01 0.  1.
         11    1    6    6    0    0 -0.41821092167E+01 -0.38297935295E+02  0.65915627252E+02  0.76348489188E+02  0.00000000000E+00 0. -1.
        -12    1    6    6    0    0  0.11829320588E+02  0.69184755795E+00  0.29535773762E+03  0.29559533935E+03  0.00000000000E+00 0.  1.
</event>
<event>
12    1  0.8251070E-002  0.1869275E+03  0.7818608E-02  0.1161313E+00
         21   -1    0    0  503  502  0.00000000000E+00  0.00000000000E+00  0.15632729329E+03  0.15632729329E+03  0.00000000000E+00 0. -1.
         21   -1    0    0  501  503 -0.00000000000E+00 -0.00000000000E+00 -0.34826904313E+03  0.34826904313E+03  0.00000000000E+00 0. -1.
          6    2    1    2  501    0  0.39938822251E+02 -0.56569856381E+02 -0.24709452848E+03  0.30970217884E+03  0.17339110531E+03 0.  0.
         24    2    3    3    0    0  0.80509641370E+02  0.81965051293E+00 -0.11680270878E+03  0.16158872522E+03  0.77366460156E+02 0.  0.
         -6    2    1    2    0  502 -0.39938822251E+02  0.56569856381E+02  0.55152778638E+02  0.19489415759E+03  0.17362789377E+03 0.  0.
        -24    2    5    5    0    0 -0.67017811736E+02  0.93385841700E+02  0.46358420902E+02  0.14811682147E+03  0.81099858770E+02 0.  0.
          5    1    3    3  501    0 -0.40570819119E+02 -0.57389506894E+02 -0.13029181969E+03  0.14811345362E+03  0.47000000000E+01 0. -1.
        -13    1    4    4    0    0  0.40903633035E+02  0.81983196814E+01 -0.41194626165E+01  0.41920038326E+02  0.00000000000E+00 0.  1.
         14    1    4    4    0    0  0.39606008335E+02 -0.73786691684E+01 -0.11268324617E+03  0.11966868689E+03  0.00000000000E+00 0. -1.
         -5    1    5    5    0  502  0.27078989485E+02 -0.36815985319E+02  0.87943577355E+01  0.46777336120E+02  0.47000000000E+01 0.  1.
         13    1    6    6    0    0 -0.17013760887E+02 -0.23942158497E+01  0.35607445229E+02  0.39535939155E+02  0.00000000000E+00 0. -1.
        -14    1    6    6    0    0 -0.50004050848E+02  0.95780057550E+02  0.10750975673E+02  0.10858088231E+03  0.00000000000E+00 0.  1.
</event>
<event>
12    1  0.8251070E-002  0.1833344E+03  0.7818608E-02  0.1165661E+00
         21   -1    0    0  501  502  0.00000000000E+00  0.00000000000E+00  0.49404010585E+03  0.49404010585E+03  0.00000000000E+00 0.  1.
         21   -1    0    0  502  503 -0.00000000000E+00 -0.00000000000E+00 -0.99223364295E+02  0.99223364295E+02  0.00000000000E+00 0.  1.
         -6    2    1    2    0  503 -0.42095411744E+02  0.16858489032E+02  0.28457826015E+02  0.18552993105E+03  0.17763804523E+03 0.  0.
        -24    2    3    3    0    0 -0.90960877753E+02  0.13001379591E+02  0.51501246591E+02  0.13116265879E+03  0.78155917924E+02 0.  0.
          6    2    1    2  501    0  0.42095411744E+02 -0.16858489032E+02  0.36635891554E+03  0.40773353910E+03  0.17312293772E+03 0.  0.
         24    2    5    5    0    0 -0.41713081754E+02 -0.24569444460E+01  0.14287566785E+03  0.16857225446E+03  0.79102027442E+02 0.  0.
          5    1    5    5  501    0  0.83808493498E+02 -0.14401544586E+02  0.22348324769E+03  0.23916128463E+03  0.47000000000E+01 0. -1.
        -13    1    6    6    0    0 -0.16940617841E+01  0.84770335410E+01  0.12167771930E+03  0.12198441424E+03  0.00000000000E+00 0.  1.
         14    1    6    6    0    0 -0.40019019970E+02 -0.10933977987E+02  0.21197948550E+02  0.46587840224E+02  0.00000000000E+00 0. -1.
         -5    1    3    3    0  503  0.48865466009E+02  0.38571094401E+01 -0.23043420576E+02  0.54367272263E+02  0.47000000000E+01 0.  1.
         11    1    4    4    0    0 -0.53966990624E+02 -0.15079857756E+02  0.61975922797E+02  0.83551500247E+02  0.00000000000E+00 0. -1.
        -12    1    4    4    0    0 -0.36993887129E+02  0.28081237347E+02 -0.10474676206E+02  0.47611158540E+02  0.00000000000E+00 0.  1.
</event>
<event>
12    1  0.8251070E-002  0.2727363E+03  0.7818608E-02  0.1100250E+00
         21   -1    0    0  503  502  0.00000000000E+00  0.00000000000E+00  0.12890867399E+03  0.12890867399E+03  0.00000000000E+00 0. -1.
         21   -1    0    0  501  503 -0.00000000000E+00 -0.00000000000E+00 -0.13600154858E+04  0.13600154858E+04  0.00000000000E+00 0.  1.
          6    2    1    2  501    0  0.20693953719E+03  0.45677552784E+02 -0.11849797044E+04  0.12159613506E+04  0.17168196017E+03 0.  0.
         24    2    3    3    0    0  0.10467400157E+03  0.38760058438E+02 -0.95524319810E+03  0.96435244013E+03  0.70901851415E+02 0.  0.
         -6    2    1    2    0  502 -0.20693953719E+03 -0.45677552784E+02 -0.46127107377E+02  0.27296280916E+03  0.16574249384E+03 0.  0.
        -24    2    5    5    0    0 -0.20605606162E+03 -0.77851480169E+02 -0.26938395477E+02  0.23519723228E+03  0.77923728253E+02 0.  0.
          5    1    3    3  501    0  0.10226553563E+03  0.69174943464E+01 -0.22973650631E+03  0.25160891049E+03  0.47000000000E+01 0. -1.
        -13    1    4    4    0    0  0.36172993618E+02 -0.89084939520E+01 -0.50977327786E+03  0.51113270444E+03  0.00000000000E+00 0.  1.
         14    1    4    4    0    0  0.68501007949E+02  0.47668552390E+02 -0.44546992025E+03  0.45321973570E+03  0.00000000000E+00 0. -1.
         -5    1    5    5    0  502 -0.88347556982E+00  0.32173927384E+02 -0.19188711900E+02  0.37765576876E+02  0.47000000000E+01 0.  1.
         13    1    6    6    0    0 -0.58249123299E+02  0.33046314296E+01 -0.31916637145E+02  0.66502275755E+02  0.00000000000E+00 0. -1.
        -14    1    6    6    0    0 -0.14780693833E+03 -0.81156111598E+02  0.49782416679E+01  0.16869495653E+03  0.00000000000E+00 0.  1.
</event>
<event>
12    1  0.8251070E-002  0.1736609E+03  0.7818608E-02  0.1174260E+00
         21   -1    0    0  501  502  0.00000000000E+00  0.00000000000E+00  0.38246478689E+03  0.38246478689E+03  0.00000000000E+00 0. -1.
         21   -1    0    0  502  503 -0.00000000000E+00 -0.00000000000E+00 -0.98954342342E+02  0.98954342342E+02  0.00000000000E+00 0. -1.
         -6    2    1    2    0  503 -0.12438588336E+02 -0.24554713936E+02  0.32185725165E+02  0.17593229035E+03  0.17075888682E+03 0.  0.
        -24    2    3    3    0    0  0.20824081797E+02  0.43303987565E+02  0.46423148169E+02  0.98886830995E+02  0.72901433021E+02 0.  0.
          6    2    1    2  501    0  0.12438588336E+02  0.24554713936E+02  0.25132471938E+03  0.30548683888E+03  0.17146557002E+03 0.  0.
         24    2    5    5    0    0 -0.25146300655E+02  0.52692865568E+02  0.23605494031E+03  0.25589212535E+03  0.79686701843E+02 0.  0.
          5    1    5    5  501    0  0.37584888991E+02 -0.28138151632E+02  0.15269779072E+02  0.49594713535E+02  0.47000000000E+01 0. -1.
        -13    1    6    6    0    0  0.26772017740E+01  0.26823473827E+02  0.20516188071E+03  0.20692526055E+03  0.00000000000E+00 0.  1.
         14    1    6    6    0    0 -0.27823502429E+02  0.25869391741E+02  0.30893059602E+02  0.48966864797E+02  0.00000000000E+00 0. -1.
         -5    1    3    3    0  503 -0.33262670133E+02 -0.67858701501E+02 -0.14237423004E+02  0.77045459357E+02  0.47000000000E+01 0.  1.
         11    1    4    4    0    0 -0.16826308340E+02  0.14653054895E+02  0.46498576543E+02  0.51574744698E+02  0.00000000000E+00 0. -1.
        -12    1    4    4    0    0  0.37650390137E+02  0.28650932670E+02 -0.75428373894E-01  0.47312086297E+02  0.00000000000E+00 0.  1.
</event>
<event>
12    1  0.8251070E-002  0.4288073E+03  0.7818608E-02  0.1034302E+00
         21   -1    0    0  503  502  0.00000000000E+00  0.00000000000E+00  0.23439114185E+04  0.23439114185E+04  0.00000000000E+00 0. -1.
         21   -1    0    0  501  503 -0.00000000000E+00 -0.00000000000E+00 -0.81599282732E+02  0.81599282732E+02  0.00000000000E+00 0.  1.
          6    2    1    2  501    0  0.39210519117E+03 -0.18718374152E+02  0.88828717684E+03  0.98637204933E+03  0.17256550256E+03 0.  0.
         24    2    3    3    0    0  0.26742234999E+03 -0.45050933312E+01  0.74670687495E+03  0.79712379935E+03  0.79373706276E+02 0.  0.
         -6    2    1    2    0  502 -0.39210519117E+03  0.18718374152E+02  0.13740249590E+04  0.14391386520E+04  0.17052452375E+03 0.  0.
        -24    2    5    5    0    0 -0.37845249274E+03  0.37628409703E+02  0.11463776451E+04  0.12102513977E+04  0.76710847450E+02 0.  0.
          5    1    3    3  501    0  0.12468284117E+03 -0.14213280821E+02  0.14158030189E+03  0.18924824998E+03  0.47000000000E+01 0. -1.
        -13    1    4    4    0    0  0.24861045407E+03  0.18006836541E+02  0.65427898212E+03  0.70015169105E+03  0.00000000000E+00 0.  1.
         14    1    4    4    0    0  0.18811895918E+02 -0.22511929872E+02  0.92427892830E+02  0.96972108297E+02  0.00000000000E+00 0. -1.
         -5    1    5    5    0  502 -0.13652698428E+02 -0.18910035551E+02  0.22764731392E+03  0.22888725424E+03  0.47000000000E+01 0.  1.
         11    1    6    6    0    0 -0.15044044546E+03  0.45000373318E+02  0.39731163893E+03  0.42721645528E+03  0.00000000000E+00 0. -1.
        -12    1    6    6    0    0 -0.22801204728E+03 -0.73719636152E+01  0.74906600612E+03  0.78303494244E+03  0.00000000000E+00 0.  1.
</event>
<event>
12    1  0.8251070E-002  0.1951370E+03  0.7818608E-02  0.1155701E+00
         21   -1    0    0  503  502  0.00000000000E+00  0.00000000000E+00  0.22167136328E+03  0.22167136328E+03  0.00000000000E+00 0. -1.
         21   -1    0    0  501  503 -0.00000000000E+00 -0.00000000000E+00 -0.16731176635E+03  0.16731176635E+03  0.00000000000E+00 0. -1.
          6    2    1    2  501    0  0.56849305148E+02  0.54390812477E+02  0.37572394023E+01  0.19517312444E+03  0.17857275178E+03 0.  0.
         24    2    3    3    0    0  0.29817822103E+02  0.53740725793E+02  0.72288153108E+02  0.12135104224E+03  0.75652694918E+02 0.  0.
         -6    2    1    2    0  502 -0.56849305148E+02 -0.54390812477E+02  0.50602357520E+02  0.19381000519E+03  0.16973955210E+03 0.  0.
        -24    2    5    5    0    0  0.13647887229E+02  0.16320761169E+02  0.44429468451E+02  0.93659242133E+02  0.79658294603E+02 0.  0.
          5    1    3    3  501    0  0.27031483045E+02  0.65008668454E+00 -0.68530913705E+02  0.73822082209E+02  0.47000000000E+01 0. -1.
        -11    1    4    4    0    0 -0.19851918244E+02  0.33280343844E+02  0.11922012287E+02  0.40543980087E+02  0.00000000000E+00 0.  1.
         12    1    4    4    0    0  0.49669740346E+02  0.20460381948E+02  0.60366140820E+02  0.80807062149E+02  0.00000000000E+00 0. -1.
         -5    1    5    5    0  502 -0.70497192377E+02 -0.70711573646E+02  0.61728890689E+01  0.10015076305E+03  0.47000000000E+01 0.  1.
         13    1    6    6    0    0 -0.27272243258E+02  0.99679729312E+00  0.41754742707E+02  0.49882135036E+02  0.00000000000E+00 0. -1.
        -14    1    6    6    0    0  0.40920130488E+02  0.15323963875E+02  0.26747257437E+01  0.43777107097E+02  0.00000000000E+00 0.  1.
</event>
<event>
12    1  0.8251070E-002  0.2128453E+03  0.7818608E-02  0.1140120E+00
         21   -1    0    0  501  502  0.00000000000E+00  0.00000000000E+00  0.10016283874E+03  0.10016283874E+03  0.00000000000E+00 0. -1.
         21   -1    0    0  502  503 -0.00000000000E+00 -0.00000000000E+00 -0.49037518598E+03  0.49037518598E+03  0.00000000000E+00 0. -1.
         -6    2    1    2    0  503  0.12431166578E+02  0.11734647989E+03 -0.28776387745E+03  0.35792619196E+03  0.17713943512E+03 0.  0.
        -24    2    3    3    0    0  0.42341141481E+01  0.80389363215E+02 -0.62969536948E+02  0.12991828493E+03  0.80207360860E+02 0.  0.
          6    2    1    2  501    0 -0.12431166578E+02 -0.11734647989E+03 -0.10244846978E+03  0.23261183276E+03  0.17230161211E+03 0.  0.
         24    2    5    5    0    0 -0.36723485554E+02 -0.14535870353E+03 -0.72856872561E+02  0.18494052001E+03  0.80106834779E+02 0.  0.
          5    1    5    5  501    0  0.24292318976E+02  0.28012223633E+02 -0.29591597218E+02  0.47671312757E+02  0.47000000000E+01 0. -1.
        -11    1    6    6    0    0 -0.66161017063E+01  0.47157579111E+01 -0.22313659533E+02  0.23746801389E+02  0.00000000000E+00 0.  1.
         12    1    6    6    0    0 -0.30107383847E+02 -0.15007446144E+03 -0.50543213027E+02  0.16119371862E+03  0.00000000000E+00 0. -1.
         -5    1    3    3    0  503  0.81970524299E+01  0.36957116680E+02 -0.22479434051E+03  0.22800790702E+03  0.47000000000E+01 0.  1.
         11    1    4    4    0    0  0.37415291408E+02  0.66555284141E+02 -0.51833636797E+02  0.92283453457E+02  0.00000000000E+00 0. -1.
        -12    1    4    4    0    0 -0.33181177260E+02  0.13834079073E+02 -0.11135900151E+02  0.37634831477E+02  0.00000000000E+00 0.  1.
</event>
<event>
12    1  0.8251070E-002  0.1846294E+03  0.7818608E-02  0.1163889E+00
         21   -1    0    0  503  502  0.00000000000E+00  0.00000000000E+00  0.93037515511E+02  0.93037515511E+02  0.00000000000E+00 0.  1.
         21   -1    0    0  501  503 -0.00000000000E+00 -0.00000000000E+00 -0.54025228607E+03  0.54025228607E+03  0.00000000000E+00 0.  1.
          6    2    1    2  501    0  0.23136514484E+02 -0.62496054470E+02 -0.40450581417E+03  0.44378498825E+03  0.16993853882E+03 0.  0.
         24    2    3    3    0    0  0.16616878044E+02 -0.10105275848E+03 -0.36524658478E+03  0.38817471784E+03  0.82381813807E+02 0.  0.
         -6    2    1    2    0  502 -0.23136514484E+02  0.62496054470E+02 -0.42708956392E+02  0.18950481333E+03  0.17218293816E+03 0.  0.
        -24    2    5    5    0    0 -0.61970961097E+02 -0.73768157349E+01 -0.44060359160E+02  0.10941580957E+03  0.78330624304E+02 0.  0.
          5    1    3    3  501    0  0.65196364403E+01  0.38556704005E+02 -0.39259229392E+02  0.55610270414E+02  0.47000000000E+01 0. -1.
        -13    1    4    4    0    0 -0.15943300014E+02 -0.95519873795E+02 -0.29633824476E+03  0.31176046962E+03  0.00000000000E+00 0.  1.
         14    1    4    4    0    0  0.32560178058E+02 -0.55328846803E+01 -0.68908340011E+02  0.76414248221E+02  0.00000000000E+00 0. -1.
         -5    1    5    5    0  502  0.38834446613E+02  0.69872870205E+02  0.13514027682E+01  0.80089003764E+02  0.47000000000E+01 0.  1.
         11    1    6    6    0    0  0.16848869830E+02 -0.65070910328E+01 -0.20115694374E+02  0.27034566918E+02  0.00000000000E+00 0. -1.
        -12    1    6    6    0    0 -0.78819830928E+02 -0.86972470208E+00 -0.23944664786E+02  0.82381242648E+02  0.00000000000E+00 0.  1.
</event>
<event>
12    1  0.8251070E-002  0.1795550E+03  0.7818608E-02  0.1169866E+00
         21   -1    0    0  501  502  0.00000000000E+00  0.00000000000E+00  0.10480636461E+03  0.10480636461E+03  0.00000000000E+00 0. -1.
         21   -1    0    0  502  503 -0.00000000000E+00 -0.00000000000E+00 -0.46657814355E+03  0.46657814355E+03  0.00000000000E+00 0. -1.
         -6    2    1    2    0  503 -0.28473110926E+02 -0.27920748666E+02 -0.35124210319E+03  0.39152100570E+03  0.16830744667E+03 0.  0.
        -24    2    3    3    0    0  0.43016074845E+02  0.88619856716E+01 -0.17472900365E+03  0.19750389941E+03  0.80923717655E+02 0.  0.
          6    2    1    2  501    0  0.28473110926E+02  0.27920748666E+02 -0.10529675755E+02  0.17986350246E+03  0.17507061202E+03 0.  0.
         24    2    5    5    0    0 -0.80908396659E+01 -0.49422358389E+02 -0.37439303781E+01  0.93915756520E+02  0.79360702572E+02 0.  0.
          5    1    5    5  501    0  0.36563950592E+02  0.77343107055E+02 -0.67857453770E+01  0.85947745940E+02  0.47000000000E+01 0. -1.
        -11    1    6    6    0    0 -0.34051592106E+02  0.41418412831E+01 -0.21702217466E+01  0.34371145407E+02  0.00000000000E+00 0.  1.
         12    1    6    6    0    0  0.25960752440E+02 -0.53564199672E+02 -0.15737086315E+01  0.59544611113E+02  0.00000000000E+00 0. -1.
         -5    1    3    3    0  503 -0.71489185771E+02 -0.36782734338E+02 -0.17651309953E+03  0.19401710629E+03  0.47000000000E+01 0.  1.
         13    1    4    4    0    0 -0.57126092040E+01  0.29115307052E+02 -0.25170490964E+02  0.38908721696E+02  0.00000000000E+00 0. -1.
        -14    1    4    4    0    0  0.48728684049E+02 -0.20253321381E+02 -0.14955851269E+03  0.15859517771E+03  0.00000000000E+00 0.  1.
</event>
<event>
12    1  0.8251070E-002  0.1833348E+03  0.7818608E-02  0.1165481E+00
         21   -1    0    0  501  502  0.00000000000E+00  0.00000000000E+00  0.50545420017E+03  0.50545420017E+03  0.00000000000E+00 0. -1.
         21   -1    0    0  502  503 -0.00000000000E+00 -0.00000000000E+00 -0.10204825172E+03  0.10204825172E+03  0.00000000000E+00 0. -1.
         -6    2    1    2    0  503  0.37938655549E+02 -0.39832493594E+02  0.17862051031E+02  0.18058825494E+03  0.17107628656E+03 0.  0.
        -24    2    3    3    0    0  0.48144289446E+02  0.39056678779E+02  0.10552458053E+02  0.10056840346E+03  0.78481543306E+02 0.  0.
          6    2    1    2  501    0 -0.37938655549E+02  0.39832493594E+02  0.38554389742E+03  0.42691419696E+03  0.17488757988E+03 0.  0.
         24    2    5    5    0    0 -0.58506317889E+01  0.24749000349E+01  0.63918978974E+02  0.10150689951E+03  0.78598090010E+02 0.  0.
          5    1    5    5  501    0 -0.32088023760E+02  0.37357593559E+02  0.32162491845E+03  0.32540729745E+03  0.47000000000E+01 0. -1.
        -13    1    6    6    0    0  0.36309812246E+02  0.46073826811E+01  0.31279306328E+02  0.48145876717E+02  0.00000000000E+00 0.  1.
         14    1    6    6    0    0 -0.42160444035E+02 -0.21324826462E+01  0.32639672646E+02  0.53361022797E+02  0.00000000000E+00 0. -1.
         -5    1    3    3    0  503 -0.10205633898E+02 -0.78889172373E+02  0.73095929774E+01  0.80019851478E+02  0.47000000000E+01 0.  1.
         13    1    4    4    0    0  0.91776391332E+01 -0.19458467744E+02 -0.14490235464E+02  0.25938927326E+02  0.00000000000E+00 0. -1.
        -14    1    4    4    0    0  0.38966650313E+02  0.58515146523E+02  0.25042693517E+02  0.74629476133E+02  0.00000000000E+00 0.  1.
</event>
<event>
12    1  0.8251070E-002  0.1719697E+03  0.7818608E-02  0.1176599E+00
         21   -1    0    0  501  502  0.00000000000E+00  0.00000000000E+00  0.50642279818E+02  0.50642279818E+02  0.00000000000E+00 0.  1.
         21   -1    0    0  502  503 -0.00000000000E+00 -0.00000000000E+00 -0.59437542648E+03  0.59437542648E+03  0.00000000000E+00 0.  1.
         -6    2    1    2    0  503  0.49508203937E+01 -0.43894778852E+00 -0.21402399410E+03  0.27455390642E+03  0.17189785974E+03 0.  0.
        -24    2    3    3    0    0 -0.61351559995E+02  0.73367518428E+01 -0.10306576688E+03  0.14497657300E+03  0.81103714914E+02 0.  0.
          6    2    1    2  501    0 -0.49508203937E+01  0.43894778852E+00 -0.32970915256E+03  0.37046379988E+03  0.16885081711E+03 0.  0.
         24    2    5    5    0    0 -0.16418539189E+02 -0.15452345985E+02 -0.66141339981E+02  0.10612665981E+03  0.79873948455E+02 0.  0.
          5    1    5    5  501    0  0.11467718795E+02  0.15891293774E+02 -0.26356781258E+03  0.26433714007E+03  0.47000000000E+01 0. -1.
        -11    1    6    6    0    0 -0.88376381979E+01  0.18407469468E+02 -0.68372990799E+02  0.71356882302E+02  0.00000000000E+00 0.  1.
         12    1    6    6    0    0 -0.75809009911E+01 -0.33859815454E+02  0.22316508176E+01  0.34769777505E+02  0.00000000000E+00 0. -1.
         -5    1    3    3    0  503  0.66302380389E+02 -0.77756996313E+01 -0.11095822722E+03  0.12957733343E+03  0.47000000000E+01 0.  1.
         13    1    4    4    0    0 -0.34204801343E+02  0.69162434472E+01 -0.11127007117E+03  0.11661402830E+03  0.00000000000E+00 0. -1.
        -14    1    4    4    0    0 -0.27146758652E+02  0.42050839562E+00  0.82043042886E+01  0.28362544693E+02  0.00000000000E+00 0.  1.
</event>
<event>
12    1  0.8251070E-002  0.5085844E+03  0.7818608E-02  0.1011571E+00
         21   -1    0    0  503  502  0.00000000000E+00  0.00000000000E+00  0.11387730771E+04  0.11387730771E+04  0.00000000000E+00 0.  1.
         21   -1    0    0  501  503 -0.00000000000E+00 -0.00000000000E+00 -0.22734476051E+03  0.22734476051E+03  0.00000000000E+00 0.  1.
          6    2    1    2  501    0  0.14314173421E+03 -0.45667061574E+03  0.43217508208E+03  0.66730329583E+03  0.17169967881E+03 0.  0.
         24    2    3    3    0    0  0.17205292036E+03 -0.42521227227E+03  0.39848118191E+03  0.61268779466E+03  0.78685433891E+02 0.  0.
         -6    2    1    2    0  502 -0.14314173421E+03  0.45667061574E+03  0.47925323449E+03  0.69881454176E+03  0.17210605349E+03 0.  0.
        -24    2    5    5    0    0 -0.62659825500E+02  0.10265123658E+03  0.15593698313E+03  0.21264322746E+03  0.80232595461E+02 0.  0.
          5    1    3    3  501    0 -0.28911186152E+02 -0.31458343477E+02  0.33693900170E+02  0.54615501167E+02  0.47000000000E+01 0. -1.
        -13    1    4    4    0    0  0.54185853453E+02 -0.21818023663E+03  0.22432780800E+03  0.31758729164E+03  0.00000000000E+00 0.  1.
         14    1    4    4    0    0  0.11786706691E+03 -0.20703203563E+03  0.17415337391E+03  0.29510050302E+03  0.00000000000E+00 0. -1.
         -5    1    5    5    0  502 -0.80481908711E+02  0.35401937916E+03  0.32331625136E+03  0.48617131430E+03  0.47000000000E+01 0.  1.
         13    1    6    6    0    0 -0.70312924926E+02  0.48027693787E+02  0.11874043757E+03  0.14611590706E+03  0.00000000000E+00 0. -1.
        -14    1    6    6    0    0  0.76530994258E+01  0.54623542792E+02  0.37196545561E+02  0.66527320400E+02  0.00000000000E+00 0.  1.
</event>
<event>
12    1  0.8251070E-002  0.3019963E+03  0.7818608E-02  0.1084426E+00
         21   -1    0    0  501  502  0.00000000000E+00  0.00000000000E+00  0.22245507889E+03  0.22245507889E+03  0.00000000000E+00 0. -1.
         21   -1    0    0  502  503 -0.00000000000E+00 -0.00000000000E+00 -0.82772189067E+03  0.82772189067E+03  0.00000000000E+00 0.  1.
         -6    2    1    2    0  503  0.15051923033E+03  0.19708169747E+03 -0.67617857075E+03  0.73996699127E+03  0.16981299846E+03 0.  0.
        -24    2    3    3    0    0  0.73371685708E+02  0.31007448110E+02 -0.19187723440E+03  0.22218105641E+03  0.78757111714E+02 0.  0.
          6    2    1    2  501    0 -0.15051923033E+03 -0.19708169747E+03  0.70911758972E+02  0.31020997829E+03  0.17234998953E+03 0.  0.
         24    2    5    5    0    0 -0.13127853498E+03 -0.90233679813E+02  0.89635276285E+02  0.19994047509E+03  0.81028020482E+02 0.  0.
          5    1    5    5  501    0 -0.19240695344E+02 -0.10684801766E+03 -0.18723517312E+02  0.11026950320E+03  0.47000000000E+01 0. -1.
        -11    1    6    6    0    0 -0.30661248915E+02  0.10662978824E+01 -0.90846827476E+01  0.31996572267E+02  0.00000000000E+00 0.  1.
         12    1    6    6    0    0 -0.10061728607E+03 -0.91299977695E+02  0.98719959032E+02  0.16794390282E+03  0.00000000000E+00 0. -1.
         -5    1    3    3    0  503  0.77147544619E+02  0.16607424936E+03 -0.48430133635E+03  0.51778593485E+03  0.47000000000E+01 0.  1.
         13    1    4    4    0    0  0.11008377700E+02 -0.23829983598E+02 -0.69457937028E+02  0.74252659980E+02  0.00000000000E+00 0. -1.
        -14    1    4    4    0    0  0.62363308008E+02  0.54837431709E+02 -0.12241929737E+03  0.14792839643E+03  0.00000000000E+00 0.  1.
</event>
<event>
12    1  0.8251070E-002  0.3001282E+03  0.7818608E-02  0.1085201E+00
         21   -1    0    0  503  502  0.00000000000E+00  0.00000000000E+00  0.19340319215E+03  0.19340319215E+03  0.00000000000E+00 0.  1.
         21   -1    0    0  501  503 -0.00000000000E+00 -0.00000000000E+00 -0.96906763427E+03  0.96906763427E+03  0.00000000000E+00 0. -1.
          6    2    1    2  501    0 -0.17091156017E+03  0.17479665432E+03 -0.80690900683E+03  0.86091758121E+03  0.17410429220E+03 0.  0.
         24    2    3    3    0    0 -0.23399047811E+02  0.82154466241E+02 -0.43111066089E+03  0.44668455123E+03  0.79836173566E+02 0.  0.
         -6    2    1    2    0  502  0.17091156017E+03 -0.17479665432E+03  0.31244564721E+02  0.30155324521E+03  0.17376278403E+03 0.  0.
        -24    2    5    5    0    0  0.44921854195E+02 -0.96189560108E+01  0.25730458736E+02  0.93684119572E+02  0.77486517887E+02 0.  0.
          5    1    3    3  501    0 -0.14751251236E+03  0.92642188077E+02 -0.37579834595E+03  0.41423302998E+03  0.47000000000E+01 0. -1.
        -11    1    4    4    0    0 -0.18906825656E+02  0.10274287006E+02 -0.20212531473E+02  0.29522456849E+02  0.00000000000E+00 0.  1.
         12    1    4    4    0    0 -0.44922221544E+01  0.71880179235E+02 -0.41089812942E+03  0.41716209438E+03  0.00000000000E+00 0. -1.
         -5    1    5    5    0  502  0.12598970597E+03 -0.16517769831E+03  0.55141059851E+01  0.20786912564E+03  0.47000000000E+01 0.  1.
         13    1    6    6    0    0  0.26810319887E+02 -0.11311912765E+02 -0.25891928875E+02  0.38950540480E+02  0.00000000000E+00 0. -1.
        -14    1    6    6    0    0  0.18111534307E+02  0.16929567542E+01  0.51622387611E+02  0.54733579092E+02  0.00000000000E+00 0.  1.
</event>
<event>
12    1  0.8251070E-002  0.2458301E+03  0.7818608E-02  0.1115972E+00
         21   -1    0    0  501  502  0.00000000000E+00  0.00000000000E+00  0.28767323215E+03  0.28767323215E+03  0.00000000000E+00 0. -1.
         21   -1    0    0  502  503 -0.00000000000E+00 -0.00000000000E+00 -0.26654967981E+03  0.26654967981E+03  0.00000000000E+00 0. -1.
         -6    2    1    2    0  503 -0.98083139281E+02 -0.14612646560E+03 -0.11701180093E+03  0.27225755442E+03  0.17163673331E+03 0.  0.
        -24    2    3    3    0    0  0.14901423738E+02 -0.60401247577E+02 -0.31580126007E+02  0.10662245679E+03  0.80626799482E+02 0.  0.
          6    2    1    2  501    0  0.98083139281E+02  0.14612646560E+03  0.13813535327E+03  0.28196535753E+03  0.17160955936E+03 0.  0.
         24    2    5    5    0    0  0.75873874306E+02  0.79426153810E+02  0.15903700052E+03  0.20847282797E+03  0.78120379902E+02 0.  0.
          5    1    5    5  501    0  0.22209264975E+02  0.66700311792E+02 -0.20901647248E+02  0.73492529563E+02  0.47000000000E+01 0. -1.
        -11    1    6    6    0    0  0.10841659843E+02  0.60428626700E+02  0.46107259550E+02  0.76779163165E+02  0.00000000000E+00 0.  1.
         12    1    6    6    0    0  0.65032214463E+02  0.18997527109E+02  0.11292974097E+03  0.13169366481E+03  0.00000000000E+00 0. -1.
         -5    1    3    3    0  503 -0.11298456302E+03 -0.85725218025E+02 -0.85431674925E+02  0.16563509763E+03  0.47000000000E+01 0.  1.
         11    1    4    4    0    0  0.12948387119E+02  0.47171531118E+01 -0.38706123282E+02  0.41086205008E+02  0.00000000000E+00 0. -1.
        -12    1    4    4    0    0  0.19530366198E+01 -0.65118400689E+02  0.71259972747E+01  0.65536251781E+02  0.00000000000E+00 0.  1.
</event>
<event>
12    1  0.8251070E-002  0.2201008E+03  0.7818608E-02  0.1134430E+00
         21   -1    0    0  503  502  0.00000000000E+00  0.00000000000E+00  0.37148057667E+02  0.37148057667E+02  0.00000000000E+00 0.  1.
         21   -1    0    0  501  503 -0.00000000000E+00 -0.00000000000E+00 -0.20992365884E+04  0.20992365884E+04  0.00000000000E+00 0.  1.
          6    2    1    2  501    0  0.13186260522E+03  0.13476622462E+02 -0.17012790441E+04  0.17154575908E+04  0.17571281589E+03 0.  0.
         24    2    3    3    0    0  0.50038015241E+02  0.64946696833E+02 -0.63253909406E+03  0.64234454780E+03  0.76019314483E+02 0.  0.
         -6    2    1    2    0  502 -0.13186260522E+03 -0.13476622462E+02 -0.36080948658E+03  0.42092705529E+03  0.17154222297E+03 0.  0.
        -24    2    5    5    0    0 -0.71107687144E+02  0.40848922836E+02 -0.14695065781E+03  0.19201634435E+03  0.92470768344E+02 0.  0.
          5    1    3    3  501    0  0.81824589975E+02 -0.51470074371E+02 -0.10687399501E+04  0.10731130430E+04  0.47000000000E+01 0. -1.
        -11    1    4    4    0    0  0.58552835797E+02  0.19861333717E+02 -0.44497255190E+03  0.44924768124E+03  0.00000000000E+00 0.  1.
         12    1    4    4    0    0 -0.85148205558E+01  0.45085363116E+02 -0.18756654216E+03  0.19309686656E+03  0.00000000000E+00 0. -1.
         -5    1    5    5    0  502 -0.60754918072E+02 -0.54325545298E+02 -0.21385882877E+03  0.22891071094E+03  0.47000000000E+01 0.  1.
         13    1    6    6    0    0  0.17417763719E+00 -0.25921599911E+02 -0.31382287267E+02  0.40703901949E+02  0.00000000000E+00 0. -1.
        -14    1    6    6    0    0 -0.71281864781E+02  0.66770522747E+02 -0.11556837054E+03  0.15131244240E+03  0.00000000000E+00 0.  1.
</event>
<event>
12    1  0.8251070E-002  0.1955396E+03  0.7818608E-02  0.1153770E+00
         21   -1    0    0  503  502  0.00000000000E+00  0.00000000000E+00  0.50115732489E+03  0.50115732489E+03  0.00000000000E+00 0.  1.
         21   -1    0    0  501  503 -0.00000000000E+00 -0.00000000000E+00 -0.25702885109E+03  0.25702885109E+03  0.00000000000E+00 0.  1.
          6    2    1    2  501    0  0.20919501513E+02 -0.88604637743E+02 -0.19624885561E+03  0.27634809752E+03  0.17194839429E+03 0.  0.
         24    2    3    3    0    0 -0.40937916085E+02 -0.23396978224E+02 -0.50856202014E+02  0.10535250491E+03  0.79306150099E+02 0.  0.
         -6    2    1    2    0  502 -0.20919501513E+02  0.88604637743E+02  0.44037732941E+03  0.48183807846E+03  0.17305298098E+03 0.  0.
        -24    2    5    5    0    0  0.16037953853E+02  0.61839276749E+02  0.41987743659E+03  0.43159294276E+03  0.76773005473E+02 0.  0.
          5    1    3    3  501    0  0.61857417598E+02 -0.65207659518E+02 -0.14539265360E+03  0.17099559261E+03  0.47000000000E+01 0. -1.
        -11    1    4    4    0    0 -0.50783503194E+02 -0.65721256803E+01 -0.63908141523E+02  0.81892658923E+02  0.00000000000E+00 0.  1.
         12    1    4    4    0    0  0.98455871093E+01 -0.16824852544E+02  0.13051939509E+02  0.23459845984E+02  0.00000000000E+00 0. -1.
         -5    1    5    5    0  502 -0.36957455366E+02  0.26765360994E+02  0.20499892820E+02  0.50245135704E+02  0.47000000000E+01 0.  1.
         11    1    6    6    0    0  0.41314107251E+02  0.29791052377E+02  0.14465690999E+03  0.15336226351E+03  0.00000000000E+00 0. -1.
        -12    1    6    6    0    0 -0.25276153398E+02  0.32048224372E+02  0.27522052659E+03  0.27823067925E+03  0.00000000000E+00 0.  1.
</event>
<event>
12    1  0.8251070E-002  0.1879116E+03  0.7818608E-02  0.1160436E+00
         21   -1    0    0  501  502  0.00000000000E+00  0.00000000000E+00  0.97027752780E+02  0.97027752780E+02  0.00000000000E+00 0.  1.
         21   -1    0    0  502  503 -0.00000000000E+00 -0.00000000000E+00 -0.98817076721E+03  0.98817076721E+03  0.00000000000E+00 0. -1.
         -6    2    1    2    0  503 -0.60499406006E+02 -0.42544031792E+02 -0.87720503293E+03  0.89710614858E+03  0.17274431756E+03 0.  0.
        -24    2    3    3    0    0 -0.24636218458E+02  0.57430034227E+02 -0.36718899194E+03  0.37612684557E+03  0.52330641721E+02 0.  0.
          6    2    1    2  501    0  0.60499406006E+02  0.42544031792E+02 -0.13937981504E+02  0.18809237142E+03  0.17237836317E+03 0.  0.
         24    2    5    5    0    0  0.21715596718E+02  0.91026668811E+02 -0.19693764367E+02  0.12556262656E+03  0.81367728606E+02 0.  0.
          5    1    5    5  501    0  0.38783809288E+02 -0.48482637019E+02  0.57557828627E+01  0.62529744855E+02  0.47000000000E+01 0. -1.
        -13    1    6    6    0    0  0.35048174758E+02  0.64281701427E+02  0.19980345459E+02  0.75892858009E+02  0.00000000000E+00 0.  1.
         14    1    6    6    0    0 -0.13332578039E+02  0.26744967385E+02 -0.39674109826E+02  0.49669768553E+02  0.00000000000E+00 0. -1.
         -5    1    3    3    0  503 -0.35863187549E+02 -0.99974066019E+02 -0.51001604099E+03  0.52097930301E+03  0.47000000000E+01 0.  1.
         13    1    4    4    0    0  0.13576651707E+02  0.19469393151E+02 -0.65517280558E+02  0.69684265032E+02  0.00000000000E+00 0. -1.
        -14    1    4    4    0    0 -0.38212870165E+02  0.37960641076E+02 -0.30167171138E+03  0.30644258054E+03  0.00000000000E+00 0.  1.
</event>
<event>
12    1  0.8251070E-002  0.2205248E+03  0.7818608E-02  0.1133803E+00
         21   -1    0    0  503  502  0.00000000000E+00  0.00000000000E+00  0.10780626075E+04  0.10780626075E+04  0.00000000000E+00 0.  1.
         21   -1    0    0  501  503 -0.00000000000E+00 -0.00000000000E+00 -0.47532902115E+02  0.47532902115E+02  0.00000000000E+00 0.  1.
          6    2    1    2  501    0 -0.13837878687E+03 -0.84234959880E+01  0.65277836425E+03  0.68902161472E+03  0.17149795561E+03 0.  0.
         24    2    3    3    0    0 -0.16289033475E+03 -0.24527515690E+02  0.48852139672E+03  0.52210068490E+03  0.82468842249E+02 0.  0.
         -6    2    1    2    0  502  0.13837878687E+03  0.84234959880E+01  0.37775134114E+03  0.43657389490E+03  0.16935479335E+03 0.  0.
        -24    2    5    5    0    0  0.82069432443E+02 -0.56154948826E+02  0.26913228417E+03  0.29814951674E+03  0.81068970213E+02 0.  0.
          5    1    3    3  501    0  0.24511547874E+02  0.16104019702E+02  0.16425696753E+03  0.16692092982E+03  0.47000000000E+01 0. -1.
        -11    1    4    4    0    0 -0.11250486401E+03 -0.53988263837E+02  0.30570761994E+03  0.33019573884E+03  0.00000000000E+00 0.  1.
         12    1    4    4    0    0 -0.50385470736E+02  0.29460748148E+02  0.18281377678E+03  0.19190494606E+03  0.00000000000E+00 0. -1.
         -5    1    5    5    0  502  0.56309354429E+02  0.64578444814E+02  0.10861905697E+03  0.13842437815E+03  0.47000000000E+01 0.  1.
         13    1    6    6    0    0 -0.96126524742E+01 -0.26211881423E+02  0.95861061161E+02  0.99843922510E+02  0.00000000000E+00 0. -1.
        -14    1    6    6    0    0  0.91682084917E+02 -0.29943067403E+02  0.17327122301E+03  0.19830559423E+03  0.00000000000E+00 0.  1.
</event>
<event>
12    1  0.8251070E-002  0.2169308E+03  0.7818608E-02  0.1136299E+00
         21   -1    0    0  501  502  0.00000000000E+00  0.00000000000E+00  0.73488956633E+02  0.73488956633E+02  0.00000000000E+00 0. -1.
         21   -1    0    0  502  503 -0.00000000000E+00 -0.00000000000E+00 -0.83602902227E+03  0.83602902227E+03  0.00000000000E+00 0. -1.
         -6    2    1    2    0  503 -0.97502187918E+02  0.88039541877E+02 -0.60182833453E+03  0.63954159881E+03  0.17192578277E+03 0.  0.
        -24    2    3    3    0    0 -0.96476514534E+02  0.25676685638E+02 -0.52573387194E+03  0.54103964410E+03  0.79754512998E+02 0.  0.
          6    2    1    2  501    0  0.97502187918E+02 -0.88039541877E+02 -0.16071173110E+03  0.26997638009E+03  0.17263066851E+03 0.  0.
         24    2    5    5    0    0  0.11815690854E+03 -0.13735763346E+02 -0.12576548521E+03  0.18517662130E+03  0.65754829312E+02 0.  0.
          5    1    5    5  501    0 -0.20654720623E+02 -0.74303778531E+02 -0.34946245898E+02  0.84799758786E+02  0.47000000000E+01 0. -1.
        -11    1    6    6    0    0  0.70782301839E+01 -0.23005884110E+02 -0.17250091535E+02  0.29613133981E+02  0.00000000000E+00 0.  1.
         12    1    6    6    0    0  0.11107867836E+03  0.92701207637E+01 -0.10851539367E+03  0.15556348732E+03  0.00000000000E+00 0. -1.
         -5    1    3    3    0  503 -0.10256733839E+01  0.62362856239E+02 -0.76094462591E+02  0.98501954708E+02  0.47000000000E+01 0.  1.
         11    1    4    4    0    0 -0.16870134438E+02  0.30877961055E+02 -0.69670011776E+02  0.78051011882E+02  0.00000000000E+00 0. -1.
        -12    1    4    4    0    0 -0.79606380096E+02 -0.52012754176E+01 -0.45606386016E+03  0.46298863222E+03  0.00000000000E+00 0.  1.
</event>
<event>
12    1  0.8251070E-002  0.2911326E+03  0.7818608E-02  0.1089819E+00
         21   -1    0    0  501  502  0.00000000000E+00  0.00000000000E+00  0.13793402653E+03  0.13793402653E+03  0.00000000000E+00 0.  1.
         21   -1    0    0  502  503 -0.00000000000E+00 -0.00000000000E+00 -0.98709883850E+03  0.98709883850E+03  0.00000000000E+00 0. -1.
         -6    2    1    2    0  503  0.52409249752E+01 -0.23447565100E+03 -0.77043232337E+03  0.82344212136E+03  0.17171099014E+03 0.  0.
        -24    2    3    3    0    0  0.40834823482E+01 -0.23578236030E+03 -0.55697984905E+03  0.60993077282E+03  0.78606609948E+02 0.  0.
          6    2    1    2  501    0 -0.52409249752E+01  0.23447565100E+03 -0.78732488606E+02  0.30159074368E+03  0.17248731461E+03 0.  0.
         24    2    5    5    0    0 -0.66793372006E+02  0.16512694498E+03 -0.31537200227E+02  0.19743973788E+03  0.79117587146E+02 0.  0.
          5    1    5    5  501    0  0.61552447031E+02  0.69348706020E+02 -0.47195288378E+02  0.10415100579E+03  0.47000000000E+01 0. -1.
        -13    1    6    6    0    0  0.75118771529E+01  0.72348528005E+02  0.54790458404E+01  0.72943524361E+02  0.00000000000E+00 0.  1.
         14    1    6    6    0    0 -0.74305249159E+02  0.92778416973E+02 -0.37016246068E+02  0.12449621352E+03  0.00000000000E+00 0. -1.
         -5    1    3    3    0  503  0.11574426270E+01  0.13067093029E+01 -0.21345247432E+03  0.21351134854E+03  0.47000000000E+01 0.  1.
         11    1    4    4    0    0 -0.67097165600E+01 -0.93162726324E+02 -0.31786506404E+03  0.33130426017E+03  0.00000000000E+00 0. -1.
        -12    1    4    4    0    0  0.10793198908E+02 -0.14261963398E+03 -0.23911478501E+03  0.27862651264E+03  0.00000000000E+00 0.  1.
</event>
<event>
12    1  0.8251070E-002  0.1958753E+03  0.7818608E-02  0.1153725E+00
         21   -1    0    0  503  502  0.00000000000E+00  0.00000000000E+00  0.67606096880E+02  0.67606096880E+02  0.00000000000E+00 0.  1.
         21   -1    0    0  501  503 -0.00000000000E+00 -0.00000000000E+00 -0.67627443209E+03  0.67627443209E+03  0.00000000000E+00 0.  1.
          6    2    1    2  501    0 -0.88433374549E+02  0.94242508279E+01 -0.14970355757E+03  0.24486571488E+03  0.17215918487E+03 0.  0.
         24    2    3    3    0    0 -0.65106381475E+02 -0.12134344285E+02 -0.17582091317E+03  0.20347576570E+03  0.78123687190E+02 0.  0.
         -6    2    1    2    0  502  0.88433374549E+02 -0.94242508279E+01 -0.45896477764E+03  0.49901481409E+03  0.17452174459E+03 0.  0.
        -24    2    5    5    0    0  0.59296199184E+02 -0.55196458232E+02 -0.40940328023E+03  0.42537717437E+03  0.82292201155E+02 0.  0.
          5    1    3    3  501    0 -0.23326993074E+02  0.21558595113E+02  0.26117355600E+02  0.41389949175E+02  0.47000000000E+01 0. -1.
        -11    1    4    4    0    0  0.40525394058E+00  0.84001797112E+01 -0.10319071083E+03  0.10353284528E+03  0.00000000000E+00 0.  1.
         12    1    4    4    0    0 -0.65511635415E+02 -0.20534523997E+02 -0.72630202337E+02  0.99942920420E+02  0.00000000000E+00 0. -1.
         -5    1    5    5    0  502  0.29137175365E+02  0.45772207404E+02 -0.49561497409E+02  0.73637639725E+02  0.47000000000E+01 0.  1.
         13    1    6    6    0    0  0.38756701354E+02 -0.29295602543E+02 -0.37321454369E+03  0.37636340131E+03  0.00000000000E+00 0. -1.
        -14    1    6    6    0    0  0.20539497829E+02 -0.25900855689E+02 -0.36188736542E+02  0.49013773054E+02  0.00000000000E+00 0.  1.
</event>
<event>
12    1  0.8251070E-002  0.1900075E+03  0.7818608E-02  0.1158742E+00
         21   -1    0    0  503  502  0.00000000000E+00  0.00000000000E+00  0.10799437485E+04  0.10799437485E+04  0.00000000000E+00 0. -1.
         21   -1    0    0  501  503 -0.00000000000E+00 -0.00000000000E+00 -0.40683286026E+02  0.40683286026E+02  0.00000000000E+00 0. -1.
          6    2    1    2  501    0  0.33474632267E+02 -0.74436418960E+02  0.27801764924E+03  0.33602939759E+03  0.17017817511E+03 0.  0.
         24    2    3    3    0    0  0.66258877977E+02 -0.94753243858E+02  0.25266412703E+03  0.28963466482E+03  0.81735315769E+02 0.  0.
         -6    2    1    2    0  502 -0.33474632267E+02  0.74436418960E+02  0.76124281320E+03  0.78459763690E+03  0.17158525493E+03 0.  0.
        -24    2    5    5    0    0 -0.20373774306E+02  0.55661982667E+02  0.20518275013E+03  0.22804665480E+03  0.79949789370E+02 0.  0.
          5    1    3    3  501    0 -0.32784245710E+02  0.20316824898E+02  0.25353522211E+02  0.46394732774E+02  0.47000000000E+01 0. -1.
        -13    1    4    4    0    0 -0.12854195576E+02 -0.47315605769E+02  0.97111673525E+02  0.10878728799E+03  0.00000000000E+00 0.  1.
         14    1    4    4    0    0  0.79113073553E+02 -0.47437638089E+02  0.15555245351E+03  0.18084737683E+03  0.00000000000E+00 0. -1.
         -5    1    5    5    0  502 -0.13100857960E+02  0.18774436293E+02  0.55606006307E+03  0.55655098210E+03  0.47000000000E+01 0.  1.
         13    1    6    6    0    0  0.23139133404E+02  0.49542481871E+02  0.98311583323E+02  0.11249464174E+03  0.00000000000E+00 0. -1.
        -14    1    6    6    0    0 -0.43512907711E+02  0.61195007961E+01  0.10687116681E+03  0.11555201306E+03  0.00000000000E+00 0.  1.
</event>
<event>
12    1  0.8251070E-002  0.2324688E+03  0.7818608E-02  0.1125085E+00
         21   -1    0    0  501  502  0.00000000000E+00  0.00000000000E+00  0.14788306528E+03  0.14788306528E+03  0.00000000000E+00 0.  1.
         21   -1    0    0  502  503 -0.00000000000E+00 -0.00000000000E+00 -0.44891749824E+03  0.44891749824E+03  0.00000000000E+00 0. -1.
         -6    2    1    2    0  503  0.32861702051E+02  0.15192010505E+03 -0.28011994587E+03  0.36339288274E+03  0.17154472703E+03 0.  0.
        -24    2    3    3    0    0  0.44877562726E+02  0.16890858925E+03 -0.19221594816E+03  0.27293741128E+03  0.83688425658E+02 0.  0.
          6    2    1    2  501    0 -0.32861702051E+02 -0.15192010505E+03 -0.20914487099E+02  0.23340768078E+03  0.17286445527E+03 0.  0.
         24    2    5    5    0    0 -0.41563542387E+02 -0.18215133119E+03 -0.13056653107E+02  0.20064360573E+03  0.71977391025E+02 0.  0.
          5    1    5    5  501    0  0.87018403358E+01  0.30231226140E+02 -0.78578339913E+01  0.32764075055E+02  0.47000000000E+01 0. -1.
        -13    1    6    6    0    0 -0.31590172993E+02 -0.40398451477E+02  0.19487974156E+02  0.54861234476E+02  0.00000000000E+00 0.  1.
         14    1    6    6    0    0 -0.99733693944E+01 -0.14175287971E+03 -0.32544627264E+02  0.14578237125E+03  0.00000000000E+00 0. -1.
         -5    1    3    3    0  503 -0.12015860675E+02 -0.16988484205E+02 -0.87903997710E+02  0.90455471459E+02  0.47000000000E+01 0.  1.
         13    1    4    4    0    0  0.16328781231E+02  0.15946476513E+03 -0.17842224489E+03  0.23985440977E+03  0.00000000000E+00 0. -1.
        -14    1    4    4    0    0  0.28548781496E+02  0.94438241273E+01 -0.13793703264E+02  0.33083001508E+02  0.00000000000E+00 0.  1.
</event>
<event>
12    1  0.8251070E-002  0.2056215E+03  0.7818608E-02  0.1145652E+00
         21   -1    0    0  503  502  0.00000000000E+00  0.00000000000E+00  0.40596966768E+03  0.40596966768E+03  0.00000000000E+00 0. -1.
         21   -1    0    0  501  503 -0.00000000000E+00 -0.00000000000E+00 -0.29070809369E+03  0.29070809369E+03  0.00000000000E+00 0.  1.
          6    2    1    2  501    0  0.93335628800E+02 -0.63366340031E+02  0.33759101605E+03  0.39384022688E+03  0.16856926630E+03 0.  0.
         24    2    3    3    0    0  0.40007449176E+02  0.29953397651E+02  0.17349030331E+03  0.19761687938E+03  0.80347642490E+02 0.  0.
         -6    2    1    2    0  502 -0.93335628800E+02  0.63366340031E+02 -0.22232944205E+03  0.30283753449E+03  0.17191090378E+03 0.  0.
        -24    2    5    5    0    0 -0.45675501046E+02  0.93544139291E+02 -0.20937039209E+03  0.24476676454E+03  0.72374377727E+02 0.  0.
          5    1    3    3  501    0  0.53328179625E+02 -0.93319737681E+02  0.16410071274E+03  0.19622334750E+03  0.47000000000E+01 0. -1.
        -11    1    4    4    0    0 -0.10040042443E+02  0.79784067184E+01  0.12151841122E+03  0.12219321458E+03  0.00000000000E+00 0.  1.
         12    1    4    4    0    0  0.50047491619E+02  0.21974990932E+02  0.51971892098E+02  0.75423664801E+02  0.00000000000E+00 0. -1.
         -5    1    5    5    0  502 -0.47660127754E+02 -0.30177799260E+02 -0.12959049967E+02  0.58070769943E+02  0.47000000000E+01 0.  1.
         11    1    6    6    0    0  0.17947276631E+02  0.35498360654E+02 -0.80130254268E+02  0.89460024573E+02  0.00000000000E+00 0. -1.
        -12    1    6    6    0    0 -0.63622777678E+02  0.58045778637E+02 -0.12924013782E+03  0.15530673997E+03  0.00000000000E+00 0.  1.
</event>
<event>
12    1  0.8251070E-002  0.1859753E+03  0.7818608E-02  0.1163105E+00
         21   -1    0    0  503  502  0.00000000000E+00  0.00000000000E+00  0.21123450427E+03  0.21123450427E+03  0.00000000000E+00 0.  1.
         21   -1    0    0  501  503 -0.00000000000E+00 -0.00000000000E+00 -0.19156232552E+03  0.19156232552E+03  0.00000000000E+00 0.  1.
          6    2    1    2  501    0  0.22761615471E+02 -0.66067296935E+02 -0.71815432235E+02  0.19553663766E+03  0.16791111190E+03 0.  0.
         24    2    3    3    0    0  0.18429519855E+02  0.27353760819E+02 -0.50264079759E+02  0.99449115695E+02  0.79219779509E+02 0.  0.
         -6    2    1    2    0  502 -0.22761615471E+02  0.66067296935E+02  0.91487610985E+02  0.20726019212E+03  0.17234797769E+03 0.  0.
        -24    2    5    5    0    0 -0.43054694724E+02 -0.27201946057E+01  0.10017092982E+03  0.13486531603E+03  0.79330524333E+02 0.  0.
          5    1    3    3  501    0  0.43320956165E+01 -0.93421057754E+02 -0.21551352476E+02  0.96087521967E+02  0.47000000000E+01 0. -1.
        -11    1    4    4    0    0  0.36193210040E+02  0.20974143293E+02  0.39750006953E+01  0.42019802123E+02  0.00000000000E+00 0.  1.
         12    1    4    4    0    0 -0.17763690186E+02  0.63796175257E+01 -0.54239080454E+02  0.57429313572E+02  0.00000000000E+00 0. -1.
         -5    1    5    5    0  502  0.20293079253E+02  0.68787491541E+02 -0.86833188390E+01  0.72394876090E+02  0.47000000000E+01 0.  1.
         13    1    6    6    0    0  0.20725369341E+02  0.18849709424E+01  0.48069427377E+02  0.52380949764E+02  0.00000000000E+00 0. -1.
        -14    1    6    6    0    0 -0.63780064065E+02 -0.46051655481E+01  0.52101502447E+02  0.82484366271E+02  0.00000000000E+00 0.  1.
</event>
<event>
12    1  0.8251070E-002  0.2132727E+03  0.7818608E-02  0.1139702E+00
         21   -1    0    0  503  502  0.00000000000E+00  0.00000000000E+00  0.40058355177E+03  0.40058355177E+03  0.00000000000E+00 0. -1.
         21   -1    0    0  501  503 -0.00000000000E+00 -0.00000000000E+00 -0.15911328175E+03  0.15911328175E+03  0.00000000000E+00 0.  1.
          6    2    1    2  501    0 -0.28528599136E+02 -0.11315941342E+03 -0.32827332009E+02  0.21224260665E+03  0.17421353719E+03 0.  0.
         24    2    3    3    0    0 -0.21691256299E+02  0.12080492410E+02 -0.18871157525E+02  0.85954649688E+02  0.80097642412E+02 0.  0.
         -6    2    1    2    0  502  0.28528599136E+02  0.11315941342E+03  0.27429760203E+03  0.34745422687E+03  0.17851143235E+03 0.  0.
        -24    2    5    5    0    0  0.22891783049E+02 -0.11452133521E+02  0.15410707546E+03  0.17416930542E+03  0.77011500120E+02 0.  0.
          5    1    3    3  501    0 -0.68373428367E+01 -0.12523990583E+03 -0.13956174484E+02  0.12628795697E+03  0.47000000000E+01 0. -1.
        -11    1    4    4    0    0  0.15917514735E+02 -0.19315010689E+02  0.12300227644E+02  0.27887856019E+02  0.00000000000E+00 0.  1.
         12    1    4    4    0    0 -0.37608771034E+02  0.31395503099E+02 -0.31171385170E+02  0.58066793669E+02  0.00000000000E+00 0. -1.
         -5    1    5    5    0  502  0.56368160872E+01  0.12461154694E+03  0.12019052657E+03  0.17328492145E+03  0.47000000000E+01 0.  1.
         13    1    6    6    0    0  0.45139595267E+01  0.15399815855E+02  0.13597669017E+03  0.13692037989E+03  0.00000000000E+00 0. -1.
        -14    1    6    6    0    0  0.18377823522E+02 -0.26851949376E+02  0.18130385291E+02  0.37248925535E+02  0.00000000000E+00 0.  1.
</event>
<event>
12    1  0.8251070E-002  0.1751273E+03  0.7818608E-02  0.1172632E+00
         21   -1    0    0  503  502  0.00000000000E+00  0.00000000000E+00  0.20611857235E+03  0.20611857235E+03  0.00000000000E+00 0. -1.
         21   -1    0    0  501  503 -0.00000000000E+00 -0.00000000000E+00 -0.38409727474E+03  0.38409727474E+03  0.00000000000E+00 0. -1.
          6    2    1    2  501    0  0.24792860511E+02 -0.23272612263E+02 -0.32000399853E+03  0.36473688411E+03  0.17168032835E+03 0.  0.
         24    2    3    3    0    0 -0.18881550968E+02 -0.12715540585E+02 -0.50861610776E+02  0.91829169186E+02  0.72989690527E+02 0.  0.
         -6    2    1    2    0  502 -0.24792860511E+02  0.23272612263E+02  0.14202529614E+03  0.22547896297E+03  0.17179428857E+03 0.  0.
        -24    2    5    5    0    0  0.50883815048E+02  0.27043140947E+02  0.72648088508E+02  0.12263703063E+03  0.80259593886E+02 0.  0.
          5    1    3    3  501    0  0.43674411478E+02 -0.10557071678E+02 -0.26914238775E+03  0.27290771492E+03  0.47000000000E+01 0. -1.
        -11    1    4    4    0    0  0.61866126398E+01  0.18116150774E+02  0.80513686900E+01  0.20767610180E+02  0.00000000000E+00 0.  1.
         12    1    4    4    0    0 -0.25068163607E+02 -0.30831691359E+02 -0.58912979466E+02  0.71061559005E+02  0.00000000000E+00 0. -1.
         -5    1    5    5    0  502 -0.75676675558E+02 -0.37705286840E+01  0.69377207629E+02  0.10284193235E+03  0.47000000000E+01 0.  1.
         13    1    6    6    0    0  0.16080518211E+02  0.50945245235E+02  0.55594997590E+02  0.77102560496E+02  0.00000000000E+00 0. -1.
        -14    1    6    6    0    0  0.34803296836E+02 -0.23902104289E+02  0.17053090918E+02  0.45534470130E+02  0.00000000000E+00 0.  1.
</event>
<event>
12    1  0.8251070E-002  0.2497301E+03  0.7818608E-02  0.1113708E+00
         21   -1    0    0  503  502  0.00000000000E+00  0.00000000000E+00  0.29830293169E+03  0.29830293169E+03  0.00000000000E+00 0. -1.
         21   -1    0    0  501  503 -0.00000000000E+00 -0.00000000000E+00 -0.38019463322E+03  0.38019463322E+03  0.00000000000E+00 0.  1.
          6    2    1    2  501    0 -0.15417201698E+03 -0.92833438945E+02 -0.26929589935E+03  0.36627099369E+03  0.17101783884E+03 0.  0.
         24    2    3    3    0    0 -0.11187182258E+03 -0.95472408935E+02 -0.27623401089E+03  0.32306800767E+03  0.80233554409E+02 0.  0.
         -6    2    1    2    0  502  0.15417201698E+03  0.92833438945E+02  0.18740419783E+03  0.31222657122E+03  0.17314167670E+03 0.  0.
        -24    2    5    5    0    0  0.78770035082E+02 -0.19511155606E+02  0.75110296233E+02  0.13633234979E+03  0.79746782875E+02 0.  0.
          5    1    3    3  501    0 -0.42300194401E+02  0.26389699904E+01  0.69381115393E+01  0.43202986016E+02  0.47000000000E+01 0. -1.
        -13    1    4    4    0    0 -0.73124840480E+02 -0.54635031301E+02 -0.23830322262E+03  0.25518748961E+03  0.00000000000E+00 0.  1.
         14    1    4    4    0    0 -0.38746982102E+02 -0.40837377634E+02 -0.37930788269E+02  0.67880518065E+02  0.00000000000E+00 0. -1.
         -5    1    5    5    0  502  0.75401981901E+02  0.11234459455E+03  0.11229390159E+03  0.17589422144E+03  0.47000000000E+01 0.  1.
         13    1    6    6    0    0  0.31694443941E+02  0.17542801364E+02  0.66609748397E+02  0.75823124691E+02  0.00000000000E+00 0. -1.
        -14    1    6    6    0    0  0.47075591141E+02 -0.37053956971E+02  0.85005478363E+01  0.60509225098E+02  0.00000000000E+00 0.  1.
</event>
<event>
12    1  0.8251070E-002  0.1756846E+03  0.7818608E-02  0.1172178E+00
         21   -1    0    0  501  502  0.00000000000E+00  0.00000000000E+00  0.84664065691E+02  0.84664065691E+02  0.00000000000E+00 0. -1.
         21   -1    0    0  502  503 -0.00000000000E+00 -0.00000000000E+00 -0.68181347910E+03  0.68181347910E+03  0.00000000000E+00 0. -1.
         -6    2    1    2    0  503 -0.34458926231E+02  0.59183468715E+01 -0.56068457035E+03  0.58756468671E+03  0.17217034937E+03 0.  0.
        -24    2    3    3    0    0  0.26810563847E+02 -0.10125813510E+02 -0.46995246095E+03  0.47681374461E+03  0.75330558671E+02 0.  0.
          6    2    1    2  501    0  0.34458926231E+02 -0.59183468715E+01 -0.36464843057E+02  0.17891285809E+03  0.17163240249E+03 0.  0.
         24    2    5    5    0    0 -0.17137237424E+02 -0.50754722548E+02 -0.52336971683E+02  0.10858164770E+03  0.78619901072E+02 0.  0.
          5    1    5    5  501    0  0.51596163655E+02  0.44836375676E+02  0.15872128626E+02  0.70331210389E+02  0.47000000000E+01 0. -1.
        -13    1    6    6    0    0  0.14791890861E+02  0.43397353065E+01  0.10868055481E+02  0.18861282239E+02  0.00000000000E+00 0.  1.
         14    1    6    6    0    0 -0.31929128285E+02 -0.55094457854E+02 -0.63205027164E+02  0.89720365459E+02  0.00000000000E+00 0. -1.
         -5    1    3    3    0  503 -0.61269490078E+02  0.16044160382E+02 -0.90732109408E+02  0.11075094209E+03  0.47000000000E+01 0.  1.
         13    1    4    4    0    0  0.92101987154E+01  0.13238047011E+00 -0.44266444233E+03  0.44276026672E+03  0.00000000000E+00 0. -1.
        -14    1    4    4    0    0  0.17600365131E+02 -0.10258193981E+02 -0.27288018620E+02  0.34053477894E+02  0.00000000000E+00 0.  1.
</event>
<event>
12    1  0.8251070E-002  0.1777943E+03  0.7818608E-02  0.1170986E+00
         21   -1    0    0  501  502  0.00000000000E+00  0.00000000000E+00  0.39799309123E+03  0.39799309123E+03  0.00000000000E+00 0. -1.
         21   -1    0    0  502  503 -0.00000000000E+00 -0.00000000000E+00 -0.32364647838E+03  0.32364647838E+03  0.00000000000E+00 0. -1.
         -6    2    1    2    0  503  0.40651804538E+02  0.21697196754E+02 -0.27732851915E+03  0.32942666546E+03  0.17171919760E+03 0.  0.
        -24    2    3    3    0    0 -0.36352605596E+02  0.15870275551E+02 -0.90080848142E+02  0.12682505518E+03  0.79979108774E+02 0.  0.
          6    2    1    2  501    0 -0.40651804538E+02 -0.21697196754E+02  0.35167513200E+03  0.39221290415E+03  0.16742827167E+03 0.  0.
         24    2    5    5    0    0 -0.70581913843E+02 -0.62287486607E+02  0.24990280606E+03  0.27853318124E+03  0.79169331337E+02 0.  0.
          5    1    5    5  501    0  0.29930109305E+02  0.40590289853E+02  0.10177232594E+03  0.11367972291E+03  0.47000000000E+01 0. -1.
        -13    1    6    6    0    0 -0.30127487987E+02  0.16547245660E+02  0.72126086644E+02  0.79897742433E+02  0.00000000000E+00 0.  1.
         14    1    6    6    0    0 -0.40454425856E+02 -0.78834732267E+02  0.17777671942E+03  0.19863543881E+03  0.00000000000E+00 0. -1.
         -5    1    3    3    0  503  0.77004410134E+02  0.58269212025E+01 -0.18724767101E+03  0.20260161028E+03  0.47000000000E+01 0.  1.
         11    1    4    4    0    0  0.78950310318E+01  0.33833531177E+01 -0.79088300750E+02  0.79553365164E+02  0.00000000000E+00 0. -1.
        -12    1    4    4    0    0 -0.44247636628E+02  0.12486922434E+02 -0.10992547391E+02  0.47271690018E+02  0.00000000000E+00 0.  1.
</event>
<event>
12    1  0.8251070E-002  0.2907625E+03  0.7818608E-02  0.1089976E+00
         21   -1    0    0  503  502  0.00000000000E+00  0.00000000000E+00  0.70017597328E+03  0.70017597328E+03  0.00000000000E+00 0.  1.
         21   -1    0    0  501  503 -0.00000000000E+00 -0.00000000000E+00 -0.17115701091E+03  0.17115701091E+03  0.00000000000E+00 0. -1.
          6    2    1    2  501    0 -0.22249065449E+03 -0.74637963873E+02  0.27944423111E+02  0.29210221611E+03  0.17166798445E+03 0.  0.
         24    2    3    3    0    0 -0.33332869626E+02 -0.43963174836E+02  0.17087991281E+02  0.10010856421E+03  0.81767256540E+02 0.  0.
         -6    2    1    2    0  502  0.22249065449E+03  0.74637963873E+02  0.50107453926E+03  0.57923076809E+03  0.17134664227E+03 0.  0.
        -24    2    5    5    0    0  0.11637300993E+03  0.76576105291E+02  0.40567792277E+03  0.43644661169E+03  0.80650421546E+02 0.  0.
          5    1    3    3  501    0 -0.18915778487E+03 -0.30674789037E+02  0.10856431830E+02  0.19199365190E+03  0.47000000000E+01 0. -1.
        -11    1    4    4    0    0 -0.13696609536E+02  0.12909347299E+01  0.42461722139E+02  0.44634756326E+02  0.00000000000E+00 0.  1.
         12    1    4    4    0    0 -0.19636260090E+02 -0.45254109566E+02 -0.25373730859E+02  0.55473807879E+02  0.00000000000E+00 0. -1.
         -5    1    5    5    0  502  0.10611764456E+03 -0.19381414182E+01  0.95396616494E+02  0.14278415640E+03  0.47000000000E+01 0.  1.
         13    1    6    6    0    0  0.57022075206E+02  0.82327515310E+02  0.22784514673E+03  0.24888300008E+03  0.00000000000E+00 0. -1.
        -14    1    6    6    0    0  0.59350934728E+02 -0.57514100194E+01  0.17783277604E+03  0.18756361162E+03  0.00000000000E+00 0.  1.
</event>
<event>
12    1  0.8251070E-002  0.2375179E+03  0.7818608E-02  0.1121529E+00
         21   -1    0    0  503  502  0.00000000000E+00  0.00000000000E+00  0.38023065199E+03  0.38023065199E+03  0.00000000000E+00 0. -1.
         21   -1    0    0  501  503 -0.00000000000E+00 -0.00000000000E+00 -0.14811052775E+03  0.14811052775E+03  0.00000000000E+00 0.  1.
          6    2    1    2  501    0 -0.49040272153E+02  0.15684299701E+03  0.11453669513E+03  0.26331171850E+03  0.17090855030E+03 0.  0.
         24    2    3    3    0    0 -0.73744856899E+02  0.17519414476E+03  0.96624608728E+02  0.22739495403E+03  0.78999100180E+02 0.  0.
         -6    2    1    2    0  502  0.49040272153E+02 -0.15684299701E+03  0.11758342911E+03  0.26502946125E+03  0.17149366904E+03 0.  0.
        -24    2    5    5    0    0  0.13685628587E+02 -0.10650435108E+03  0.38012036092E+01  0.13559834081E+03  0.82716308263E+02 0.  0.
          5    1    3    3  501    0  0.24704584746E+02 -0.18351147745E+02  0.17912086398E+02  0.35916764473E+02  0.47000000000E+01 0. -1.
        -11    1    4    4    0    0  0.29765627842E+00  0.41554831896E+02 -0.78745844842E+01  0.42295410318E+02  0.00000000000E+00 0.  1.
         12    1    4    4    0    0 -0.74042513177E+02  0.13363931286E+03  0.10449919321E+03  0.18509954371E+03  0.00000000000E+00 0. -1.
         -5    1    5    5    0  502  0.35354643566E+02 -0.50338645930E+02  0.11378222551E+03  0.12943112043E+03  0.47000000000E+01 0.  1.
         13    1    6    6    0    0 -0.16218199893E+02  0.57109576924E+01  0.88877500226E+01  0.19355545613E+02  0.00000000000E+00 0. -1.
        -14    1    6    6    0    0  0.29903828480E+02 -0.11221530877E+03 -0.50865464134E+01  0.11624279520E+03  0.00000000000E+00 0.  1.
</event>
<event>
12    1  0.8251070E-002  0.1892352E+03  0.7818608E-02  0.1159417E+00
         21   -1    0    0  501  502  0.00000000000E+00  0.00000000000E+00  0.74046653896E+02  0.74046653896E+02  0.00000000000E+00 0. -1.
         21   -1    0    0  502  503 -0.00000000000E+00 -0.00000000000E+00 -0.96788562636E+03  0.96788562636E+03  0.00000000000E+00 0. -1.
         -6    2    1    2    0  503  0.82072838119E+01 -0.78052627077E+02 -0.81722852640E+03  0.83885185344E+03  0.17219290217E+03 0.  0.
        -24    2    3    3    0    0 -0.45359348518E+02 -0.82738846809E+02 -0.68632206332E+03  0.69725405392E+03  0.78879996388E+02 0.  0.
          6    2    1    2  501    0 -0.82072838119E+01  0.78052627077E+02 -0.76610446070E+02  0.20308042682E+03  0.17091789611E+03 0.  0.
         24    2    5    5    0    0 -0.43153167120E+02  0.10680518299E+03 -0.79597768907E+02  0.15748505064E+03  0.72084626753E+02 0.  0.
          5    1    5    5  501    0  0.34945883308E+02 -0.28752555911E+02  0.29873228366E+01  0.45595376184E+02  0.47000000000E+01 0. -1.
        -13    1    6    6    0    0 -0.40822442805E+02  0.36321028971E+02 -0.65965136317E+02  0.85656804700E+02  0.00000000000E+00 0.  1.
         14    1    6    6    0    0 -0.23307243157E+01  0.70484154016E+02 -0.13632632589E+02  0.71828245938E+02  0.00000000000E+00 0. -1.
         -5    1    3    3    0  503  0.53566632330E+02  0.46862197329E+01 -0.13090646308E+03  0.14159779952E+03  0.47000000000E+01 0.  1.
         11    1    4    4    0    0 -0.12745756968E+02 -0.63016817405E+02 -0.59261995852E+03  0.59609729813E+03  0.00000000000E+00 0. -1.
        -12    1    4    4    0    0 -0.32613591550E+02 -0.19722029405E+02 -0.93702104799E+02  0.10115675579E+03  0.00000000000E+00 0.  1.
</event>
<event>
12    1  0.8251070E-002  0.2795317E+03  0.7818608E-02  0.1096137E+00
         21   -1    0    0  503  502  0.00000000000E+00  0.00000000000E+00  0.28834393856E+03  0.28834393856E+03  0.00000000000E+00 0.  1.
         21   -1    0    0  501  503 -0.00000000000E+00 -0.00000000000E+00 -0.38133256360E+03  0.38133256360E+03  0.00000000000E+00 0.  1.
          6    2    1    2  501    0  0.21002375392E+03 -0.66449683380E+02 -0.22779947671E+03  0.36059748855E+03  0.17208256601E+03 0.  0.
         24    2    3    3    0    0  0.15038466784E+03 -0.11116213195E+03 -0.18671462746E+03  0.27535619290E+03  0.77369974523E+02 0.  0.
         -6    2    1    2    0  502 -0.21002375392E+03  0.66449683380E+02  0.13481085166E+03  0.30907901361E+03  0.16979497428E+03 0.  0.
        -24    2    5    5    0    0 -0.75433367074E+02  0.21260052751E+02 -0.19910746843E+01  0.11186458208E+03  0.79796852284E+02 0.  0.
          5    1    3    3  501    0  0.59639086087E+02  0.44712448574E+02 -0.41084849245E+02  0.85241295651E+02  0.47000000000E+01 0. -1.
        -13    1    4    4    0    0  0.60308086470E+02 -0.10259521060E+02 -0.91021786600E+02  0.10966899608E+03  0.00000000000E+00 0.  1.
         14    1    4    4    0    0  0.90076581367E+02 -0.10090261089E+03 -0.95692840864E+02  0.16568719682E+03  0.00000000000E+00 0. -1.
         -5    1    5    5    0  502 -0.13459038685E+03  0.45189630629E+02  0.13680192635E+03  0.19721443153E+03  0.47000000000E+01 0.  1.
         13    1    6    6    0    0 -0.28694089376E+02 -0.27080597661E+02 -0.17011324734E+02  0.42966204207E+02  0.00000000000E+00 0. -1.
        -14    1    6    6    0    0 -0.46739277698E+02  0.48340650412E+02  0.15020250049E+02  0.68898377873E+02  0.00000000000E+00 0.  1.
</event>
<event>
12    1  0.8251070E-002  0.1849365E+03  0.7818608E-02  0.1163368E+00
         21   -1    0    0  503  502  0.00000000000E+00  0.00000000000E+00  0.45253862173E+03  0.45253862173E+03  0.00000000000E+00 0.  1.
         21   -1    0    0  501  503 -0.00000000000E+00 -0.00000000000E+00 -0.13898148592E+03  0.13898148592E+03  0.00000000000E+00 0.  1.
          6    2    1    2  501    0 -0.56135523903E+02  0.29437886173E+02 -0.43950149135E+02  0.18901176359E+03  0.17255736722E+03 0.  0.
         24    2    3    3    0    0 -0.64415005280E+02  0.31871096944E+01  0.33282293930E+02  0.10688629044E+03  0.78469850404E+02 0.  0.
         -6    2    1    2    0  502  0.56135523903E+02 -0.29437886173E+02  0.35750728494E+03  0.40250834406E+03  0.17373463116E+03 0.  0.
        -24    2    5    5    0    0 -0.18652474223E+02 -0.62056515575E+02  0.22176926072E+03  0.24406554407E+03  0.78660402261E+02 0.  0.
          5    1    3    3  501    0  0.82794813772E+01  0.26250776479E+02 -0.77232443066E+02  0.82125473146E+02  0.47000000000E+01 0. -1.
        -13    1    4    4    0    0 -0.74034919067E+02  0.22916630982E+02  0.16454314436E+02  0.79228061193E+02  0.00000000000E+00 0.  1.
         14    1    4    4    0    0  0.96199137870E+01 -0.19729521287E+02  0.16827979495E+02  0.27658229252E+02  0.00000000000E+00 0. -1.
         -5    1    5    5    0  502  0.74787998126E+02  0.32618629402E+02  0.13573802422E+03  0.15844279999E+03  0.47000000000E+01 0.  1.
         13    1    6    6    0    0 -0.39318948299E+02 -0.46245672570E+01  0.10674012314E+03  0.11384559809E+03  0.00000000000E+00 0. -1.
        -14    1    6    6    0    0  0.20666474076E+02 -0.57431948318E+02  0.11502913758E+03  0.13021994598E+03  0.00000000000E+00 0.  1.
</event>
<event>
12    1  0.8251070E-002  0.2081226E+03  0.7818608E-02  0.1143487E+00
         21   -1    0    0  503  502  0.00000000000E+00  0.00000000000E+00  0.18393998125E+03  0.18393998125E+03  0.00000000000E+00 0.  1.
         21   -1    0    0  501  503 -0.00000000000E+00 -0.00000000000E+00 -0.33621509543E+03  0.33621509543E+03  0.00000000000E+00 0. -1.
          6    2    1    2  501    0  0.56852842193E+02  0.10082865459E+03 -0.22043546985E+03  0.30316137924E+03  0.17296347084E+03 0.  0.
         24    2    3    3    0    0  0.40267514613E+02  0.17648464020E+02 -0.35650722370E+02  0.99786085523E+02  0.82178755424E+02 0.  0.
         -6    2    1    2    0  502 -0.56852842193E+02 -0.10082865459E+03  0.68160355669E+02  0.21699369745E+03  0.17041645283E+03 0.  0.
        -24    2    5    5    0    0  0.10055433430E+02 -0.17660457672E+02  0.62227891469E+02  0.10998458355E+03  0.88381528813E+02 0.  0.
          5    1    3    3  501    0  0.16585327580E+02  0.83180190571E+02 -0.18478474748E+03  0.20337529372E+03  0.47000000000E+01 0. -1.
        -13    1    4    4    0    0 -0.12251723487E+02  0.14325132287E+02 -0.42715501536E+02  0.46689701380E+02  0.00000000000E+00 0.  1.
         14    1    4    4    0    0  0.52519238100E+02  0.33233317338E+01  0.70647791665E+01  0.53096384143E+02  0.00000000000E+00 0. -1.
         -5    1    5    5    0  502 -0.66908275623E+02 -0.83168196919E+02  0.59324642004E+01  0.10700911390E+03  0.47000000000E+01 0.  1.
         11    1    6    6    0    0  0.19652189108E+02 -0.47949385334E+02  0.16658712786E+02  0.54432203725E+02  0.00000000000E+00 0. -1.
        -12    1    6    6    0    0 -0.95967556783E+01  0.30288927662E+02  0.45569178682E+02  0.55552379825E+02  0.00000000000E+00 0.  1.
</event>
<event>
12    1  0.8251070E-002  0.1802133E+03  0.7818608E-02  0.1167901E+00
         21   -1    0    0  501  502  0.00000000000E+00  0.00000000000E+00  0.32543471825E+02  0.32543471825E+02  0.00000000000E+00 0.  1.
         21   -1    0    0  502  503 -0.00000000000E+00 -0.00000000000E+00 -0.15007864503E+04  0.15007864503E+04  0.00000000000E+00 0.  1.
         -6    2    1    2    0  503 -0.96474367173E+01  0.54825582064E+02 -0.11826401798E+04  0.11962920363E+04  0.17139989414E+03 0.  0.
        -24    2    3    3    0    0 -0.60418457236E+02  0.71730913964E+02 -0.72256365322E+03  0.73309015040E+03  0.80791222735E+02 0.  0.
          6    2    1    2  501    0  0.96474367173E+01 -0.54825582064E+02 -0.28560279871E+03  0.33703788588E+03  0.17007839487E+03 0.  0.
         24    2    5    5    0    0  0.38931790060E+02  0.14476844618E+02 -0.10262031043E+03  0.13913619131E+03  0.84277448425E+02 0.  0.
          5    1    5    5  501    0 -0.29284353343E+02 -0.69302426682E+02 -0.18298248828E+03  0.19790169457E+03  0.47000000000E+01 0. -1.
        -13    1    6    6    0    0 -0.10677139595E+02 -0.27093029678E+02 -0.35046286536E+02  0.45566169106E+02  0.00000000000E+00 0.  1.
         14    1    6    6    0    0  0.49608929655E+02  0.41569874296E+02 -0.67574023894E+02  0.93570022207E+02  0.00000000000E+00 0. -1.
         -5    1    3    3    0  503  0.50771020518E+02 -0.16905331900E+02 -0.46007652659E+03  0.46320188589E+03  0.47000000000E+01 0.  1.
         13    1    4    4    0    0 -0.49279859583E+01 -0.11310112215E+02 -0.20262068526E+02  0.23722459925E+02  0.00000000000E+00 0. -1.
        -14    1    4    4    0    0 -0.55490471277E+02  0.83041026179E+02 -0.70230158469E+03  0.70936769048E+03  0.00000000000E+00 0.  1.
</event>
<event>
12    1  0.8251070E-002  0.2103153E+03  0.7818608E-02  0.1143461E+00
         21   -1    0    0  501  502  0.00000000000E+00  0.00000000000E+00  0.62737303935E+03  0.62737303935E+03  0.00000000000E+00 0.  1.
         21   -1    0    0  502  503 -0.00000000000E+00 -0.00000000000E+00 -0.23120532627E+04  0.23120532627E+04  0.00000000000E+00 0.  1.
         -6    2    1    2    0  503 -0.22980297113E+02  0.99375401390E+02 -0.22912132757E+04  0.23008456714E+04  0.18392651899E+03 0.  0.
        -24    2    3    3    0    0  0.59603673969E+02  0.64319084640E+02 -0.12305220307E+04  0.12363565616E+04  0.81875129398E+02 0.  0.
          6    2    1    2  501    0  0.22980297113E+02 -0.99375401390E+02  0.60653305232E+03  0.63858063069E+03  0.17175364297E+03 0.  0.
         24    2    5    5    0    0 -0.29325098022E+02 -0.10366721673E+03  0.31429454714E+03  0.34162994799E+03  0.79517959031E+02 0.  0.
          5    1    5    5  501    0  0.52305395135E+02  0.42918153361E+01  0.29223850519E+03  0.29695068269E+03  0.47000000000E+01 0. -1.
        -13    1    6    6    0    0  0.25789812798E+02 -0.53063039582E+02  0.14451474591E+03  0.15609392172E+03  0.00000000000E+00 0.  1.
         14    1    6    6    0    0 -0.55114910820E+02 -0.50604177145E+02  0.16977980122E+03  0.18553602627E+03  0.00000000000E+00 0. -1.
         -5    1    3    3    0  503 -0.82583971081E+02  0.35056316750E+02 -0.10606912450E+04  0.10644891098E+04  0.47000000000E+01 0.  1.
         11    1    4    4    0    0 -0.10896016491E+02  0.51088591468E+01 -0.30206951061E+02  0.32515896259E+02  0.00000000000E+00 0. -1.
        -12    1    4    4    0    0  0.70499690460E+02  0.59210225493E+02 -0.12003150796E+04  0.12038406653E+04  0.00000000000E+00 0.  1.
</event>
<event>
12    1  0.8251070E-002  0.2223087E+03  0.7818608E-02  0.1132515E+00
         21   -1    0    0  501  502  0.00000000000E+00  0.00000000000E+00  0.45804810271E+03  0.45804810271E+03  0.00000000000E+00 0. -1.
         21   -1    0    0  502  503 -0.00000000000E+00 -0.00000000000E+00 -0.16059113367E+03  0.16059113367E+03  0.00000000000E+00 0. -1.
         -6    2    1    2    0  503 -0.15083173974E+01  0.13838488046E+03 -0.30372020048E+02  0.22254203461E+03  0.17160957842E+03 0.  0.
        -24    2    3    3    0    0  0.26542147468E+02  0.17154524345E+02 -0.46373179517E+02  0.96996206612E+02  0.79114025438E+02 0.  0.
          6    2    1    2  501    0  0.15083173974E+01 -0.13838488046E+03  0.32782898909E+03  0.39609720177E+03  0.17397843832E+03 0.  0.
         24    2    5    5    0    0  0.49476552554E+02 -0.87754535305E+02  0.28293078930E+03  0.31301698885E+03  0.88210067755E+02 0.  0.
          5    1    5    5  501    0 -0.47968235156E+02 -0.50630345156E+02  0.44898199786E+02  0.83080212918E+02  0.47000000000E+01 0. -1.
        -13    1    6    6    0    0  0.19161981452E+01 -0.26280151821E+00 -0.65798372495E+01  0.68582168382E+01  0.00000000000E+00 0.  1.
         14    1    6    6    0    0  0.47560354408E+02 -0.87491733787E+02  0.28951062655E+03  0.30615877201E+03  0.00000000000E+00 0. -1.
         -5    1    3    3    0  503 -0.28050464865E+02  0.12123035612E+03  0.16001159469E+02  0.12554582800E+03  0.47000000000E+01 0.  1.
         11    1    4    4    0    0  0.23118582086E+02  0.23314404149E+01  0.18913526239E+02  0.29960405987E+02  0.00000000000E+00 0. -1.
        -12    1    4    4    0    0  0.34235653813E+01  0.14823083930E+02 -0.65286705755E+02  0.67035800626E+02  0.00000000000E+00 0.  1.
</event>
<event>
12    1  0.8251070E-002  0.2380171E+03  0.7818608E-02  0.1121123E+00
         21   -1    0    0  501  502  0.00000000000E+00  0.00000000000E+00  0.32550181371E+03  0.32550181371E+03  0.00000000000E+00 0. -1.
         21   -1    0    0  502  503 -0.00000000000E+00 -0.00000000000E+00 -0.18261679269E+03  0.18261679269E+03  0.00000000000E+00 0. -1.
         -6    2    1    2    0  503  0.15420505956E+03 -0.56811434367E+02  0.12652238528E+03  0.26955528641E+03  0.17217839292E+03 0.  0.
        -24    2    3    3    0    0  0.10029835377E+03  0.32611525173E+02  0.65314284820E+02  0.14843171239E+03  0.81503043495E+02 0.  0.
          6    2    1    2  501    0 -0.15420505956E+03  0.56811434367E+02  0.16362635735E+02  0.23856331999E+03  0.17215685385E+03 0.  0.
         24    2    5    5    0    0 -0.17221072190E+03  0.44917015655E+02  0.50496499681E+02  0.19790754868E+03  0.70309532159E+02 0.  0.
          5    1    5    5  501    0  0.18005662339E+02  0.11894418712E+02 -0.34133863947E+02  0.40655771309E+02  0.47000000000E+01 0. -1.
        -11    1    6    6    0    0  0.55891457805E+01 -0.62898954707E+00  0.75403795586E+01  0.94069922023E+01  0.00000000000E+00 0.  1.
         12    1    6    6    0    0 -0.17779986768E+03  0.45546005202E+02  0.42956120123E+02  0.18850055648E+03  0.00000000000E+00 0. -1.
         -5    1    3    3    0  503  0.53906705790E+02 -0.89422959541E+02  0.61208100462E+02  0.12112357402E+03  0.47000000000E+01 0.  1.
         11    1    4    4    0    0  0.60053659453E+02 -0.19304100525E+02  0.12877094439E+02  0.64380974456E+02  0.00000000000E+00 0. -1.
        -12    1    4    4    0    0  0.40244694314E+02  0.51915625698E+02  0.52437190381E+02  0.84050737933E+02  0.00000000000E+00 0.  1.
</event>
<event>
12    1  0.8251070E-002  0.1786063E+03  0.7818608E-02  0.1169476E+00
         21   -1    0    0  503  502  0.00000000000E+00  0.00000000000E+00  0.17621664780E+02  0.17621664780E+02  0.00000000000E+00 0. -1.
         21   -1    0    0  501  503 -0.00000000000E+00 -0.00000000000E+00 -0.18037343551E+04  0.18037343551E+04  0.00000000000E+00 0. -1.
          6    2    1    2  501    0 -0.46794829902E+02 -0.99104896990E+01 -0.84141576480E+03  0.86016317283E+03  0.17208201749E+03 0.  0.
         24    2    3    3    0    0  0.28483730195E+02  0.16353572036E+02 -0.28517868274E+03  0.29822149970E+03  0.80811011570E+02 0.  0.
         -6    2    1    2    0  502  0.46794829902E+02  0.99104896990E+01 -0.94469692549E+03  0.96119284701E+03  0.17073791086E+03 0.  0.
        -24    2    5    5    0    0  0.88516202646E+02  0.27087083302E+02 -0.81637533432E+03  0.82508910323E+03  0.75726571085E+02 0.  0.
          5    1    3    3  501    0 -0.75278560097E+02 -0.26264061735E+02 -0.55623708205E+03  0.56194167313E+03  0.47000000000E+01 0. -1.
        -13    1    4    4    0    0  0.34436323235E+02  0.27961082521E+02 -0.28106432807E+03  0.28454321114E+03  0.00000000000E+00 0.  1.
         14    1    4    4    0    0 -0.59525930400E+01 -0.11607510485E+02 -0.41143546692E+01  0.13678288559E+02  0.00000000000E+00 0. -1.
         -5    1    5    5    0  502 -0.41721372744E+02 -0.17176593603E+02 -0.12832159117E+03  0.13610374378E+03  0.47000000000E+01 0.  1.
         11    1    6    6    0    0  0.31525716280E+02  0.49179294560E+02 -0.41174569666E+03  0.41586896075E+03  0.00000000000E+00 0. -1.
        -12    1    6    6    0    0  0.56990486365E+02 -0.22092211258E+02 -0.40462963766E+03  0.40922014247E+03  0.00000000000E+00 0.  1.
</event>
<event>
12    1  0.8251070E-002  0.1834665E+03  0.7818608E-02  0.1164729E+00
         21   -1    0    0  501  502  0.00000000000E+00  0.00000000000E+00  0.23183643556E+03  0.23183643556E+03  0.00000000000E+00 0. -1.
         21   -1    0    0  502  503 -0.00000000000E+00 -0.00000000000E+00 -0.27395720465E+03  0.27395720465E+03  0.00000000000E+00 0. -1.
         -6    2    1    2    0  503 -0.40506470070E+02  0.47288933610E+02 -0.19501142490E+03  0.26774879507E+03  0.17257735675E+03 0.  0.
        -24    2    3    3    0    0 -0.66582461202E+01  0.43939928831E+02 -0.21115646922E+03  0.22980580424E+03  0.79048109298E+02 0.  0.
          6    2    1    2  501    0  0.40506470070E+02 -0.47288933610E+02  0.15289065581E+03  0.23804484514E+03  0.17150154024E+03 0.  0.
         24    2    5    5    0    0  0.52448391589E+02 -0.93678607081E+02  0.10340726213E+03  0.16901363811E+03  0.79661990941E+02 0.  0.
          5    1    5    5  501    0 -0.11941921519E+02  0.46389673471E+02  0.49483393674E+02  0.69031207028E+02  0.47000000000E+01 0. -1.
        -13    1    6    6    0    0  0.35196579131E+02 -0.47619650450E+02  0.55289205879E+01  0.59472676536E+02  0.00000000000E+00 0.  1.
         14    1    6    6    0    0  0.17251812458E+02 -0.46058956631E+02  0.97878341545E+02  0.10954096157E+03  0.00000000000E+00 0. -1.
         -5    1    3    3    0  503 -0.33848223950E+02  0.33490047798E+01  0.16145044315E+02  0.37942990835E+02  0.47000000000E+01 0.  1.
         13    1    4    4    0    0  0.31012691701E+02  0.40827591306E+02 -0.99637632644E+02  0.11205506279E+03  0.00000000000E+00 0. -1.
        -14    1    4    4    0    0 -0.37670937821E+02  0.31123375243E+01 -0.11151883657E+03  0.11775074145E+03  0.00000000000E+00 0.  1.
</event>
<event>
12    1  0.8251070E-002  0.2814684E+03  0.7818608E-02  0.1094896E+00
         21   -1    0    0  501  502  0.00000000000E+00  0.00000000000E+00  0.53695877748E+03  0.53695877748E+03  0.00000000000E+00 0. -1.
         21   -1    0    0  502  503 -0.00000000000E+00 -0.00000000000E+00 -0.20862316908E+03  0.20862316908E+03  0.00000000000E+00 0.  1.
         -6    2    1    2    0  503  0.17023230385E+03 -0.14376098011E+03  0.36593160723E+03  0.46166049707E+03  0.17198318729E+03 0.  0.
        -24    2    3    3    0    0  0.11896889949E+03 -0.13828852080E+03  0.35757711174E+03  0.40922222830E+03  0.79524381566E+02 0.  0.
          6    2    1    2  501    0 -0.17023230385E+03  0.14376098011E+03 -0.37595998829E+02  0.28392144949E+03  0.17190600244E+03 0.  0.
         24    2    5    5    0    0 -0.65271174146E+02  0.13341386539E+03  0.74936637525E+01  0.16912132230E+03  0.80537450948E+02 0.  0.
          5    1    5    5  501    0 -0.10496112970E+03  0.10347114722E+02 -0.45089662581E+02  0.11480012719E+03  0.47000000000E+01 0. -1.
        -13    1    6    6    0    0  0.59040669606E+01  0.48825984887E+02 -0.23216799787E+02  0.54386161836E+02  0.00000000000E+00 0.  1.
         14    1    6    6    0    0 -0.71175241107E+02  0.84587880505E+02  0.30710463539E+02  0.11473516046E+03  0.00000000000E+00 0. -1.
         -5    1    3    3    0  503  0.51263404357E+02 -0.54724593167E+01  0.83544954933E+01  0.52438268776E+02  0.47000000000E+01 0.  1.
         13    1    4    4    0    0  0.98099355379E+02 -0.10778662184E+03  0.33642847422E+03  0.36664091103E+03  0.00000000000E+00 0. -1.
        -14    1    4    4    0    0  0.20869544111E+02 -0.30501898961E+02  0.21148637519E+02  0.42581317271E+02  0.00000000000E+00 0.  1.
</event>
<event>
12    1  0.8251070E-002  0.2361224E+03  0.7818608E-02  0.1124314E+00
         21   -1    0    0  501  502  0.00000000000E+00  0.00000000000E+00  0.21745034102E+04  0.21745034102E+04  0.00000000000E+00 0.  1.
         21   -1    0    0  502  503 -0.00000000000E+00 -0.00000000000E+00 -0.25551965637E+02  0.25551965637E+02  0.00000000000E+00 0.  1.
         -6    2    1    2    0  503  0.14278248621E+03 -0.87184526634E+01  0.87199099594E+03  0.90339474919E+03  0.18785879291E+03 0.  0.
        -24    2    3    3    0    0 -0.17804384797E+01  0.31835214216E+02  0.34380918177E+03  0.35426711566E+03  0.79270328229E+02 0.  0.
          6    2    1    2  501    0 -0.14278248621E+03  0.87184526634E+01  0.12769604486E+04  0.12966606266E+04  0.17389060805E+03 0.  0.
         24    2    5    5    0    0 -0.10049641622E+03 -0.60874168685E+02  0.89078661430E+03  0.90196635892E+03  0.78976745460E+02 0.  0.
          5    1    5    5  501    0 -0.42286069993E+02  0.69592621348E+02  0.38617383431E+03  0.39469426772E+03  0.47000000000E+01 0. -1.
        -13    1    6    6    0    0 -0.89657613494E+02 -0.11291667439E+02  0.60420357824E+03  0.61092385235E+03  0.00000000000E+00 0.  1.
         14    1    6    6    0    0 -0.10838802723E+02 -0.49582501246E+02  0.28658303606E+03  0.29104250657E+03  0.00000000000E+00 0. -1.
         -5    1    3    3    0  503  0.14456292469E+03 -0.40553666880E+02  0.52818181417E+03  0.54912763353E+03  0.47000000000E+01 0.  1.
         11    1    4    4    0    0 -0.27691470898E+02 -0.14177671560E+02  0.16126493468E+03  0.16423825099E+03  0.00000000000E+00 0. -1.
        -12    1    4    4    0    0  0.25911032419E+02  0.46012885777E+02  0.18254424710E+03  0.19002886467E+03  0.00000000000E+00 0.  1.
</event>
<event>
12    1  0.8251070E-002  0.2427507E+03  0.7818608E-02  0.1118073E+00
         21   -1    0    0  503  502  0.00000000000E+00  0.00000000000E+00  0.19465465562E+03  0.19465465562E+03  0.00000000000E+00 0.  1.
         21   -1    0    0  501  503 -0.00000000000E+00 -0.00000000000E+00 -0.30806028989E+03  0.30806028989E+03  0.00000000000E+00 0. -1.
          6    2    1    2  501    0 -0.69691901412E+02 -0.15592467428E+03 -0.21454752625E+02  0.24369695651E+03  0.17250633331E+03 0.  0.
         24    2    3    3    0    0 -0.77031221594E+02 -0.77211777615E+02 -0.67736092167E+02  0.15197107079E+03  0.81311502700E+02 0.  0.
         -6    2    1    2    0  502  0.69691901412E+02  0.15592467428E+03 -0.91950881643E+02  0.25901798900E+03  0.17165631017E+03 0.  0.
        -24    2    5    5    0    0  0.58124816488E+02  0.32535520581E+02 -0.86571554262E+02  0.13488214459E+03  0.79129669097E+02 0.  0.
          5    1    3    3  501    0  0.73393201816E+01 -0.78712896663E+02  0.46281339542E+02  0.91725885722E+02  0.47000000000E+01 0. -1.
        -13    1    4    4    0    0 -0.77988232463E+01  0.15749243639E+02  0.28565941780E+00  0.17576743741E+02  0.00000000000E+00 0.  1.
         14    1    4    4    0    0 -0.69232398348E+02 -0.92961021254E+02 -0.68021751585E+02  0.13439432705E+03  0.00000000000E+00 0. -1.
         -5    1    5    5    0  502  0.11567084924E+02  0.12338915370E+03 -0.53793273801E+01  0.12413584441E+03  0.47000000000E+01 0.  1.
         13    1    6    6    0    0 -0.14012907897E+02 -0.11676491283E+02 -0.10172786757E+02  0.20885105382E+02  0.00000000000E+00 0. -1.
        -14    1    6    6    0    0  0.72137724385E+02  0.44212011865E+02 -0.76398767506E+02  0.11399703921E+03  0.00000000000E+00 0.  1.
</event>
<event>
12    1  0.8251070E-002  0.1818660E+03  0.7818608E-02  0.1166881E+00
         21   -1    0    0  501  502  0.00000000000E+00  0.00000000000E+00  0.24928299189E+03  0.24928299189E+03  0.00000000000E+00 0. -1.
         21   -1    0    0  502  503 -0.00000000000E+00 -0.00000000000E+00 -0.14451646959E+03  0.14451646959E+03  0.00000000000E+00 0. -1.
         -6    2    1    2    0  503  0.53994949810E+02 -0.23255260686E+02  0.11418813819E+03  0.21168954960E+03  0.16827736851E+03 0.  0.
        -24    2    3    3    0    0  0.32185777557E+02 -0.27008432570E+02  0.14696285482E+03  0.17186495490E+03  0.78575456202E+02 0.  0.
          6    2    1    2  501    0 -0.53994949810E+02  0.23255260686E+02 -0.94216158878E+01  0.18210991188E+03  0.17210168914E+03 0.  0.
         24    2    5    5    0    0 -0.69279584178E+01  0.74667258853E+02 -0.19991576799E+02  0.11145363609E+03  0.79994085422E+02 0.  0.
          5    1    5    5  501    0 -0.47066991392E+02 -0.51411998167E+02  0.10569960911E+02  0.70656275786E+02  0.47000000000E+01 0. -1.
        -11    1    6    6    0    0  0.20127543525E+02  0.50212707722E+02 -0.42327240410E+02  0.68687912371E+02  0.00000000000E+00 0.  1.
         12    1    6    6    0    0 -0.27055501942E+02  0.24454551131E+02  0.22335663611E+02  0.42765723720E+02  0.00000000000E+00 0. -1.
         -5    1    3    3    0  503  0.21809172253E+02  0.37531718838E+01 -0.32774716629E+02  0.39824594708E+02  0.47000000000E+01 0.  1.
         13    1    4    4    0    0  0.54951880410E+02 -0.34700354178E+02  0.10394797893E+03  0.12259284671E+03  0.00000000000E+00 0. -1.
        -14    1    4    4    0    0 -0.22766102854E+02  0.76919216085E+01  0.43014875892E+02  0.49272108187E+02  0.00000000000E+00 0.  1.
</event>
<event>
12    1  0.8251070E-002  0.2456575E+03  0.7818608E-02  0.1116602E+00
         21   -1    0    0  503  502  0.00000000000E+00  0.00000000000E+00  0.37423460656E+02  0.37423460656E+02  0.00000000000E+00 0. -1.
         21   -1    0    0  501  503 -0.00000000000E+00 -0.00000000000E+00 -0.16811444265E+04  0.16811444265E+04  0.00000000000E+00 0. -1.
          6    2    1    2  501    0  0.23120905347E+01 -0.17637259697E+03 -0.10150748230E+04  0.10436282152E+04  0.16634397038E+03 0.  0.
         24    2    3    3    0    0 -0.50110379229E+02 -0.61836807377E+02 -0.56966572307E+03  0.58072658552E+03  0.79934286962E+02 0.  0.
         -6    2    1    2    0  502 -0.23120905347E+01  0.17637259697E+03 -0.62864614277E+03  0.67493967192E+03  0.17098230663E+03 0.  0.
        -24    2    5    5    0    0 -0.56318147216E+02  0.52000895174E+02 -0.30736741700E+03  0.32618892425E+03  0.77773121730E+02 0.  0.
          5    1    3    3  501    0  0.52422469763E+02 -0.11453578959E+03 -0.44540909997E+03  0.46290162969E+03  0.47000000000E+01 0. -1.
        -11    1    4    4    0    0 -0.49700203685E-01  0.14233297537E+02 -0.17998328375E+03  0.18054520669E+03  0.00000000000E+00 0.  1.
         12    1    4    4    0    0 -0.50060679025E+02 -0.76070104915E+02 -0.38968243931E+03  0.40018137882E+03  0.00000000000E+00 0. -1.
         -5    1    5    5    0  502  0.54006056681E+02  0.12437170180E+03 -0.32127872577E+03  0.34875074767E+03  0.47000000000E+01 0.  1.
         11    1    6    6    0    0 -0.13025246407E+02  0.36312533769E+02 -0.42701870023E+02  0.57547431360E+02  0.00000000000E+00 0. -1.
        -12    1    6    6    0    0 -0.43292900809E+02  0.15688361405E+02 -0.26466554698E+03  0.26864149289E+03  0.00000000000E+00 0.  1.
</event>
<event>
12    1  0.8251070E-002  0.1912804E+03  0.7818608E-02  0.1157947E+00
         21   -1    0    0  501  502  0.00000000000E+00  0.00000000000E+00  0.19557916005E+03  0.19557916005E+03  0.00000000000E+00 0. -1.
         21   -1    0    0  502  503 -0.00000000000E+00 -0.00000000000E+00 -0.43076408183E+03  0.43076408183E+03  0.00000000000E+00 0.  1.
         -6    2    1    2    0  503  0.10486973542E+02 -0.83445552446E+02 -0.35483476745E+03  0.40310780799E+03  0.17179946401E+03 0.  0.
        -24    2    3    3    0    0 -0.41716647814E+02 -0.29468272664E+02 -0.63142833135E+02  0.10186863497E+03  0.61494256778E+02 0.  0.
          6    2    1    2  501    0 -0.10486973542E+02  0.83445552446E+02  0.11964984567E+03  0.22323543390E+03  0.16865597096E+03 0.  0.
         24    2    5    5    0    0 -0.39338566546E+02  0.98596545664E+02  0.43236236830E+02  0.14003028604E+03  0.80438219755E+02 0.  0.
          5    1    5    5  501    0  0.28851593005E+02 -0.15150993217E+02  0.76413608842E+02  0.83205147861E+02  0.47000000000E+01 0. -1.
        -11    1    6    6    0    0  0.36253936250E+01 -0.24666168471E+01  0.28959557571E+02  0.29289650942E+02  0.00000000000E+00 0.  1.
         12    1    6    6    0    0 -0.42963960171E+02  0.10106316251E+03  0.14276679259E+02  0.11074063509E+03  0.00000000000E+00 0. -1.
         -5    1    3    3    0  503  0.52203621355E+02 -0.53977279782E+02 -0.29169193431E+03  0.30123917301E+03  0.47000000000E+01 0.  1.
         11    1    4    4    0    0 -0.43452660645E+02 -0.42716468645E+02 -0.64141237938E+02  0.88469931699E+02  0.00000000000E+00 0. -1.
        -12    1    4    4    0    0  0.17360128314E+01  0.13248195981E+02  0.99840480250E+00  0.13398703275E+02  0.00000000000E+00 0.  1.
</event>
<event>
12    1  0.8251070E-002  0.2038366E+03  0.7818608E-02  0.1148138E+00
         21   -1    0    0  503  502  0.00000000000E+00  0.00000000000E+00  0.16881420311E+03  0.16881420311E+03  0.00000000000E+00 0.  1.
         21   -1    0    0  501  503 -0.00000000000E+00 -0.00000000000E+00 -0.27057434800E+03  0.27057434800E+03  0.00000000000E+00 0.  1.
          6    2    1    2  501    0  0.92763917908E+02 -0.24023620064E+02 -0.12737035043E+03  0.23394939101E+03  0.17125078861E+03 0.  0.
         24    2    3    3    0    0 -0.13920005911E+02  0.76972440675E+01 -0.45646555788E+02  0.95788103262E+02  0.82696665836E+02 0.  0.
         -6    2    1    2    0  502 -0.92763917908E+02  0.24023620064E+02  0.25610205539E+02  0.20543916010E+03  0.17990855202E+03 0.  0.
        -24    2    5    5    0    0 -0.31060678682E+02 -0.20597437246E+02 -0.48950353896E+02  0.98763504446E+02  0.77259772732E+02 0.  0.
          5    1    3    3  501    0  0.10668392382E+03 -0.31720864132E+02 -0.81723794638E+02  0.13816128775E+03  0.47000000000E+01 0. -1.
        -13    1    4    4    0    0 -0.10648915791E+02  0.15954049189E+02 -0.68571069116E+02  0.71203389054E+02  0.00000000000E+00 0.  1.
         14    1    4    4    0    0 -0.32710901207E+01 -0.82568051213E+01  0.22924513328E+02  0.24584714208E+02  0.00000000000E+00 0. -1.
         -5    1    5    5    0  502 -0.61703239226E+02  0.44621057310E+02  0.74560559435E+02  0.10667565566E+03  0.47000000000E+01 0.  1.
         11    1    6    6    0    0 -0.10505396787E+02  0.14710720993E+02 -0.54604110280E+02  0.57518497314E+02  0.00000000000E+00 0. -1.
        -12    1    6    6    0    0 -0.20555281894E+02 -0.35308158239E+02  0.56537563846E+01  0.41245007131E+02  0.00000000000E+00 0.  1.
</event>
<event>
12    1  0.8251070E-002  0.1761992E+03  0.7818608E-02  0.1171667E+00
         21   -1    0    0  503  502  0.00000000000E+00  0.00000000000E+00  0.16711371512E+02  0.16711371512E+02  0.00000000000E+00 0.  1.
         21   -1    0    0  501  503 -0.00000000000E+00 -0.00000000000E+00 -0.27677333007E+04  0.27677333007E+04  0.00000000000E+00 0.  1.
          6    2    1    2  501    0 -0.25026601756E+02  0.26664537615E+02 -0.21748633615E+04  0.21819458330E+04  0.17181283056E+03 0.  0.
         24    2    3    3    0    0  0.17176646687E+02 -0.19232229489E+02 -0.17904054272E+04  0.17924363715E+04  0.81311968037E+02 0.  0.
         -6    2    1    2    0  502  0.25026601756E+02 -0.26664537615E+02 -0.57615856772E+03  0.60249883921E+03  0.17236248933E+03 0.  0.
        -24    2    5    5    0    0 -0.19740965861E+02 -0.73272105154E+02 -0.33179313980E+03  0.34968872702E+03  0.80230985660E+02 0.  0.
          5    1    3    3  501    0 -0.42203248443E+02  0.45896767104E+02 -0.38445793428E+03  0.38950946156E+03  0.47000000000E+01 0. -1.
        -13    1    4    4    0    0  0.31703442506E+02  0.23923558718E+02 -0.80342004224E+03  0.80440114943E+03  0.00000000000E+00 0.  1.
         14    1    4    4    0    0 -0.14526795819E+02 -0.43155788207E+02 -0.98698538496E+03  0.98803522204E+03  0.00000000000E+00 0. -1.
         -5    1    5    5    0  502  0.44767567617E+02  0.46607567539E+02 -0.24436542792E+03  0.25281011219E+03  0.47000000000E+01 0.  1.
         13    1    6    6    0    0  0.65024474079E+01  0.16057524393E+02 -0.53196361681E+02  0.55946213528E+02  0.00000000000E+00 0. -1.
        -14    1    6    6    0    0 -0.26243413269E+02 -0.89329629547E+02 -0.27859677812E+03  0.29374251349E+03  0.00000000000E+00 0.  1.
</event>
<event>
12    1  0.8251070E-002  0.2326974E+03  0.7818608E-02  0.1124811E+00
         21   -1    0    0  503  502  0.00000000000E+00  0.00000000000E+00  0.71006782695E+03  0.71006782695E+03  0.00000000000E+00 0.  1.
         21   -1    0    0  501  503 -0.00000000000E+00 -0.00000000000E+00 -0.13633709469E+03  0.13633709469E+03  0.00000000000E+00 0.  1.
          6    2    1    2  501    0  0.39650758852E+02 -0.15152876993E+03  0.57973884947E+01  0.23276958359E+03  0.17208985600E+03 0.  0.
         24    2    3    3    0    0  0.69424208269E+02 -0.14584064535E+03  0.42709898132E+02  0.18477545459E+03  0.78921598370E+02 0.  0.
         -6    2    1    2    0  502 -0.39650758852E+02  0.15152876993E+03  0.56793334376E+03  0.61363533805E+03  0.17165923907E+03 0.  0.
        -24    2    5    5    0    0 -0.88127480112E+02  0.12650603232E+03  0.37586783542E+03  0.41391708802E+03  0.79249587298E+02 0.  0.
          5    1    3    3  501    0 -0.29773449417E+02 -0.56881245769E+01 -0.36912509637E+02  0.47994129007E+02  0.47000000000E+01 0. -1.
        -11    1    4    4    0    0  0.68861651107E+02 -0.62225462490E+02  0.40138332861E+02  0.10111884562E+03  0.00000000000E+00 0.  1.
         12    1    4    4    0    0  0.56255716189E+00 -0.83615182859E+02  0.25715652706E+01  0.83656608963E+02  0.00000000000E+00 0. -1.
         -5    1    5    5    0  502  0.48476721260E+02  0.25022737603E+02  0.19206550834E+03  0.19971825003E+03  0.47000000000E+01 0.  1.
         13    1    6    6    0    0 -0.55680429668E+02  0.17388001476E+02  0.10533702515E+03  0.12040989042E+03  0.00000000000E+00 0. -1.
        -14    1    6    6    0    0 -0.32447050445E+02  0.10911803085E+03  0.27053081027E+03  0.29350719760E+03  0.00000000000E+00 0.  1.
</event>
<event>
12    1  0.8251070E-002  0.3839991E+03  0.7818608E-02  0.1049513E+00
         21   -1    0    0  501  502  0.00000000000E+00  0.00000000000E+00  0.77458678969E+03  0.77458678969E+03  0.00000000000E+00 0.  1.
         21   -1    0    0  502  503 -0.00000000000E+00 -0.00000000000E+00 -0.46726459596E+03  0.46726459596E+03  0.00000000000E+00 0. -1.
         -6    2    1    2    0  503  0.33133280762E+03  0.87298736031E+02 -0.32450777139E+03  0.50275303085E+03  0.17335748503E+03 0.  0.
        -24    2    3    3    0    0  0.19984758843E+03 -0.18523941640E+02 -0.17562903617E+03  0.27764467966E+03  0.77193359695E+02 0.  0.
          6    2    1    2  501    0 -0.33133280762E+03 -0.87298736031E+02  0.63182996511E+03  0.73909835480E+03  0.17220561700E+03 0.  0.
         24    2    5    5    0    0 -0.13985286728E+03 -0.72374090009E+02  0.39843948773E+03  0.43680624847E+03  0.85140119401E+02 0.  0.
          5    1    5    5  501    0 -0.19147994034E+03 -0.14924646022E+02  0.23339047739E+03  0.30229210632E+03  0.47000000000E+01 0. -1.
        -13    1    6    6    0    0 -0.29946236767E+02 -0.47629298952E+02  0.71375454731E+02  0.90883346953E+02  0.00000000000E+00 0.  1.
         14    1    6    6    0    0 -0.10990663052E+03 -0.24744791057E+02  0.32706403300E+03  0.34592290152E+03  0.00000000000E+00 0. -1.
         -5    1    3    3    0  503  0.13148521919E+03  0.10582267767E+03 -0.14887873523E+03  0.22510835119E+03  0.47000000000E+01 0.  1.
         11    1    4    4    0    0  0.17877539156E+03 -0.30107106318E+02 -0.17725000941E+03  0.25354416640E+03  0.00000000000E+00 0. -1.
        -12    1    4    4    0    0  0.21072196873E+02  0.11583164678E+02  0.16209732472E+01  0.24100513258E+02  0.00000000000E+00 0.  1.
</event>
<event>
12    1  0.8251070E-002  0.2188937E+03  0.7818608E-02  0.1134742E+00
         21   -1    0    0  503  502  0.00000000000E+00  0.00000000000E+00  0.85798056549E+02  0.85798056549E+02  0.00000000000E+00 0. -1.
         21   -1    0    0  501  503 -0.00000000000E+00 -0.00000000000E+00 -0.71637904144E+03  0.71637904144E+03  0.00000000000E+00 0. -1.
          6    2    1    2  501    0 -0.13463702100E+03  0.40186438950E+01 -0.50395967719E+03  0.54944498787E+03  0.17254321646E+03 0.  0.
         24    2    3    3    0    0 -0.12442197441E+03  0.11910314740E+02 -0.21756572862E+03  0.26272175997E+03  0.77879352702E+02 0.  0.
         -6    2    1    2    0  502  0.13463702100E+03 -0.40186438950E+01 -0.12662130770E+03  0.25273211011E+03  0.17232900799E+03 0.  0.
        -24    2    5    5    0    0  0.13065193328E+03 -0.57885227164E+02 -0.10056952755E+03  0.19258001151E+03  0.80945684058E+02 0.  0.
          5    1    3    3  501    0 -0.10215046592E+02 -0.78916708455E+01 -0.28639394857E+03  0.28672322791E+03  0.47000000000E+01 0. -1.
        -11    1    4    4    0    0  0.69990505110E+01 -0.55676762656E+01 -0.12780897184E+01  0.90343367428E+01  0.00000000000E+00 0.  1.
         12    1    4    4    0    0 -0.13142102492E+03  0.17477991006E+02 -0.21628763890E+03  0.25368742322E+03  0.00000000000E+00 0. -1.
         -5    1    5    5    0  502  0.39850877167E+01  0.53866583269E+02 -0.26051780154E+02  0.60152098603E+02  0.47000000000E+01 0.  1.
         11    1    6    6    0    0  0.13321455683E+03 -0.39579892556E+02 -0.67044865796E+02  0.15429744028E+03  0.00000000000E+00 0. -1.
        -12    1    6    6    0    0 -0.25626235492E+01 -0.18305334608E+02 -0.33524661752E+02  0.38282571232E+02  0.00000000000E+00 0.  1.
</event>
<event>
12    1  0.8251070E-002  0.1743918E+03  0.7818608E-02  0.1173499E+00
         21   -1    0    0  501  502  0.00000000000E+00  0.00000000000E+00  0.33984407319E+03  0.33984407319E+03  0.00000000000E+00 0. -1.
         21   -1    0    0  502  503 -0.00000000000E+00 -0.00000000000E+00 -0.12232862604E+03  0.12232862604E+03  0.00000000000E+00 0. -1.
         -6    2    1    2    0  503  0.21241699020E+02  0.14699513210E+02 -0.11686393193E+02  0.17416925172E+03  0.17184606772E+03 0.  0.
        -24    2    3    3    0    0  0.76262567995E+02  0.23318703783E+02 -0.27727066511E+02  0.11602305950E+03  0.79579010391E+02 0.  0.
          6    2    1    2  501    0 -0.21241699020E+02 -0.14699513210E+02  0.22920184034E+03  0.28800344752E+03  0.17246801646E+03 0.  0.
         24    2    5    5    0    0  0.22673734441E+02 -0.36862305441E+02  0.21964734190E+03  0.23767320714E+03  0.79816481986E+02 0.  0.
          5    1    5    5  501    0 -0.43915433461E+02  0.22162792231E+02  0.95544984396E+01  0.50330240373E+02  0.47000000000E+01 0. -1.
        -11    1    6    6    0    0  0.12297904108E+02  0.11204519298E+02  0.48647257621E+01  0.17333356712E+02  0.00000000000E+00 0.  1.
         12    1    6    6    0    0  0.10375830332E+02 -0.48066824738E+02  0.21478261613E+03  0.22033985043E+03  0.00000000000E+00 0. -1.
         -5    1    3    3    0  503 -0.55020868975E+02 -0.86191905738E+01  0.16040673318E+02  0.58146192217E+02  0.47000000000E+01 0.  1.
         11    1    4    4    0    0  0.71318620061E+02 -0.79345265051E+01 -0.39917684593E+02  0.82114090274E+02  0.00000000000E+00 0. -1.
        -12    1    4    4    0    0  0.49439479340E+01  0.31253230288E+02  0.12190618082E+02  0.33908969224E+02  0.00000000000E+00 0.  1.
</event>
<event>
12    1  0.8251070E-002  0.1867087E+03  0.7818608E-02  0.1161510E+00
         21   -1    0    0  501  502  0.00000000000E+00  0.00000000000E+00  0.53235188112E+02  0.53235188112E+02  0.00000000000E+00 0.  1.
         21   -1    0    0  502  503 -0.00000000000E+00 -0.00000000000E+00 -0.75643483577E+03  0.75643483577E+03  0.00000000000E+00 0.  1.
         -6    2    1    2    0  503  0.43997967082E+02  0.55762873963E+02 -0.50031375748E+03  0.53394768461E+03  0.17245566026E+03 0.  0.
        -24    2    3    3    0    0 -0.40998539088E+01  0.86030862655E+02 -0.41443426152E+03  0.43086068567E+03  0.80418002996E+02 0.  0.
          6    2    1    2  501    0 -0.43997967082E+02 -0.55762873963E+02 -0.20288589017E+03  0.27572233927E+03  0.17266964041E+03 0.  0.
         24    2    5    5    0    0 -0.95025217847E+01 -0.96210610453E+02 -0.88843425576E+02  0.14981074780E+03  0.72134086293E+02 0.  0.
          5    1    5    5  501    0 -0.34495445297E+02  0.40447736490E+02 -0.11404246460E+03  0.12591159146E+03  0.47000000000E+01 0. -1.
        -13    1    6    6    0    0 -0.22788702767E+02 -0.10021570340E+03 -0.63194172502E+02  0.12064831379E+03  0.00000000000E+00 0.  1.
         14    1    6    6    0    0  0.13286180982E+02  0.40050929438E+01 -0.25649253074E+02  0.29162434018E+02  0.00000000000E+00 0. -1.
         -5    1    3    3    0  503  0.48097820991E+02 -0.30267988692E+02 -0.85879495961E+02  0.10308699894E+03  0.47000000000E+01 0.  1.
         13    1    4    4    0    0 -0.58511976726E+01  0.12899791827E+01  0.16632048273E+01  0.62182642910E+01  0.00000000000E+00 0. -1.
        -14    1    4    4    0    0  0.17513437637E+01  0.84740883472E+02 -0.41609746635E+03  0.42464242138E+03  0.00000000000E+00 0.  1.
</event>
<event>
12    1  0.8251070E-002  0.2043987E+03  0.7818608E-02  0.1146215E+00
         21   -1    0    0  501  502  0.00000000000E+00  0.00000000000E+00  0.36414279518E+03  0.36414279518E+03  0.00000000000E+00 0. -1.
         21   -1    0    0  502  503 -0.00000000000E+00 -0.00000000000E+00 -0.16839042170E+03  0.16839042170E+03  0.00000000000E+00 0. -1.
         -6    2    1    2    0  503 -0.60654999377E+02  0.91665701217E+02 -0.53053504374E+02  0.21053445276E+03  0.17154722890E+03 0.  0.
        -24    2    3    3    0    0  0.88471180217E+01 -0.89972461647E+01 -0.29712285873E+02  0.85913123204E+02  0.79617980827E+02 0.  0.
          6    2    1    2  501    0  0.60654999377E+02 -0.91665701217E+02  0.24880587786E+03  0.32199876412E+03  0.17232878317E+03 0.  0.
         24    2    5    5    0    0 -0.25975969593E+02 -0.32630838489E+02  0.61663761205E+02  0.10744270704E+03  0.77472532129E+02 0.  0.
          5    1    5    5  501    0  0.86630968970E+02 -0.59034862729E+02  0.18714211665E+03  0.21455605707E+03  0.47000000000E+01 0. -1.
        -13    1    6    6    0    0 -0.22697302463E+01 -0.22877887019E+01 -0.18357939435E+02  0.18638658558E+02  0.00000000000E+00 0.  1.
         14    1    6    6    0    0 -0.23706239347E+02 -0.30343049787E+02  0.80021700640E+02  0.88804048487E+02  0.00000000000E+00 0. -1.
         -5    1    3    3    0  503 -0.69502117399E+02  0.10066294738E+03 -0.23341218501E+02  0.12462132955E+03  0.47000000000E+01 0.  1.
         13    1    4    4    0    0 -0.17336461628E+02  0.28198138154E+02 -0.31802490855E+01  0.33253599526E+02  0.00000000000E+00 0. -1.
        -14    1    4    4    0    0  0.26183579650E+02 -0.37195384319E+02 -0.26532036787E+02  0.52659523678E+02  0.00000000000E+00 0.  1.
</event>
<event>
12    1  0.8251070E-002  0.1747302E+03  0.7818608E-02  0.1173119E+00
         21   -1    0    0  501  502  0.00000000000E+00  0.00000000000E+00  0.14817916327E+04  0.14817916327E+04  0.00000000000E+00 0.  1.
         21   -1    0    0  502  503 -0.00000000000E+00 -0.00000000000E+00 -0.22185547343E+02  0.22185547343E+02  0.00000000000E+00 0.  1.
         -6    2    1    2    0  503 -0.23545089075E+02  0.18509913283E+02  0.52649014316E+03  0.55472741742E+03  0.17214426706E+03 0.  0.
        -24    2    3    3    0    0  0.25041246630E+02  0.31409678093E+02  0.14629400003E+03  0.17119354251E+03  0.79320001529E+02 0.  0.
          6    2    1    2  501    0  0.23545089075E+02 -0.18509913283E+02  0.93311594216E+03  0.94924976258E+03  0.17167632962E+03 0.  0.
         24    2    5    5    0    0  0.76355892242E+02 -0.33730393415E+02  0.52239009464E+03  0.53483637506E+03  0.78680209598E+02 0.  0.
          5    1    5    5  501    0 -0.52810803167E+02  0.15220480132E+02  0.41072584751E+03  0.41441338753E+03  0.47000000000E+01 0. -1.
        -11    1    6    6    0    0  0.10005178859E+02  0.80767933363E+01  0.95048010787E+01  0.15989979304E+02  0.00000000000E+00 0.  1.
         12    1    6    6    0    0  0.66350713383E+02 -0.41807186752E+02  0.51288529357E+03  0.51884639575E+03  0.00000000000E+00 0. -1.
         -5    1    3    3    0  503 -0.48586335705E+02 -0.12899764809E+02  0.38019614313E+03  0.38353387491E+03  0.47000000000E+01 0.  1.
         11    1    4    4    0    0 -0.52886029286E+01  0.42548626137E+02  0.35132457035E+02  0.55431439134E+02  0.00000000000E+00 0. -1.
        -12    1    4    4    0    0  0.30329849559E+02 -0.11138948045E+02  0.11116154299E+03  0.11576210338E+03  0.00000000000E+00 0.  1.
</event>
<event>
12    1  0.8251070E-002  0.3143388E+03  0.7818608E-02  0.1078285E+00
         21   -1    0    0  501  502  0.00000000000E+00  0.00000000000E+00  0.26359634101E+03  0.26359634101E+03  0.00000000000E+00 0. -1.
         21   -1    0    0  502  503 -0.00000000000E+00 -0.00000000000E+00 -0.80579737381E+03  0.80579737381E+03  0.00000000000E+00 0.  1.
         -6    2    1    2    0  503  0.35351350746E+02  0.26088027577E+03 -0.66213222883E+03  0.73295837397E+03  0.17175754197E+03 0.  0.
        -24    2    3    3    0    0  0.33214562238E+02  0.25125224591E+03 -0.46684505141E+03  0.53736584730E+03  0.81159433197E+02 0.  0.
          6    2    1    2  501    0 -0.35351350746E+02 -0.26088027577E+03  0.11993119603E+03  0.33643534086E+03  0.17174693741E+03 0.  0.
         24    2    5    5    0    0  0.27523403695E+02 -0.11043732301E+03  0.72257437668E+01  0.13816551019E+03  0.77997158724E+02 0.  0.
          5    1    5    5  501    0 -0.62874754441E+02 -0.15044295276E+03  0.11270545226E+03  0.19826983066E+03  0.47000000000E+01 0. -1.
        -11    1    6    6    0    0 -0.24440709839E+02 -0.16290918077E+02 -0.54900070587E+01  0.29881139315E+02  0.00000000000E+00 0.  1.
         12    1    6    6    0    0  0.51964113534E+02 -0.94146404935E+02  0.12715750826E+02  0.10828437088E+03  0.00000000000E+00 0. -1.
         -5    1    3    3    0  503  0.21367885081E+01  0.96280298669E+01 -0.19528717742E+03  0.19559252667E+03  0.47000000000E+01 0.  1.
         13    1    4    4    0    0  0.15342825865E+02  0.15650546458E+02 -0.12436983072E+02  0.25199612257E+02  0.00000000000E+00 0. -1.
        -14    1    4    4    0    0  0.17871736373E+02  0.23560169945E+03 -0.45440806834E+03  0.51216623504E+03  0.00000000000E+00 0.  1.
</event>
<event>
12    1  0.8251070E-002  0.2229644E+03  0.7818608E-02  0.1132910E+00
         21   -1    0    0  503  502  0.00000000000E+00  0.00000000000E+00  0.10077025281E+04  0.10077025281E+04  0.00000000000E+00 0.  1.
         21   -1    0    0  501  503 -0.00000000000E+00 -0.00000000000E+00 -0.12015388439E+03  0.12015388439E+03  0.00000000000E+00 0. -1.
          6    2    1    2  501    0 -0.89613820860E+02  0.10135659164E+03  0.91092026278E+01  0.22315035499E+03  0.17722671300E+03 0.  0.
         24    2    3    3    0    0 -0.18842481170E+02  0.84854020375E+01  0.48008117489E+02  0.99988445462E+02  0.85240065326E+02 0.  0.
         -6    2    1    2    0  502  0.89613820860E+02 -0.10135659164E+03  0.87843944105E+03  0.90470605748E+03  0.16891833318E+03 0.  0.
        -24    2    5    5    0    0  0.12867788935E+03 -0.84771465652E+02  0.71168497098E+03  0.73257177519E+03  0.80135555677E+02 0.  0.
          5    1    3    3  501    0 -0.70771339690E+02  0.92871189605E+02 -0.38898914861E+02  0.12316190952E+03  0.47000000000E+01 0. -1.
        -13    1    4    4    0    0  0.30632598558E+02 -0.98361981032E+01  0.64154069852E+01  0.32806467873E+02  0.00000000000E+00 0.  1.
         14    1    4    4    0    0 -0.49475079728E+02  0.18321600141E+02  0.41592710503E+02  0.67181977589E+02  0.00000000000E+00 0. -1.
         -5    1    5    5    0  502 -0.39064068493E+02 -0.16585125990E+02  0.16675447007E+03  0.17213428229E+03  0.47000000000E+01 0.  1.
         11    1    6    6    0    0  0.47845900275E+02  0.10221590393E+02  0.20648979721E+03  0.21220685058E+03  0.00000000000E+00 0. -1.
        -12    1    6    6    0    0  0.80831989078E+02 -0.94993056045E+02  0.50519517378E+03  0.52036492461E+03  0.00000000000E+00 0.  1.
</event>
<event>
12    1  0.8251070E-002  0.2243884E+03  0.7818608E-02  0.1130699E+00
         21   -1    0    0  501  502  0.00000000000E+00  0.00000000000E+00  0.13792832489E+03  0.13792832489E+03  0.00000000000E+00 0. -1.
         21   -1    0    0  502  503 -0.00000000000E+00 -0.00000000000E+00 -0.36895253156E+03  0.36895253156E+03  0.00000000000E+00 0. -1.
         -6    2    1    2    0  503 -0.13012568555E+03  0.58128808802E+02 -0.14299371862E+03  0.26607773262E+03  0.17331619595E+03 0.  0.
        -24    2    3    3    0    0 -0.56566795841E+02  0.82306176655E+02 -0.32937629977E+02  0.13143046002E+03  0.78835076233E+02 0.  0.
          6    2    1    2  501    0  0.13012568555E+03 -0.58128808802E+02 -0.88030488046E+02  0.24080312382E+03  0.17298880069E+03 0.  0.
         24    2    5    5    0    0  0.76087562218E+02  0.15858903402E+02  0.73143225513E+01  0.10848901559E+03  0.75336214715E+02 0.  0.
          5    1    5    5  501    0  0.54038123333E+02 -0.73987712203E+02 -0.95344810598E+02  0.13231410824E+03  0.47000000000E+01 0. -1.
        -13    1    6    6    0    0 -0.13446843799E+02 -0.17322979391E+01  0.10559890185E+02  0.17185160605E+02  0.00000000000E+00 0.  1.
         14    1    6    6    0    0  0.89534406018E+02  0.17591201341E+02 -0.32455676337E+01  0.91303854983E+02  0.00000000000E+00 0. -1.
         -5    1    3    3    0  503 -0.73558889710E+02 -0.24177367853E+02 -0.11005608865E+03  0.13464727261E+03  0.47000000000E+01 0.  1.
         11    1    4    4    0    0 -0.71017921571E+02  0.84844285215E+02 -0.36170497693E+02  0.11640619752E+03  0.00000000000E+00 0. -1.
        -12    1    4    4    0    0  0.14451125730E+02 -0.25381085601E+01  0.32328677155E+01  0.15024262497E+02  0.00000000000E+00 0.  1.
</event>
<event>
12    1  0.8251070E-002  0.2557521E+03  0.7818608E-02  0.1109887E+00
         21   -1    0    0  503  502  0.00000000000E+00  0.00000000000E+00  0.11396639797E+03  0.11396639797E+03  0.00000000000E+00 0. -1.
         21   -1    0    0  501  503 -0.00000000000E+00 -0.00000000000E+00 -0.57442819449E+03  0.57442819449E+03  0.00000000000E+00 0. -1.
          6    2    1    2  501    0 -0.13635668424E+03  0.12993713957E+03 -0.25510023628E+03  0.36122744811E+03  0.17300963308E+03 0.  0.
         24    2    3    3    0    0 -0.61516494153E+02  0.34369545888E+02 -0.39766124340E+02  0.11399256226E+03  0.80295796082E+02 0.  0.
         -6    2    1    2    0  502  0.13635668424E+03 -0.12993713957E+03 -0.20536156024E+03  0.32716714435E+03  0.17142976504E+03 0.  0.
        -24    2    5    5    0    0  0.12230663803E+03 -0.10834545162E+03 -0.22855564477E+03  0.29218628753E+03  0.80233990730E+02 0.  0.
          5    1    3    3  501    0 -0.74840190090E+02  0.95567593678E+02 -0.21533411194E+03  0.24723488584E+03  0.47000000000E+01 0. -1.
        -11    1    4    4    0    0 -0.50483803564E+02  0.56170604152E+02 -0.11113503931E+02  0.76336499545E+02  0.00000000000E+00 0.  1.
         12    1    4    4    0    0 -0.11032690589E+02 -0.21801058264E+02 -0.28652620409E+02  0.37656062717E+02  0.00000000000E+00 0. -1.
         -5    1    5    5    0  502  0.14050046211E+02 -0.21591687943E+02  0.23194084530E+02  0.34980856821E+02  0.47000000000E+01 0.  1.
         11    1    6    6    0    0  0.59867564318E+02 -0.71343442482E+01 -0.10228176102E+03  0.11872903084E+03  0.00000000000E+00 0. -1.
        -12    1    6    6    0    0  0.62439073714E+02 -0.10121110737E+03 -0.12627388375E+03  0.17345725669E+03  0.00000000000E+00 0.  1.
</event>
<event>
12    1  0.8251070E-002  0.2297861E+03  0.7818608E-02  0.1126988E+00
         21   -1    0    0  501  502  0.00000000000E+00  0.00000000000E+00  0.77158458640E+03  0.77158458640E+03  0.00000000000E+00 0.  1.
         21   -1    0    0  502  503 -0.00000000000E+00 -0.00000000000E+00 -0.18932363024E+03  0.18932363024E+03  0.00000000000E+00 0. -1.
         -6    2    1    2    0  503 -0.10325339863E+02 -0.15109059315E+03 -0.93066811602E+02  0.24791753760E+03  0.17281983117E+03 0.  0.
        -24    2    3    3    0    0 -0.17480365346E+02 -0.19677435025E+02 -0.77710873301E+02  0.11533357417E+03  0.81056084780E+02 0.  0.
          6    2    1    2  501    0  0.10325339863E+02  0.15109059315E+03  0.67532776777E+03  0.71299067904E+03  0.17132756489E+03 0.  0.
         24    2    5    5    0    0 -0.62856470136E+02  0.77899690725E+02  0.34645721677E+03  0.36818578518E+03  0.74221773783E+02 0.  0.
          5    1    5    5  501    0  0.73181809998E+02  0.73190902425E+02  0.32887055100E+03  0.34480489386E+03  0.47000000000E+01 0. -1.
        -11    1    6    6    0    0  0.34299969815E+01  0.22384994063E+02  0.17193308666E+03  0.17341810496E+03  0.00000000000E+00 0.  1.
         12    1    6    6    0    0 -0.66286467117E+02  0.55514696662E+02  0.17452413010E+03  0.19476768021E+03  0.00000000000E+00 0. -1.
         -5    1    3    3    0  503  0.71550254836E+01 -0.13141315813E+03 -0.15355938301E+02  0.13258396343E+03  0.47000000000E+01 0.  1.
         13    1    4    4    0    0 -0.44726685465E+02 -0.23528193228E+02 -0.26180450172E+02  0.56916326661E+02  0.00000000000E+00 0. -1.
        -14    1    4    4    0    0  0.27246320119E+02  0.38507582039E+01 -0.51530423128E+02  0.58417247509E+02  0.00000000000E+00 0.  1.
</event>
<event>
12    1  0.8251070E-002  0.2415615E+03  0.7818608E-02  0.1119150E+00
         21   -1    0    0  503  502  0.00000000000E+00  0.00000000000E+00  0.41617849002E+03  0.41617849002E+03  0.00000000000E+00 0. -1.
         21   -1    0    0  501  503 -0.00000000000E+00 -0.00000000000E+00 -0.21909400518E+03  0.21909400518E+03  0.00000000000E+00 0. -1.
          6    2    1    2  501    0  0.16012849183E+03  0.55283507182E+02 -0.93394119142E+02  0.25898726358E+03  0.17220493938E+03 0.  0.
         24    2    3    3    0    0  0.52638470953E+02 -0.98624319753E+01 -0.75761671910E+02  0.13197903089E+03  0.93864569860E+02 0.  0.
         -6    2    1    2    0  502 -0.16012849183E+03 -0.55283507182E+02  0.29047860398E+03  0.37628523161E+03  0.16886490488E+03 0.  0.
        -24    2    5    5    0    0 -0.44694971182E+02  0.24974310297E+01  0.19730072409E+03  0.21701269221E+03  0.78505128751E+02 0.  0.
          5    1    3    3  501    0  0.10749002087E+03  0.65145939157E+02 -0.17632447231E+02  0.12700823269E+03  0.47000000000E+01 0. -1.
        -11    1    4    4    0    0 -0.22542342606E+02 -0.17284155948E+02 -0.38217123678E+02  0.47617725683E+02  0.00000000000E+00 0.  1.
         12    1    4    4    0    0  0.75180813559E+02  0.74217239726E+01 -0.37544548232E+02  0.84361305206E+02  0.00000000000E+00 0. -1.
         -5    1    5    5    0  502 -0.11543352064E+03 -0.57780938212E+02  0.93177879888E+02  0.15927253941E+03  0.47000000000E+01 0.  1.
         13    1    6    6    0    0 -0.63483925263E+02  0.16930674454E+02  0.15809239200E+03  0.17120181340E+03  0.00000000000E+00 0. -1.
        -14    1    6    6    0    0  0.18788954081E+02 -0.14433243424E+02  0.39208332091E+02  0.45810878801E+02  0.00000000000E+00 0.  1.
</event>
<event>
12    1  0.8251070E-002  0.1833092E+03  0.7818608E-02  0.1164657E+00
         21   -1    0    0  503  502  0.00000000000E+00  0.00000000000E+00  0.20995367572E+03  0.20995367572E+03  0.00000000000E+00 0.  1.
         21   -1    0    0  501  503 -0.00000000000E+00 -0.00000000000E+00 -0.17371604578E+03  0.17371604578E+03  0.00000000000E+00 0.  1.
          6    2    1    2  501    0  0.57602196700E+02 -0.28032234103E+02 -0.35830497368E+02  0.18670253596E+03  0.17166884744E+03 0.  0.
         24    2    3    3    0    0 -0.13025852134E+02 -0.35614222624E+02  0.27215091398E+02  0.91609717649E+02  0.78826603954E+02 0.  0.
         -6    2    1    2    0  502 -0.57602196700E+02  0.28032234103E+02  0.72068127308E+02  0.19696718554E+03  0.17175109314E+03 0.  0.
        -24    2    5    5    0    0 -0.75211750853E+01 -0.13525463942E+02  0.96424717875E+02  0.12732176576E+03  0.81692102246E+02 0.  0.
          5    1    3    3  501    0  0.70628048835E+02  0.75819885214E+01 -0.63045588766E+02  0.95092818315E+02  0.47000000000E+01 0. -1.
        -11    1    4    4    0    0 -0.35773333245E+02 -0.36467576772E+02 -0.59014349406E+01  0.51424142787E+02  0.00000000000E+00 0.  1.
         12    1    4    4    0    0  0.22747481111E+02  0.85335414780E+00  0.33116526339E+02  0.40185574861E+02  0.00000000000E+00 0. -1.
         -5    1    5    5    0  502 -0.50081021615E+02  0.41557698045E+02 -0.24356590567E+02  0.69645419783E+02  0.47000000000E+01 0.  1.
         11    1    6    6    0    0  0.25086361654E+02 -0.33283768900E+02  0.68034057693E+02  0.79785762009E+02  0.00000000000E+00 0. -1.
        -12    1    6    6    0    0 -0.32607536739E+02  0.19758304958E+02  0.28390660182E+02  0.47536003751E+02  0.00000000000E+00 0.  1.
</event>
<event>
12    1  0.8251070E-002  0.2219432E+03  0.7818608E-02  0.1132682E+00
         21   -1    0    0  501  502  0.00000000000E+00  0.00000000000E+00  0.38448345070E+04  0.38448345070E+04  0.00000000000E+00 0.  1.
         21   -1    0    0  502  503 -0.00000000000E+00 -0.00000000000E+00 -0.22461641906E+02  0.22461641906E+02  0.00000000000E+00 0. -1.
         -6    2    1    2    0  503  0.89222930297E+02  0.10732990777E+03  0.64205326400E+03  0.67933141993E+03  0.17256402839E+03 0.  0.
        -24    2    3    3    0    0  0.12242932598E+03  0.10602742613E+03  0.50237182326E+03  0.53567434193E+03  0.91317012877E+02 0.  0.
          6    2    1    2  501    0 -0.89222930297E+02 -0.10732990777E+03  0.31803196011E+04  0.31879647290E+04  0.17089736015E+03 0.  0.
         24    2    5    5    0    0 -0.11313012202E+03 -0.33080904654E+02  0.20279443862E+04  0.20329430001E+04  0.80037724650E+02 0.  0.
          5    1    5    5  501    0  0.23907191727E+02 -0.74249003119E+02  0.11523752149E+04  0.11550217289E+04  0.47000000000E+01 0. -1.
        -11    1    6    6    0    0 -0.76773753816E+02 -0.66376364805E+01  0.69834350766E+03  0.70258232413E+03  0.00000000000E+00 0.  1.
         12    1    6    6    0    0 -0.36356368209E+02 -0.26443268173E+02  0.13296008786E+04  0.13303606760E+04  0.00000000000E+00 0. -1.
         -5    1    3    3    0  503 -0.33206395684E+02  0.13024816429E+01  0.13968144074E+03  0.14365707800E+03  0.47000000000E+01 0.  1.
         13    1    4    4    0    0  0.62848484328E+02  0.10887604311E+03  0.32064037525E+03  0.34440408677E+03  0.00000000000E+00 0. -1.
        -14    1    4    4    0    0  0.59580841653E+02 -0.28486169782E+01  0.18173144801E+03  0.19127025516E+03  0.00000000000E+00 0.  1.
</event>
<event>
12    1  0.8251070E-002  0.2081004E+03  0.7818608E-02  0.1143101E+00
         21   -1    0    0  503  502  0.00000000000E+00  0.00000000000E+00  0.35643552260E+03  0.35643552260E+03  0.00000000000E+00 0.  1.
         21   -1    0    0  501  503 -0.00000000000E+00 -0.00000000000E+00 -0.58014884606E+03  0.58014884606E+03  0.00000000000E+00 0.  1.
          6    2    1    2  501    0  0.11291444291E+03 -0.25605613572E+02 -0.52827059624E+03  0.56778127758E+03  0.17291742961E+03 0.  0.
         24    2    3    3    0    0  0.32779791625E+02 -0.39941331189E+02 -0.12896282723E+03  0.16023267984E+03  0.79832801560E+02 0.  0.
         -6    2    1    2    0  502 -0.11291444291E+03  0.25605613572E+02  0.30455727278E+03  0.36880309108E+03  0.17278677242E+03 0.  0.
        -24    2    5    5    0    0 -0.14631567729E+03  0.32302294459E+01  0.25899727225E+03  0.30785964253E+03  0.79241786089E+02 0.  0.
          5    1    3    3  501    0  0.80134651282E+02  0.14335717616E+02 -0.39930776901E+03  0.40754859775E+03  0.47000000000E+01 0. -1.
        -11    1    4    4    0    0  0.28351865703E+02 -0.50882397239E+02 -0.13496000061E+03  0.14699336177E+03  0.00000000000E+00 0.  1.
         12    1    4    4    0    0  0.44279259226E+01  0.10941066051E+02  0.59971733875E+01  0.13239318069E+02  0.00000000000E+00 0. -1.
         -5    1    5    5    0  502  0.33401234383E+02  0.22375384126E+02  0.45560000528E+02  0.60943448550E+02  0.47000000000E+01 0.  1.
         11    1    6    6    0    0 -0.71470787933E+02 -0.24055624092E+02  0.70554647054E+02  0.10327005761E+03  0.00000000000E+00 0. -1.
        -12    1    6    6    0    0 -0.74844889357E+02  0.27285853537E+02  0.18844262520E+03  0.20458958492E+03  0.00000000000E+00 0.  1.
</event>
<event>
12    1  0.8251070E-002  0.2946081E+03  0.7818608E-02  0.1089431E+00
         21   -1    0    0  503  502  0.00000000000E+00  0.00000000000E+00  0.99984051260E+02  0.99984051260E+02  0.00000000000E+00 0.  1.
         21   -1    0    0  501  503 -0.00000000000E+00 -0.00000000000E+00 -0.90014704541E+03  0.90014704541E+03  0.00000000000E+00 0.  1.
          6    2    1    2  501    0  0.16409934020E+03  0.15274049747E+03 -0.54141506180E+03  0.61637991053E+03  0.19114306669E+03 0.  0.
         24    2    3    3    0    0  0.13621542923E+03  0.78159191300E+02 -0.20501751118E+03  0.27065561896E+03  0.80986306491E+02 0.  0.
         -6    2    1    2    0  502 -0.16409934020E+03 -0.15274049747E+03 -0.25874793236E+03  0.38375118614E+03  0.17336731914E+03 0.  0.
        -24    2    5    5    0    0 -0.19162925689E+03 -0.11836530797E+03 -0.22520354148E+03  0.32819161338E+03  0.79126365844E+02 0.  0.
          5    1    3    3  501    0  0.27883910968E+02  0.74581306172E+02 -0.33639755062E+03  0.34572429157E+03  0.47000000000E+01 0. -1.
        -13    1    4    4    0    0  0.85416403784E+02  0.61462566505E+01 -0.12564381819E+03  0.15205297615E+03  0.00000000000E+00 0.  1.
         14    1    4    4    0    0  0.50799025448E+02  0.72012934649E+02 -0.79373692993E+02  0.11860264281E+03  0.00000000000E+00 0. -1.
         -5    1    5    5    0  502  0.27529916688E+02 -0.34375189502E+02 -0.33544390875E+02  0.55559572761E+02  0.47000000000E+01 0.  1.
         13    1    6    6    0    0 -0.23833525908E+01 -0.18606330519E+02 -0.44006949332E+02  0.47838138493E+02  0.00000000000E+00 0. -1.
        -14    1    6    6    0    0 -0.18924590430E+03 -0.99758977451E+02 -0.18119659215E+03  0.28035347489E+03  0.00000000000E+00 0.  1.
</event>
<event>
12    1  0.8251070E-002  0.2056347E+03  0.7818608E-02  0.1145167E+00
         21   -1    0    0  501  502  0.00000000000E+00  0.00000000000E+00  0.44189890423E+02  0.44189890423E+02  0.00000000000E+00 0.  1.
         21   -1    0    0  502  503 -0.00000000000E+00 -0.00000000000E+00 -0.98923855805E+03  0.98923855805E+03  0.00000000000E+00 0.  1.
         -6    2    1    2    0  503 -0.64538069264E+02 -0.91586795761E+02 -0.37546149377E+03  0.42785833393E+03  0.17186656762E+03 0.  0.
        -24    2    3    3    0    0 -0.64726414342E+02 -0.77439957860E+02 -0.12730680022E+03  0.17925622125E+03  0.75758271420E+02 0.  0.
          6    2    1    2  501    0  0.64538069264E+02  0.91586795761E+02 -0.56958717386E+03  0.60557011454E+03  0.17243059898E+03 0.  0.
         24    2    5    5    0    0  0.83467376621E+02  0.54832053749E+02 -0.22275597683E+03  0.25625192296E+03  0.77919610694E+02 0.  0.
          5    1    5    5  501    0 -0.18929307358E+02  0.36754742013E+02 -0.34683119703E+03  0.34931819158E+03  0.47000000000E+01 0. -1.
        -13    1    6    6    0    0  0.40538391866E+02  0.34330581163E+02 -0.19291230862E+03  0.20009275058E+03  0.00000000000E+00 0.  1.
         14    1    6    6    0    0  0.42928984755E+02  0.20501472586E+02 -0.29843668206E+02  0.56159172379E+02  0.00000000000E+00 0. -1.
         -5    1    3    3    0  503  0.18834507816E+00 -0.14146837901E+02 -0.24815469355E+03  0.24860211268E+03  0.47000000000E+01 0.  1.
         11    1    4    4    0    0  0.10229351176E+02 -0.42115682779E+01  0.35452909570E+01  0.11616626912E+02  0.00000000000E+00 0. -1.
        -12    1    4    4    0    0 -0.74955765518E+02 -0.73228389582E+02 -0.13085209117E+03  0.16763959434E+03  0.00000000000E+00 0.  1.
</event>
<event>
12    1  0.8251070E-002  0.1983827E+03  0.7818608E-02  0.1151195E+00
         21   -1    0    0  501  502  0.00000000000E+00  0.00000000000E+00  0.54553258768E+02  0.54553258768E+02  0.00000000000E+00 0.  1.
         21   -1    0    0  502  503 -0.00000000000E+00 -0.00000000000E+00 -0.10647480796E+04  0.10647480796E+04  0.00000000000E+00 0.  1.
         -6    2    1    2    0  503  0.38986733666E+02  0.92391125044E+02 -0.18629929402E+03  0.27185838856E+03  0.17071458956E+03 0.  0.
        -24    2    3    3    0    0  0.16744318354E+02  0.23086665282E+01 -0.15133019838E+03  0.17258854409E+03  0.81242073278E+02 0.  0.
          6    2    1    2  501    0 -0.38986733666E+02 -0.92391125044E+02 -0.82389552684E+03  0.84744294984E+03  0.17117134307E+03 0.  0.
         24    2    5    5    0    0  0.29301598580E+02 -0.51772580952E+02 -0.27256452521E+03  0.29039616024E+03  0.80619635685E+02 0.  0.
          5    1    5    5  501    0 -0.68288332246E+02 -0.40618544092E+02 -0.55133100163E+03  0.55704678960E+03  0.47000000000E+01 0. -1.
        -11    1    6    6    0    0  0.71719814593E+01  0.18851912908E+02 -0.10922139605E+03  0.11106820109E+03  0.00000000000E+00 0.  1.
         12    1    6    6    0    0  0.22129617121E+02 -0.70624493860E+02 -0.16334312916E+03  0.17932795914E+03  0.00000000000E+00 0. -1.
         -5    1    3    3    0  503  0.22242415312E+02  0.90082458516E+02 -0.34969095634E+02  0.99269844468E+02  0.47000000000E+01 0.  1.
         13    1    4    4    0    0 -0.15520651171E+02 -0.31089516723E+02 -0.82913732579E+02  0.89900699180E+02  0.00000000000E+00 0. -1.
        -14    1    4    4    0    0  0.32264969524E+02  0.33398183251E+02 -0.68416465805E+02  0.82687844912E+02  0.00000000000E+00 0.  1.
</event>
<event>
12    1  0.8251070E-002  0.1878449E+03  0.7818608E-02  0.1160602E+00
         21   -1    0    0  503  502  0.00000000000E+00  0.00000000000E+00  0.11388057031E+04  0.11388057031E+04  0.00000000000E+00 0. -1.
         21   -1    0    0  501  503 -0.00000000000E+00 -0.00000000000E+00 -0.57025121971E+02  0.57025121971E+02  0.00000000000E+00 0. -1.
          6    2    1    2  501    0  0.15998936966E+02 -0.67052936899E+02  0.13520794052E+03  0.23079949279E+03  0.17388259361E+03 0.  0.
         24    2    3    3    0    0 -0.35361226717E+01 -0.18216616769E+02  0.15422606326E+03  0.17467121371E+03  0.79874933625E+02 0.  0.
         -6    2    1    2    0  502 -0.15998936966E+02  0.67052936899E+02  0.94657264063E+03  0.96503133230E+03  0.17473879368E+03 0.  0.
        -24    2    5    5    0    0  0.25422517323E+02  0.25285581004E+02  0.82750083324E+03  0.83213876589E+03  0.80072665070E+02 0.  0.
          5    1    3    3  501    0  0.19535059637E+02 -0.48836320130E+02 -0.19018122739E+02  0.56128279070E+02  0.47000000000E+01 0. -1.
        -11    1    4    4    0    0  0.11856102176E+02 -0.39935089376E+02  0.41339253046E+02  0.58688264284E+02  0.00000000000E+00 0.  1.
         12    1    4    4    0    0 -0.15392224848E+02  0.21718472607E+02  0.11288681021E+03  0.11598294943E+03  0.00000000000E+00 0. -1.
         -5    1    5    5    0  502 -0.41421454288E+02  0.41767355895E+02  0.11907180739E+03  0.13289256641E+03  0.47000000000E+01 0.  1.
         13    1    6    6    0    0 -0.24485965198E+02  0.28498351073E+02  0.33114618588E+03  0.33327093322E+03  0.00000000000E+00 0. -1.
        -14    1    6    6    0    0  0.49908482520E+02 -0.32127700691E+01  0.49635464736E+03  0.49886783267E+03  0.00000000000E+00 0.  1.
</event>
<event>
12    1  0.8251070E-002  0.1727031E+03  0.7818608E-02  0.1175375E+00
         21   -1    0    0  501  502  0.00000000000E+00  0.00000000000E+00  0.14920097146E+03  0.14920097146E+03  0.00000000000E+00 0.  1.
         21   -1    0    0  502  503 -0.00000000000E+00 -0.00000000000E+00 -0.27845081367E+03  0.27845081367E+03  0.00000000000E+00 0.  1.
         -6    2    1    2    0  503 -0.62519212095E+00 -0.96538278827E+01 -0.17938430475E+03  0.24900818085E+03  0.17243189404E+03 0.  0.
        -24    2    3    3    0    0 -0.64506431684E+02  0.56301188205E+01 -0.81564399132E+02  0.13108771727E+03  0.79614448738E+02 0.  0.
          6    2    1    2  501    0  0.62519212095E+00  0.96538278827E+01  0.50134462537E+02  0.17864360428E+03  0.17119137174E+03 0.  0.
         24    2    5    5    0    0  0.66033685134E+02  0.16302500279E+02  0.29879419643E+02  0.10968831032E+03  0.80700226858E+02 0.  0.
          5    1    5    5  501    0 -0.65408493013E+02 -0.66486723960E+01  0.20255042894E+02  0.68955293963E+02  0.47000000000E+01 0. -1.
        -11    1    6    6    0    0 -0.14975775542E+01 -0.23033499270E+02  0.20689601669E+02  0.30997490937E+02  0.00000000000E+00 0.  1.
         12    1    6    6    0    0  0.67531262688E+02  0.39335999549E+02  0.91898179741E+01  0.78690819383E+02  0.00000000000E+00 0. -1.
         -5    1    3    3    0  503  0.63881239563E+02 -0.15283946703E+02 -0.97819905619E+02  0.11792046358E+03  0.47000000000E+01 0.  1.
         11    1    4    4    0    0 -0.18897982733E+02 -0.24530212266E+02  0.22141651171E+01  0.31044606494E+02  0.00000000000E+00 0. -1.
        -12    1    4    4    0    0 -0.45608448951E+02  0.30160331086E+02 -0.83778564249E+02  0.10004311078E+03  0.00000000000E+00 0.  1.
</event>
<event>
12    1  0.8251070E-002  0.1751979E+03  0.7818608E-02  0.1172906E+00
         21   -1    0    0  501  502  0.00000000000E+00  0.00000000000E+00  0.32405478480E+03  0.32405478480E+03  0.00000000000E+00 0. -1.
         21   -1    0    0  502  503 -0.00000000000E+00 -0.00000000000E+00 -0.16655095315E+03  0.16655095315E+03  0.00000000000E+00 0. -1.
         -6    2    1    2    0  503 -0.27553939810E+01 -0.21899861602E+02 -0.83425241746E+02  0.19271123171E+03  0.17230975518E+03 0.  0.
        -24    2    3    3    0    0  0.16934312929E+02  0.44408040312E+02 -0.13195219872E+02  0.94026033287E+02  0.80049585317E+02 0.  0.
          6    2    1    2  501    0  0.27553939810E+01  0.21899861602E+02  0.24092907340E+03  0.29789450624E+03  0.17380196289E+03 0.  0.
         24    2    5    5    0    0  0.29817455076E+02 -0.51377434883E+02  0.15502977229E+03  0.18169339926E+03  0.73820997001E+02 0.  0.
          5    1    5    5  501    0 -0.27062061095E+02  0.73277296485E+02  0.85899301112E+02  0.11620110698E+03  0.47000000000E+01 0. -1.
        -13    1    6    6    0    0  0.24352918392E+02 -0.33301554632E+01  0.64059748240E+01  0.25400611864E+02  0.00000000000E+00 0.  1.
         14    1    6    6    0    0  0.54645366839E+01 -0.48047279420E+02  0.14862379746E+03  0.15629278740E+03  0.00000000000E+00 0. -1.
         -5    1    3    3    0  503 -0.19689706910E+02 -0.66307901914E+02 -0.70230021874E+02  0.98685198418E+02  0.47000000000E+01 0.  1.
         13    1    4    4    0    0  0.12147286389E+02  0.18988143252E+02 -0.46606908615E+02  0.51771711209E+02  0.00000000000E+00 0. -1.
        -14    1    4    4    0    0  0.47870265397E+01  0.25419897060E+02  0.33411688743E+02  0.42254322079E+02  0.00000000000E+00 0.  1.
</event>
<event>
12    1  0.8251070E-002  0.2305096E+03  0.7818608E-02  0.1126322E+00
         21   -1    0    0  501  502  0.00000000000E+00  0.00000000000E+00  0.92966869995E+02  0.92966869995E+02  0.00000000000E+00 0.  1.
         21   -1    0    0  502  503 -0.00000000000E+00 -0.00000000000E+00 -0.94499928554E+03  0.94499928554E+03  0.00000000000E+00 0.  1.
         -6    2    1    2    0  503 -0.15335803709E+03  0.79845566271E+01 -0.75239196814E+03  0.78684288510E+03  0.17159723604E+03 0.  0.
        -24    2    3    3    0    0 -0.17474218934E+02  0.71789448856E+01 -0.41448567707E+03  0.42260695524E+03  0.80258186813E+02 0.  0.
          6    2    1    2  501    0  0.15335803709E+03 -0.79845566271E+01 -0.99640447405E+02  0.25112327044E+03  0.17190764240E+03 0.  0.
         24    2    5    5    0    0  0.15462260328E+03 -0.40783133134E+02 -0.11826894530E+03  0.21309095941E+03  0.76477448743E+02 0.  0.
          5    1    5    5  501    0 -0.12645661874E+01  0.32798576507E+02  0.18628497899E+02  0.38032311033E+02  0.47000000000E+01 0. -1.
        -13    1    6    6    0    0  0.30481697429E+02  0.10927280264E+02  0.23178099922E+01  0.32464004302E+02  0.00000000000E+00 0.  1.
         14    1    6    6    0    0  0.12414090585E+03 -0.51710413398E+02 -0.12058675530E+03  0.18062695511E+03  0.00000000000E+00 0. -1.
         -5    1    3    3    0  503 -0.13588381815E+03  0.80561174154E+00 -0.33790629108E+03  0.36423592985E+03  0.47000000000E+01 0.  1.
         11    1    4    4    0    0 -0.25129852794E+02 -0.23774288540E+02 -0.87806807477E+02  0.94375641648E+02  0.00000000000E+00 0. -1.
        -12    1    4    4    0    0  0.76556338597E+01  0.30953233426E+02 -0.32667886959E+03  0.32823131360E+03  0.00000000000E+00 0.  1.
</event>
<event>
12    1  0.8251070E-002  0.1904922E+03  0.7818608E-02  0.1158054E+00
         21   -1    0    0  503  502  0.00000000000E+00  0.00000000000E+00  0.39773697672E+03  0.39773697672E+03  0.00000000000E+00 0.  1.
         21   -1    0    0  501  503 -0.00000000000E+00 -0.00000000000E+00 -0.10559332130E+03  0.10559332130E+03  0.00000000000E+00 0.  1.
          6    2    1    2  501    0  0.51818244475E+02 -0.63177096172E+02  0.52972314506E+02  0.19756859195E+03  0.17190348013E+03 0.  0.
         24    2    3    3    0    0  0.96908519265E+02 -0.33987156178E+02  0.17812150011E+02  0.13319846965E+03  0.82934743857E+02 0.  0.
         -6    2    1    2    0  502 -0.51818244475E+02  0.63177096172E+02  0.23917134092E+03  0.30576170607E+03  0.17207793189E+03 0.  0.
        -24    2    5    5    0    0  0.34232625855E+02  0.14067324735E+02  0.14334637937E+03  0.16784493701E+03  0.79082084574E+02 0.  0.
          5    1    3    3  501    0 -0.45090274789E+02 -0.29189939994E+02  0.35160164495E+02  0.64370122299E+02  0.47000000000E+01 0. -1.
        -11    1    4    4    0    0  0.24737809516E+02  0.11722111416E+02  0.36623707727E+02  0.45723769348E+02  0.00000000000E+00 0.  1.
         12    1    4    4    0    0  0.72170709748E+02 -0.45709267594E+02 -0.18811557717E+02  0.87474700304E+02  0.00000000000E+00 0. -1.
         -5    1    5    5    0  502 -0.86050870330E+02  0.49109771437E+02  0.95824961542E+02  0.13791676907E+03  0.47000000000E+01 0.  1.
         13    1    6    6    0    0  0.47083278308E+02  0.34247109573E+02  0.12431947861E+03  0.13727720995E+03  0.00000000000E+00 0. -1.
        -14    1    6    6    0    0 -0.12850652453E+02 -0.20179784837E+02  0.19026900766E+02  0.30567727055E+02  0.00000000000E+00 0.  1.
</event>
<event>
12    1  0.8251070E-002  0.1956599E+03  0.7818608E-02  0.1154537E+00
         21   -1    0    0  501  502  0.00000000000E+00  0.00000000000E+00  0.23550924271E+03  0.23550924271E+03  0.00000000000E+00 0.  1.
         21   -1    0    0  502  503 -0.00000000000E+00 -0.00000000000E+00 -0.17556315135E+03  0.17556315135E+03  0.00000000000E+00 0. -1.
         -6    2    1    2    0  503 -0.50161950459E+02 -0.77704837496E+02 -0.34471484705E+02  0.19382260350E+03  0.16680724003E+03 0.  0.
        -24    2    3    3    0    0  0.94072019490E+01  0.17799981916E+01 -0.44962975957E+02  0.93830181732E+02  0.81797126813E+02 0.  0.
          6    2    1    2  501    0  0.50161950459E+02  0.77704837496E+02  0.94417576062E+02  0.21724979056E+03  0.17241963283E+03 0.  0.
         24    2    5    5    0    0  0.33753912846E+01  0.92224653838E+02  0.11109092354E+03  0.16528925070E+03  0.80390068194E+02 0.  0.
          5    1    5    5  501    0  0.46786559175E+02 -0.14519816341E+02 -0.16673347475E+02  0.51960539855E+02  0.47000000000E+01 0. -1.
        -13    1    6    6    0    0 -0.44643082807E+01  0.57200141373E+01  0.67895741781E+02  0.68282357620E+02  0.00000000000E+00 0.  1.
         14    1    6    6    0    0  0.78396995653E+01  0.86504639700E+02  0.43195181756E+02  0.97006893084E+02  0.00000000000E+00 0. -1.
         -5    1    3    3    0  503 -0.59569152408E+02 -0.79484835688E+02  0.10491491252E+02  0.99992421771E+02  0.47000000000E+01 0.  1.
         11    1    4    4    0    0  0.19002219467E+02 -0.12354298272E+02 -0.64211370375E+02  0.68094148911E+02  0.00000000000E+00 0. -1.
        -12    1    4    4    0    0 -0.95950175176E+01  0.14134296464E+02  0.19248394418E+02  0.25736032821E+02  0.00000000000E+00 0.  1.
</event>
<event>
12    1  0.8251070E-002  0.2624202E+03  0.7818608E-02  0.1105708E+00
         21   -1    0    0  503  502  0.00000000000E+00  0.00000000000E+00  0.28470562400E+03  0.28470562400E+03  0.00000000000E+00 0.  1.
         21   -1    0    0  501  503 -0.00000000000E+00 -0.00000000000E+00 -0.28364163514E+03  0.28364163514E+03  0.00000000000E+00 0. -1.
          6    2    1    2  501    0  0.19742559193E+03 -0.12370781522E+02 -0.10859056169E+03  0.28393827610E+03  0.17233436675E+03 0.  0.
         24    2    3    3    0    0  0.14782837871E+03  0.45675252642E+02 -0.11264722616E+03  0.20733689121E+03  0.79747919322E+02 0.  0.
         -6    2    1    2    0  502 -0.19742559193E+03  0.12370781522E+02  0.10965455055E+03  0.28440898304E+03  0.17243679594E+03 0.  0.
        -24    2    5    5    0    0 -0.15735424865E+03  0.60603240337E+02  0.11940771125E+03  0.22077489800E+03  0.77783300097E+02 0.  0.
          5    1    3    3  501    0  0.49597213221E+02 -0.58046034164E+02  0.40566644710E+01  0.76601384897E+02  0.47000000000E+01 0. -1.
        -13    1    4    4    0    0  0.12146083299E+03  0.40184013705E+02 -0.46855666067E+02  0.13624588930E+03  0.00000000000E+00 0.  1.
         14    1    4    4    0    0  0.26367545723E+02  0.54912389372E+01 -0.65791560097E+02  0.71091001909E+02  0.00000000000E+00 0. -1.
         -5    1    5    5    0  502 -0.40071343277E+02 -0.48232458814E+02 -0.97531606935E+01  0.63634085039E+02  0.47000000000E+01 0.  1.
         13    1    6    6    0    0 -0.15963457310E+03  0.62975742566E+02  0.95003760939E+02  0.19615008456E+03  0.00000000000E+00 0. -1.
        -14    1    6    6    0    0  0.22803244455E+01 -0.23725022293E+01  0.24403950309E+02  0.24624813443E+02  0.00000000000E+00 0.  1.
</event>
<event>
12    1  0.8251070E-002  0.1882962E+03  0.7818608E-02  0.1161275E+00
         21   -1    0    0  501  502  0.00000000000E+00  0.00000000000E+00  0.26386945740E+02  0.26386945740E+02  0.00000000000E+00 0.  1.
         21   -1    0    0  502  503 -0.00000000000E+00 -0.00000000000E+00 -0.14871703715E+04  0.14871703715E+04  0.00000000000E+00 0. -1.
         -6    2    1    2    0  503 -0.55708703049E+02  0.12756696768E+02 -0.45604468925E+03  0.49132671864E+03  0.17366344734E+03 0.  0.
        -24    2    3    3    0    0 -0.35152614119E+02 -0.31205201868E+02 -0.42228243504E+03  0.43202089149E+03  0.78167287519E+02 0.  0.
          6    2    1    2  501    0  0.55708703049E+02 -0.12756696768E+02 -0.10047387365E+04  0.10222305986E+04  0.17941369841E+03 0.  0.
         24    2    5    5    0    0  0.82461474629E+02  0.31241345017E+02 -0.42765801095E+03  0.44283799227E+03  0.73744129451E+02 0.  0.
          5    1    5    5  501    0 -0.26752771581E+02 -0.43998041785E+02 -0.57708072558E+03  0.57939260636E+03  0.47000000000E+01 0. -1.
        -13    1    6    6    0    0  0.42241843586E+02  0.92535836393E+01 -0.70180035205E+02  0.82433242694E+02  0.00000000000E+00 0.  1.
         14    1    6    6    0    0  0.40219631044E+02  0.21987761378E+02 -0.35747797575E+03  0.36040474958E+03  0.00000000000E+00 0. -1.
         -5    1    3    3    0  503 -0.20556088930E+02  0.43961898636E+02 -0.33762254209E+02  0.59305827143E+02  0.47000000000E+01 0.  1.
         13    1    4    4    0    0 -0.35343766585E+02 -0.54053144516E+02 -0.24902099951E+03  0.25725936808E+03  0.00000000000E+00 0. -1.
        -14    1    4    4    0    0  0.19115246672E+00  0.22847942648E+02 -0.17326143553E+03  0.17476152341E+03  0.00000000000E+00 0.  1.
</event>
<event>
12    1  0.8251070E-002  0.2131774E+03  0.7818608E-02  0.1140428E+00
         21   -1    0    0  503  502  0.00000000000E+00  0.00000000000E+00  0.32453359452E+02  0.32453359452E+02  0.00000000000E+00 0. -1.
         21   -1    0    0  501  503 -0.00000000000E+00 -0.00000000000E+00 -0.13852918029E+04  0.13852918029E+04  0.00000000000E+00 0. -1.
          6    2    1    2  501    0 -0.50797759791E+02  0.11647969098E+03 -0.79089238541E+03  0.81911866166E+03  0.17116274648E+03 0.  0.
         24    2    3    3    0    0  0.11838660424E+02  0.99232827551E+01 -0.43230149513E+03  0.43979412269E+03  0.79345209358E+02 0.  0.
         -6    2    1    2    0  502  0.50797759791E+02 -0.11647969098E+03 -0.56194605803E+03  0.59862650068E+03  0.16254963662E+03 0.  0.
        -24    2    5    5    0    0  0.77426626404E+02 -0.11473498573E+03 -0.34799642923E+03  0.38296780227E+03  0.80023892638E+02 0.  0.
          5    1    3    3  501    0 -0.62636420215E+02  0.10655640823E+03 -0.35859089028E+03  0.37932453897E+03  0.47000000000E+01 0. -1.
        -13    1    4    4    0    0 -0.11785968448E+02 -0.21467117242E+02 -0.31775936794E+03  0.31870168196E+03  0.00000000000E+00 0.  1.
         14    1    4    4    0    0  0.23624628872E+02  0.31390399997E+02 -0.11454212719E+03  0.12109244073E+03  0.00000000000E+00 0. -1.
         -5    1    5    5    0  502 -0.26628866612E+02 -0.17447052486E+01 -0.21394962880E+03  0.21565869840E+03  0.47000000000E+01 0.  1.
         13    1    6    6    0    0  0.50699853135E+02 -0.11762064746E+03 -0.31723381225E+03  0.34211457650E+03  0.00000000000E+00 0. -1.
        -14    1    6    6    0    0  0.26726773268E+02  0.28856617225E+01 -0.30762616979E+02  0.40853225776E+02  0.00000000000E+00 0.  1.
</event>
<event>
12    1  0.8251070E-002  0.2189983E+03  0.7818608E-02  0.1134772E+00
         21   -1    0    0  503  502  0.00000000000E+00  0.00000000000E+00  0.11432003614E+04  0.11432003614E+04  0.00000000000E+00 0. -1.
         21   -1    0    0  501  503 -0.00000000000E+00 -0.00000000000E+00 -0.42745254644E+02  0.42745254644E+02  0.00000000000E+00 0. -1.
          6    2    1    2  501    0 -0.12553480874E+03 -0.49178147894E+02  0.46162349600E+03  0.51061897593E+03  0.17163335365E+03 0.  0.
         24    2    3    3    0    0 -0.54148117822E+02 -0.86991179548E+02  0.21427817252E+03  0.25037354552E+03  0.79197809904E+02 0.  0.
         -6    2    1    2    0  502  0.12553480874E+03  0.49178147894E+02  0.63883161071E+03  0.67532664007E+03  0.17257683944E+03 0.  0.
        -24    2    5    5    0    0  0.77755489274E+02 -0.39727212612E+02  0.29618115262E+03  0.31808938988E+03  0.76376810957E+02 0.  0.
          5    1    3    3  501    0 -0.71386690915E+02  0.37813031654E+02  0.24734532348E+03  0.26024543041E+03  0.47000000000E+01 0. -1.
        -13    1    4    4    0    0 -0.21831824338E+02 -0.57167567166E+01  0.43901707350E+01  0.22990943007E+02  0.00000000000E+00 0.  1.
         14    1    4    4    0    0 -0.32316293484E+02 -0.81274422831E+02  0.20988800178E+03  0.22738260251E+03  0.00000000000E+00 0. -1.
         -5    1    5    5    0  502  0.47779319463E+02  0.88905360506E+02  0.34265045809E+03  0.35723725019E+03  0.47000000000E+01 0.  1.
         11    1    6    6    0    0  0.77215037519E+02 -0.41211685109E+02  0.30076478248E+03  0.31324115213E+03  0.00000000000E+00 0. -1.
        -12    1    6    6    0    0  0.54045175534E+00  0.14844724967E+01 -0.45836298526E+01  0.48482377540E+01  0.00000000000E+00 0.  1.
</event>
<event>
12    1  0.8251070E-002  0.2905429E+03  0.7818608E-02  0.1090335E+00
         21   -1    0    0  503  502  0.00000000000E+00  0.00000000000E+00  0.21178436840E+04  0.21178436840E+04  0.00000000000E+00 0.  1.
         21   -1    0    0  501  503 -0.00000000000E+00 -0.00000000000E+00 -0.40572899320E+02  0.40572899320E+02  0.00000000000E+00 0. -1.
          6    2    1    2  501    0  0.10818906995E+03  0.20792613030E+03  0.87317596124E+03  0.92024531643E+03  0.17168876667E+03 0.  0.
         24    2    3    3    0    0 -0.99029276311E+01  0.74548564026E+02  0.40244644330E+03  0.41691275824E+03  0.78724531627E+02 0.  0.
         -6    2    1    2    0  502 -0.10818906995E+03 -0.20792613030E+03  0.12040948234E+04  0.12381712669E+04  0.16818320904E+03 0.  0.
        -24    2    5    5    0    0 -0.53193710350E+02 -0.31264744971E+02  0.51265773349E+03  0.52239122106E+03  0.79168055679E+02 0.  0.
          5    1    3    3  501    0  0.11809199758E+03  0.13337756627E+03  0.47072951794E+03  0.50333255819E+03  0.47000000000E+01 0. -1.
        -11    1    4    4    0    0  0.14087636806E+02 -0.11067678791E+02  0.41991755328E+02  0.45653724274E+02  0.00000000000E+00 0.  1.
         12    1    4    4    0    0 -0.23990564437E+02  0.85616242817E+02  0.36045468797E+03  0.37125903396E+03  0.00000000000E+00 0. -1.
         -5    1    5    5    0  502 -0.54995359599E+02 -0.17666138533E+03  0.69143708993E+03  0.71578004581E+03  0.47000000000E+01 0.  1.
         13    1    6    6    0    0  0.13740139220E+02  0.84663742860E+01  0.18117047577E+03  0.18188791112E+03  0.00000000000E+00 0. -1.
        -14    1    6    6    0    0 -0.66933849570E+02 -0.39731119257E+02  0.33148725772E+03  0.34050330994E+03  0.00000000000E+00 0.  1.
</event>
<event>
12    1  0.8251070E-002  0.3236945E+03  0.7818608E-02  0.1074925E+00
         21   -1    0    0  503  502  0.00000000000E+00  0.00000000000E+00  0.25680857691E+03  0.25680857691E+03  0.00000000000E+00 0. -1.
         21   -1    0    0  501  503 -0.00000000000E+00 -0.00000000000E+00 -0.10912052529E+04  0.10912052529E+04  0.00000000000E+00 0. -1.
          6    2    1    2  501    0  0.22456002720E+03 -0.13713292747E+03 -0.95258806392E+03  0.10034164681E+04  0.17374677912E+03 0.  0.
         24    2    3    3    0    0  0.78675678493E+02 -0.37413854080E+02 -0.22632131754E+03  0.25594632573E+03  0.81838401841E+02 0.  0.
         -6    2    1    2    0  502 -0.22456002720E+03  0.13713292747E+03  0.11819138791E+03  0.34459736177E+03  0.18853512127E+03 0.  0.
        -24    2    5    5    0    0 -0.19779190988E+03  0.95836256288E+02  0.15693951927E+03  0.28178450608E+03  0.80413105442E+02 0.  0.
          5    1    3    3  501    0  0.14588434870E+03 -0.99719073389E+02 -0.72626674637E+03  0.74747014234E+03  0.47000000000E+01 0. -1.
        -11    1    4    4    0    0  0.82922500418E+02 -0.51989436109E+02 -0.21720614012E+03  0.23823843067E+03  0.00000000000E+00 0.  1.
         12    1    4    4    0    0 -0.42468219249E+01  0.14575582029E+02 -0.91151774243E+01  0.17707895059E+02  0.00000000000E+00 0. -1.
         -5    1    5    5    0  502 -0.26768117319E+02  0.41296671181E+02 -0.38748131364E+02  0.62812855688E+02  0.47000000000E+01 0.  1.
         13    1    6    6    0    0 -0.10860147078E+03  0.84613631394E+01  0.66672422129E+02  0.12771486207E+03  0.00000000000E+00 0. -1.
        -14    1    6    6    0    0 -0.89190439102E+02  0.87374893149E+02  0.90267097142E+02  0.15406964401E+03  0.00000000000E+00 0.  1.
</event>
<event>
12    1  0.8251070E-002  0.1959015E+03  0.7818608E-02  0.1153340E+00
         21   -1    0    0  501  502  0.00000000000E+00  0.00000000000E+00  0.58409828330E+02  0.58409828330E+02  0.00000000000E+00 0. -1.
         21   -1    0    0  502  503 -0.00000000000E+00 -0.00000000000E+00 -0.11167915689E+04  0.11167915689E+04  0.00000000000E+00 0. -1.
         -6    2    1    2    0  503 -0.47733057331E+02  0.78583877148E+02 -0.90646247496E+03  0.92729642275E+03  0.17248352562E+03 0.  0.
        -24    2    3    3    0    0 -0.32995185361E+02  0.16830168049E+02 -0.78515663055E+03  0.79030035219E+03  0.82047397087E+02 0.  0.
          6    2    1    2  501    0  0.47733057331E+02 -0.78583877148E+02 -0.15191926562E+03  0.24790497450E+03  0.17298422646E+03 0.  0.
         24    2    5    5    0    0 -0.39402444438E+02 -0.24858526823E+02 -0.82686853116E+02  0.12423514844E+03  0.80167059605E+02 0.  0.
          5    1    5    5  501    0  0.87135501770E+02 -0.53725350326E+02 -0.69232412503E+02  0.12366982606E+03  0.47000000000E+01 0. -1.
        -13    1    6    6    0    0 -0.48977813065E+02 -0.49667604216E+01 -0.12688351244E+02  0.50837871110E+02  0.00000000000E+00 0.  1.
         14    1    6    6    0    0  0.95753686264E+01 -0.19891766401E+02 -0.69998501872E+02  0.73397277328E+02  0.00000000000E+00 0. -1.
         -5    1    3    3    0  503 -0.14737871971E+02  0.61753709100E+02 -0.12130584442E+03  0.13699607055E+03  0.47000000000E+01 0.  1.
         11    1    4    4    0    0  0.87616569383E+00  0.42154993835E+02 -0.52882829670E+03  0.53050653018E+03  0.00000000000E+00 0. -1.
        -12    1    4    4    0    0 -0.33871351055E+02 -0.25324825786E+02 -0.25632833385E+03  0.25979382201E+03  0.00000000000E+00 0.  1.
</event>
<event>
12    1  0.8251070E-002  0.1942795E+03  0.7818608E-02  0.1154782E+00
         21   -1    0    0  501  502  0.00000000000E+00  0.00000000000E+00  0.11631959985E+04  0.11631959985E+04  0.00000000000E+00 0.  1.
         21   -1    0    0  502  503 -0.00000000000E+00 -0.00000000000E+00 -0.35956680414E+02  0.35956680414E+02  0.00000000000E+00 0.  1.
         -6    2    1    2    0  503  0.37595735275E+02  0.81068790337E+02  0.37309303455E+03  0.42038368322E+03  0.17186750890E+03 0.  0.
        -24    2    3    3    0    0  0.60514573025E+02  0.62575343227E+02  0.12930047034E+03  0.17477386039E+03  0.79054433883E+02 0.  0.
          6    2    1    2  501    0 -0.37595735275E+02 -0.81068790337E+02  0.75414628357E+03  0.77876899572E+03  0.17250780735E+03 0.  0.
         24    2    5    5    0    0 -0.56607904861E+02 -0.42534920000E+01  0.55757826836E+03  0.56681822961E+03  0.84657149647E+02 0.  0.
          5    1    5    5  501    0  0.19012169586E+02 -0.76815298337E+02  0.19656801521E+03  0.21195076611E+03  0.47000000000E+01 0. -1.
        -13    1    6    6    0    0 -0.69445323741E+02 -0.15757526381E+02  0.28740356089E+03  0.29609417326E+03  0.00000000000E+00 0.  1.
         14    1    6    6    0    0  0.12837418880E+02  0.11504034381E+02  0.27017470747E+03  0.27072405635E+03  0.00000000000E+00 0. -1.
         -5    1    3    3    0  503 -0.22918837751E+02  0.18493447110E+02  0.24379256421E+03  0.24560982283E+03  0.47000000000E+01 0.  1.
         11    1    4    4    0    0 -0.17542440997E+02  0.19653687578E+02  0.44914588588E+02  0.52070384477E+02  0.00000000000E+00 0. -1.
        -12    1    4    4    0    0  0.78057014022E+02  0.42921655649E+02  0.84385881752E+02  0.12270347591E+03  0.00000000000E+00 0.  1.
</event>
<event>
12    1  0.8251070E-002  0.1754231E+03  0.7818608E-02  0.1172751E+00
         21   -1    0    0  503  502  0.00000000000E+00  0.00000000000E+00  0.23984210072E+02  0.23984210072E+02  0.00000000000E+00 0.  1.
         21   -1    0    0  501  503 -0.00000000000E+00 -0.00000000000E+00 -0.12711370163E+04  0.12711370163E+04  0.00000000000E+00 0.  1.
          6    2    1    2  501    0  0.20066134175E+02 -0.27018788470E+02 -0.60300322212E+03  0.62751209835E+03  0.17036984187E+03 0.  0.
         24    2    3    3    0    0  0.78369238080E+02 -0.27042213376E+02 -0.43983109445E+03  0.45417287682E+03  0.77127113326E+02 0.  0.
         -6    2    1    2    0  502 -0.20066134175E+02  0.27018788470E+02 -0.64414958409E+03  0.66760912801E+03  0.17216444592E+03 0.  0.
        -24    2    5    5    0    0 -0.66636342562E+02  0.34030308902E+02 -0.27789196336E+03  0.29830616230E+03  0.78512158912E+02 0.  0.
          5    1    3    3  501    0 -0.58303103904E+02  0.23424906207E-01 -0.16317212766E+03  0.17333922153E+03  0.47000000000E+01 0. -1.
        -11    1    4    4    0    0  0.31300637035E+02 -0.49093008434E+02 -0.28384060703E+03  0.28975048499E+03  0.00000000000E+00 0.  1.
         12    1    4    4    0    0  0.47068601045E+02  0.22050795057E+02 -0.15599048743E+03  0.16442239183E+03  0.00000000000E+00 0. -1.
         -5    1    5    5    0  502  0.46570208387E+02 -0.70115204317E+01 -0.36625762074E+03  0.36930296570E+03  0.47000000000E+01 0.  1.
         11    1    6    6    0    0 -0.75769069765E+01 -0.78118564528E+01  0.26547986036E+00  0.10886004783E+02  0.00000000000E+00 0. -1.
        -12    1    6    6    0    0 -0.59059435586E+02  0.41842165355E+02 -0.27815744322E+03  0.28742015752E+03  0.00000000000E+00 0.  1.
</event>
<event>
12    1  0.8251070E-002  0.1812926E+03  0.7818608E-02  0.1166779E+00
         21   -1    0    0  503  502  0.00000000000E+00  0.00000000000E+00  0.56505907783E+03  0.56505907783E+03  0.00000000000E+00 0. -1.
         21   -1    0    0  501  503 -0.00000000000E+00 -0.00000000000E+00 -0.97767115661E+02  0.97767115661E+02  0.00000000000E+00 0.  1.
          6    2    1    2  501    0 -0.48067735872E+02 -0.21410540848E+02  0.21586296358E+02  0.18166037056E+03  0.17252710961E+03 0.  0.
         24    2    3    3    0    0 -0.11401311937E+02 -0.77850910828E+02  0.22394896228E+01  0.11147254442E+03  0.78932620732E+02 0.  0.
         -6    2    1    2    0  502  0.48067735872E+02  0.21410540848E+02  0.44570566581E+03  0.48116582293E+03  0.17348801148E+03 0.  0.
        -24    2    5    5    0    0  0.13330775753E+01 -0.49701993235E+02  0.18735897242E+03  0.20912497162E+03  0.78471676321E+02 0.  0.
          5    1    3    3  501    0 -0.36666423935E+02  0.56440369980E+02  0.19346806735E+02  0.70187826142E+02  0.47000000000E+01 0. -1.
        -13    1    4    4    0    0  0.15826871043E+02 -0.25189129588E+02 -0.31444864294E+02  0.43286967864E+02  0.00000000000E+00 0.  1.
         14    1    4    4    0    0 -0.27228182980E+02 -0.52661781240E+02  0.33684353917E+02  0.68185576558E+02  0.00000000000E+00 0. -1.
         -5    1    5    5    0  502  0.46734658297E+02  0.71112534083E+02  0.25834669339E+03  0.27204085130E+03  0.47000000000E+01 0.  1.
         11    1    6    6    0    0  0.31467553794E+02 -0.13752547724E+02  0.13282026980E+03  0.13718805917E+03  0.00000000000E+00 0. -1.
        -12    1    6    6    0    0 -0.30134476219E+02 -0.35949445511E+02  0.54538702617E+02  0.71936912449E+02  0.00000000000E+00 0.  1.
</event>
<event>
12    1  0.8251070E-002  0.1865555E+03  0.7818608E-02  0.1161872E+00
         21   -1    0    0  501  502  0.00000000000E+00  0.00000000000E+00  0.11904647089E+04  0.11904647089E+04  0.00000000000E+00 0.  1.
         21   -1    0    0  502  503 -0.00000000000E+00 -0.00000000000E+00 -0.36048247837E+02  0.36048247837E+02  0.00000000000E+00 0.  1.
         -6    2    1    2    0  503 -0.78081077105E+02 -0.99995700142E+01  0.30565629667E+03  0.35749238119E+03  0.16786418592E+03 0.  0.
        -24    2    3    3    0    0 -0.54738542191E+02  0.55841201745E+02  0.22300859555E+03  0.24917519113E+03  0.78999331469E+02 0.  0.
          6    2    1    2  501    0  0.78081077105E+02  0.99995700142E+01  0.84876016443E+03  0.86902057559E+03  0.16913396484E+03 0.  0.
         24    2    5    5    0    0  0.10072063008E+03 -0.30010847859E+02  0.71531704283E+03  0.72780251866E+03  0.83502922721E+02 0.  0.
          5    1    5    5  501    0 -0.22639552972E+02  0.40010417873E+02  0.13344312161E+03  0.14121805692E+03  0.47000000000E+01 0. -1.
        -13    1    6    6    0    0  0.99656769229E+02 -0.45497278052E+02  0.49682830469E+03  0.50876304730E+03  0.00000000000E+00 0.  1.
         14    1    6    6    0    0  0.10638608473E+01  0.15486430193E+02  0.21848873814E+03  0.21903947136E+03  0.00000000000E+00 0. -1.
         -5    1    3    3    0  503 -0.23342534914E+02 -0.65840771759E+02  0.82647701121E+02  0.10831719006E+03  0.47000000000E+01 0.  1.
         13    1    4    4    0    0  0.18689595975E+02 -0.34942417107E+00  0.37119323350E+02  0.41560404966E+02  0.00000000000E+00 0. -1.
        -14    1    4    4    0    0 -0.73428138167E+02  0.56190625916E+02  0.18588927220E+03  0.20761478617E+03  0.00000000000E+00 0.  1.
</event>
<event>
12    1  0.8251070E-002  0.1817277E+03  0.7818608E-02  0.1166265E+00
         21   -1    0    0  501  502  0.00000000000E+00  0.00000000000E+00  0.37341976674E+03  0.37341976674E+03  0.00000000000E+00 0.  1.
         21   -1    0    0  502  503 -0.00000000000E+00 -0.00000000000E+00 -0.21432122537E+03  0.21432122537E+03  0.00000000000E+00 0.  1.
         -6    2    1    2    0  503  0.56590640958E+02 -0.10498330337E+00 -0.14584825607E+03  0.23301646649E+03  0.17269177222E+03 0.  0.
        -24    2    3    3    0    0 -0.53866948833E+01  0.18900359005E+02 -0.17584214895E+00  0.73501779482E+02  0.70825423502E+02 0.  0.
          6    2    1    2  501    0 -0.56590640958E+02  0.10498330337E+00  0.30494679743E+03  0.35472452562E+03  0.17214653103E+03 0.  0.
         24    2    5    5    0    0 -0.84016259527E+02  0.46849730476E+02  0.19085059363E+03  0.22832330069E+03  0.80336488827E+02 0.  0.
          5    1    5    5  501    0  0.27425618570E+02 -0.46744747173E+02  0.11409620380E+03  0.12640122493E+03  0.47000000000E+01 0. -1.
        -13    1    6    6    0    0 -0.22103630166E+02  0.32973236394E+02  0.14421690298E+03  0.14958047964E+03  0.00000000000E+00 0.  1.
         14    1    6    6    0    0 -0.61912629362E+02  0.13876494082E+02  0.46633690651E+02  0.78742821046E+02  0.00000000000E+00 0. -1.
         -5    1    3    3    0  503  0.61977335841E+02 -0.19005342308E+02 -0.14567241392E+03  0.15951468701E+03  0.47000000000E+01 0.  1.
         13    1    4    4    0    0  0.27516759367E+02  0.24731257857E+02  0.10436104338E+02  0.38441116464E+02  0.00000000000E+00 0. -1.
        -14    1    4    4    0    0 -0.32903454250E+02 -0.58308988523E+01 -0.10611946487E+02  0.35060663018E+02  0.00000000000E+00 0.  1.
</event>
<event>
12    1  0.8251070E-002  0.1790740E+03  0.7818608E-02  0.1168870E+00
         21   -1    0    0  501  502  0.00000000000E+00  0.00000000000E+00  0.50674537761E+03  0.50674537761E+03  0.00000000000E+00 0. -1.
         21   -1    0    0  502  503 -0.00000000000E+00 -0.00000000000E+00 -0.66773203954E+03  0.66773203954E+03  0.00000000000E+00 0. -1.
         -6    2    1    2    0  503 -0.26050706128E+02 -0.41482757272E+02 -0.63933955600E+03  0.66394469620E+03  0.17224410964E+03 0.  0.
        -24    2    3    3    0    0 -0.33755949358E+02 -0.93382719776E+02 -0.42754448073E+03  0.44569662453E+03  0.77404144863E+02 0.  0.
          6    2    1    2  501    0  0.26050706128E+02  0.41482757272E+02  0.47835289408E+03  0.51053272094E+03  0.17153049130E+03 0.  0.
         24    2    5    5    0    0  0.60958360082E+02  0.58313636498E+02  0.44307871536E+03  0.45791921998E+03  0.79087686486E+02 0.  0.
          5    1    5    5  501    0 -0.34907653954E+02 -0.16830879226E+02  0.35274178715E+02  0.52613500968E+02  0.47000000000E+01 0. -1.
        -13    1    6    6    0    0  0.11709688598E+02  0.15079160441E+02  0.13529370118E+02  0.23399609878E+02  0.00000000000E+00 0.  1.
         14    1    6    6    0    0  0.49248671484E+02  0.43234476058E+02  0.42954934524E+03  0.43451961010E+03  0.00000000000E+00 0. -1.
         -5    1    3    3    0  503  0.77052432300E+01  0.51899962504E+02 -0.21179507527E+03  0.21824807167E+03  0.47000000000E+01 0.  1.
         13    1    4    4    0    0  0.19974991518E+02 -0.56693237403E+02 -0.22935103508E+03  0.23709707030E+03  0.00000000000E+00 0. -1.
        -14    1    4    4    0    0 -0.53730940877E+02 -0.36689482374E+02 -0.19819344566E+03  0.20859955423E+03  0.00000000000E+00 0.  1.
</event>
<event>
12    1  0.8251070E-002  0.1816587E+03  0.7818608E-02  0.1166224E+00
         21   -1    0    0  501  502  0.00000000000E+00  0.00000000000E+00  0.41227930363E+03  0.41227930363E+03  0.00000000000E+00 0. -1.
         21   -1    0    0  502  503 -0.00000000000E+00 -0.00000000000E+00 -0.10330130169E+03  0.10330130169E+03  0.00000000000E+00 0. -1.
         -6    2    1    2    0  503 -0.46040506480E+02 -0.31059754826E+02  0.32109909241E+02  0.18447469720E+03  0.17296077888E+03 0.  0.
        -24    2    3    3    0    0  0.31190554044E+02 -0.48794137406E+02 -0.11406705707E+01  0.98411719721E+02  0.79560335232E+02 0.  0.
          6    2    1    2  501    0  0.46040506480E+02  0.31059754826E+02  0.27686809270E+03  0.33110590811E+03  0.17288940114E+03 0.  0.
         24    2    5    5    0    0 -0.13031541762E+02  0.18195152053E+02  0.49694778701E+02  0.95978688334E+02  0.79002866690E+02 0.  0.
          5    1    5    5  501    0  0.59072048242E+02  0.12864602773E+02  0.22717331400E+03  0.23512721978E+03  0.47000000000E+01 0. -1.
        -13    1    6    6    0    0 -0.19305770356E+02  0.47804964498E+02  0.35148152304E+02  0.62397275662E+02  0.00000000000E+00 0.  1.
         14    1    6    6    0    0  0.62742285936E+01 -0.29609812445E+02  0.14546626398E+02  0.33581412672E+02  0.00000000000E+00 0. -1.
         -5    1    3    3    0  503 -0.77231060524E+02  0.17734382580E+02  0.33250579811E+02  0.86062977481E+02  0.47000000000E+01 0.  1.
         11    1    4    4    0    0 -0.60344547554E+01 -0.12615465090E+02 -0.34145457633E+02  0.36898196170E+02  0.00000000000E+00 0. -1.
        -12    1    4    4    0    0  0.37225008800E+02 -0.36178672316E+02  0.33004787062E+02  0.61513523551E+02  0.00000000000E+00 0.  1.
</event>
<event>
12    1  0.8251070E-002  0.2417275E+03  0.7818608E-02  0.1120533E+00
         21   -1    0    0  503  502  0.00000000000E+00  0.00000000000E+00  0.11798357579E+04  0.11798357579E+04  0.00000000000E+00 0. -1.
         21   -1    0    0  501  503 -0.00000000000E+00 -0.00000000000E+00 -0.86248985190E+02  0.86248985190E+02  0.00000000000E+00 0. -1.
          6    2    1    2  501    0 -0.12240883341E+03 -0.88085438030E+02  0.11421445247E+03  0.25732196665E+03  0.17443246969E+03 0.  0.
         24    2    3    3    0    0 -0.36237623709E+02  0.15667408213E+02  0.43234537575E+02  0.10484125049E+03  0.86970279477E+02 0.  0.
         -6    2    1    2    0  502  0.12240883341E+03  0.88085438030E+02  0.97937232028E+03  0.10087627765E+04  0.18891593521E+03 0.  0.
        -24    2    5    5    0    0  0.50732430703E+02  0.54275307576E+02  0.84960590880E+03  0.85663768593E+03  0.80488111780E+02 0.  0.
          5    1    3    3  501    0 -0.86171209699E+02 -0.10375284624E+03  0.70979914892E+02  0.15248071617E+03  0.47000000000E+01 0. -1.
        -13    1    4    4    0    0  0.25385441042E+02  0.21962877193E+02  0.15269470421E+02  0.36877436440E+02  0.00000000000E+00 0.  1.
         14    1    4    4    0    0 -0.61623064751E+02 -0.62954689794E+01  0.27965067154E+02  0.67963814048E+02  0.00000000000E+00 0. -1.
         -5    1    5    5    0  502  0.71676402705E+02  0.33810130454E+02  0.12976641148E+03  0.15212509055E+03  0.47000000000E+01 0.  1.
         13    1    6    6    0    0  0.67248978673E+02  0.35840768241E+02  0.75542063825E+03  0.75925445437E+03  0.00000000000E+00 0. -1.
        -14    1    6    6    0    0 -0.16516547970E+02  0.18434539335E+02  0.94185270559E+02  0.97383231552E+02  0.00000000000E+00 0.  1.
</event>
<event>
12    1  0.8251070E-002  0.2005611E+03  0.7818608E-02  0.1149297E+00
         21   -1    0    0  503  502  0.00000000000E+00  0.00000000000E+00  0.17731743552E+04  0.17731743552E+04  0.00000000000E+00 0. -1.
         21   -1    0    0  501  503 -0.00000000000E+00 -0.00000000000E+00 -0.58100527274E+02  0.58100527274E+02  0.00000000000E+00 0. -1.
          6    2    1    2  501    0  0.33239499265E+02 -0.96675248251E+02  0.14261835570E+03  0.24609904632E+03  0.17255079623E+03 0.  0.
         24    2    3    3    0    0  0.35614064112E+02 -0.87772620189E+02  0.17395710104E+03  0.21309749629E+03  0.78594373237E+02 0.  0.
         -6    2    1    2    0  502 -0.33239499265E+02  0.96675248251E+02  0.15724554722E+04  0.15851758362E+04  0.17238112274E+03 0.  0.
        -24    2    5    5    0    0  0.36101586365E+02  0.53947628349E+02  0.11861994107E+04  0.11903978343E+04  0.75922927401E+02 0.  0.
          5    1    3    3  501    0 -0.23745648469E+01 -0.89026280622E+01 -0.31338745340E+02  0.33001550026E+02  0.47000000000E+01 0. -1.
        -13    1    4    4    0    0  0.57917010287E+02 -0.41582209107E+02  0.91670731319E+02  0.11613347138E+03  0.00000000000E+00 0.  1.
         14    1    4    4    0    0 -0.22302946175E+02 -0.46190411082E+02  0.82286369722E+02  0.96964024906E+02  0.00000000000E+00 0. -1.
         -5    1    5    5    0  502 -0.69341085630E+02  0.42727619902E+02  0.38625606159E+03  0.39477800188E+03  0.47000000000E+01 0.  1.
         13    1    6    6    0    0  0.16639867311E+02  0.71582111578E+02  0.90052053913E+03  0.90351431935E+03  0.00000000000E+00 0. -1.
        -14    1    6    6    0    0  0.19461719054E+02 -0.17634483229E+02  0.28567887152E+03  0.28688351494E+03  0.00000000000E+00 0.  1.
</event>
<event>
12    1  0.8251070E-002  0.2157132E+03  0.7818608E-02  0.1137363E+00
         21   -1    0    0  501  502  0.00000000000E+00  0.00000000000E+00  0.11381544697E+03  0.11381544697E+03  0.00000000000E+00 0.  1.
         21   -1    0    0  502  503 -0.00000000000E+00 -0.00000000000E+00 -0.59784359608E+03  0.59784359608E+03  0.00000000000E+00 0.  1.
         -6    2    1    2    0  503 -0.44424816761E+02 -0.12048668287E+03 -0.41161510813E+02  0.21960526065E+03  0.17332511485E+03 0.  0.
        -24    2    3    3    0    0 -0.14149937813E+02  0.22288736953E+01  0.12706667837E+02  0.82129638121E+02  0.79866322266E+02 0.  0.
          6    2    1    2  501    0  0.44424816761E+02  0.12048668287E+03 -0.44286663830E+03  0.49205378240E+03  0.17174242448E+03 0.  0.
         24    2    5    5    0    0 -0.21709457952E+02  0.71297276439E+02 -0.13488159079E+03  0.17319610336E+03  0.79052163109E+02 0.  0.
          5    1    5    5  501    0  0.66134274713E+02  0.49189406431E+02 -0.30798504751E+03  0.31885767904E+03  0.47000000000E+01 0. -1.
        -13    1    6    6    0    0  0.25763437495E+02  0.28406443431E+02 -0.80733892528E+02  0.89379204195E+02  0.00000000000E+00 0.  1.
         14    1    6    6    0    0 -0.47472895447E+02  0.42890833009E+02 -0.54147698267E+02  0.83816899167E+02  0.00000000000E+00 0. -1.
         -5    1    3    3    0  503 -0.30274878947E+02 -0.12271555657E+03 -0.53868178650E+02  0.13747562253E+03  0.47000000000E+01 0.  1.
         11    1    4    4    0    0 -0.45460163381E+02  0.21666648147E+01  0.20420637899E+02  0.49883096769E+02  0.00000000000E+00 0. -1.
        -12    1    4    4    0    0  0.31310225568E+02  0.62208880531E-01 -0.77139700613E+01  0.32246541352E+02  0.00000000000E+00 0.  1.
</event>
<event>
12    1  0.8251070E-002  0.2549372E+03  0.7818608E-02  0.1110275E+00
         21   -1    0    0  501  502  0.00000000000E+00  0.00000000000E+00  0.14094001825E+04  0.14094001825E+04  0.00000000000E+00 0.  1.
         21   -1    0    0  502  503 -0.00000000000E+00 -0.00000000000E+00 -0.55238813388E+02  0.55238813388E+02  0.00000000000E+00 0. -1.
         -6    2    1    2    0  503  0.15518283630E+03 -0.10641549892E+03  0.37883361531E+03  0.45662661899E+03  0.17200869160E+03 0.  0.
        -24    2    3    3    0    0  0.20264963055E+02  0.12096951141E+01  0.12846435113E+03  0.15250020883E+03  0.79630974444E+02 0.  0.
          6    2    1    2  501    0 -0.15518283630E+03  0.10641549892E+03  0.97532775378E+03  0.10080123769E+04  0.17151895973E+03 0.  0.
         24    2    5    5    0    0 -0.11693085486E+03  0.11351096240E+03  0.51628823991E+03  0.54730322244E+03  0.80185455165E+02 0.  0.
          5    1    5    5  501    0 -0.38251981447E+02 -0.70954634845E+01  0.45903951388E+03  0.46070915444E+03  0.47000000000E+01 0. -1.
        -13    1    6    6    0    0 -0.71892683808E+02  0.52765480510E+02  0.16092011116E+03  0.18397835768E+03  0.00000000000E+00 0.  1.
         14    1    6    6    0    0 -0.45038171048E+02  0.60745481894E+02  0.35536812875E+03  0.36332486476E+03  0.00000000000E+00 0. -1.
         -5    1    3    3    0  503  0.13491787325E+03 -0.10762519403E+03  0.25036926418E+03  0.30412641016E+03  0.47000000000E+01 0.  1.
         13    1    4    4    0    0  0.47017621796E+01 -0.29008603590E+02  0.10991895915E+03  0.11377953784E+03  0.00000000000E+00 0. -1.
        -14    1    4    4    0    0  0.15563200875E+02  0.30218298704E+02  0.18545391978E+02  0.38720670987E+02  0.00000000000E+00 0.  1.
</event>
<event>
12    1  0.8251070E-002  0.4213837E+03  0.7818608E-02  0.1036637E+00
         21   -1    0    0  503  502  0.00000000000E+00  0.00000000000E+00  0.54232837722E+03  0.54232837722E+03  0.00000000000E+00 0. -1.
         21   -1    0    0  501  503 -0.00000000000E+00 -0.00000000000E+00 -0.42494645634E+03  0.42494645634E+03  0.00000000000E+00 0.  1.
          6    2    1    2  501    0  0.18267800381E+03  0.33838108255E+03 -0.17325772355E+03  0.45538071487E+03  0.17169841759E+03 0.  0.
         24    2    3    3    0    0  0.73560452408E+02  0.15204316727E+03 -0.14868241436E+03  0.23799972555E+03  0.77518669698E+02 0.  0.
         -6    2    1    2    0  502 -0.18267800381E+03 -0.33838108255E+03  0.29063964442E+03  0.51189411869E+03  0.17231127573E+03 0.  0.
        -24    2    5    5    0    0 -0.20450709664E+03 -0.30058717219E+03  0.28245737647E+03  0.46724069259E+03  0.79723864901E+02 0.  0.
          5    1    3    3  501    0  0.10911755140E+03  0.18633791528E+03 -0.24575309185E+02  0.21738098931E+03  0.47000000000E+01 0. -1.
        -11    1    4    4    0    0  0.86290205534E+02  0.10436119743E+03 -0.11989882056E+03  0.18086731676E+03  0.00000000000E+00 0.  1.
         12    1    4    4    0    0 -0.12729753127E+02  0.47681969845E+02 -0.28783593804E+02  0.57132408799E+02  0.00000000000E+00 0. -1.
         -5    1    5    5    0  502  0.21829092827E+02 -0.37793910356E+02  0.81822679582E+01  0.44653426101E+02  0.47000000000E+01 0.  1.
         13    1    6    6    0    0 -0.82667844872E+02 -0.14675481288E+03  0.84286810858E+02  0.18834865055E+03  0.00000000000E+00 0. -1.
        -14    1    6    6    0    0 -0.12183925176E+03 -0.15383235931E+03  0.19817056561E+03  0.27889204204E+03  0.00000000000E+00 0.  1.
</event>
<event>
12    1  0.8251070E-002  0.1991442E+03  0.7818608E-02  0.1150569E+00
         21   -1    0    0  501  502  0.00000000000E+00  0.00000000000E+00  0.13730085783E+03  0.13730085783E+03  0.00000000000E+00 0.  1.
         21   -1    0    0  502  503 -0.00000000000E+00 -0.00000000000E+00 -0.29325558186E+03  0.29325558186E+03  0.00000000000E+00 0. -1.
         -6    2    1    2    0  503  0.38757020299E+02 -0.93239783887E+02 -0.10656654936E+03  0.22586468013E+03  0.17164690607E+03 0.  0.
        -24    2    3    3    0    0  0.72520484479E+02 -0.33338375887E+02 -0.10975493296E+03  0.15686898473E+03  0.78683321506E+02 0.  0.
          6    2    1    2  501    0 -0.38757020299E+02  0.93239783887E+02 -0.49388174670E+02  0.20469175957E+03  0.17106653885E+03 0.  0.
         24    2    5    5    0    0 -0.69027424319E+02  0.99822888699E+01 -0.48826994572E+02  0.11597584916E+03  0.78752084356E+02 0.  0.
          5    1    5    5  501    0  0.30270404020E+02  0.83257495017E+02 -0.56118009805E+00  0.88715910406E+02  0.47000000000E+01 0. -1.
        -11    1    6    6    0    0 -0.23034349072E+00  0.29641491843E+02 -0.52437173421E+00  0.29647024513E+02  0.00000000000E+00 0.  1.
         12    1    6    6    0    0 -0.68797080828E+02 -0.19659202973E+02 -0.48302622838E+02  0.86328824648E+02  0.00000000000E+00 0. -1.
         -5    1    3    3    0  503 -0.33763464180E+02 -0.59901408000E+02  0.31883836032E+01  0.68995695401E+02  0.47000000000E+01 0.  1.
         11    1    4    4    0    0  0.34050364802E+02 -0.31611508077E+02 -0.68114581552E+01  0.46958606754E+02  0.00000000000E+00 0. -1.
        -12    1    4    4    0    0  0.38470119677E+02 -0.17268678101E+01 -0.10294347481E+03  0.10991037797E+03  0.00000000000E+00 0.  1.
</event>
<event>
12    1  0.8251070E-002  0.2263131E+03  0.7818608E-02  0.1129333E+00
         21   -1    0    0  503  502  0.00000000000E+00  0.00000000000E+00  0.22599158998E+03  0.22599158998E+03  0.00000000000E+00 0.  1.
         21   -1    0    0  501  503 -0.00000000000E+00 -0.00000000000E+00 -0.39319088219E+03  0.39319088219E+03  0.00000000000E+00 0.  1.
          6    2    1    2  501    0  0.14341259200E+03  0.31400053455E+02 -0.28537805922E+03  0.36422278598E+03  0.17223375464E+03 0.  0.
         24    2    3    3    0    0  0.16307330717E+03  0.64933738420E+00 -0.27304812053E+03  0.32541212188E+03  0.68879952012E+02 0.  0.
         -6    2    1    2    0  502 -0.14341259200E+03 -0.31400053455E+02  0.11817876701E+03  0.25495968620E+03  0.17171221771E+03 0.  0.
        -24    2    5    5    0    0 -0.16978016676E+03 -0.17657013025E+02  0.78299138723E+02  0.20499374868E+03  0.82186414563E+02 0.  0.
          5    1    3    3  501    0 -0.19660715165E+02  0.30750716070E+02 -0.12329938690E+02  0.38810664098E+02  0.47000000000E+01 0. -1.
        -11    1    4    4    0    0  0.12566699986E+03  0.20461340961E+02 -0.15857717190E+03  0.20336563322E+03  0.00000000000E+00 0.  1.
         12    1    4    4    0    0  0.37406307303E+02 -0.19812003577E+02 -0.11447094863E+03  0.12204648866E+03  0.00000000000E+00 0. -1.
         -5    1    5    5    0  502  0.26367574760E+02 -0.13743040430E+02  0.39879628292E+02  0.49965937514E+02  0.47000000000E+01 0.  1.
         11    1    6    6    0    0 -0.11677992855E+03 -0.43831630847E+02  0.29093999709E+02  0.12808288096E+03  0.00000000000E+00 0. -1.
        -12    1    6    6    0    0 -0.53000238210E+02  0.26174617823E+02  0.49205139014E+02  0.76910867722E+02  0.00000000000E+00 0.  1.
</event>
<event>
12    1  0.8251070E-002  0.2499142E+03  0.7818608E-02  0.1113628E+00
         21   -1    0    0  501  502  0.00000000000E+00  0.00000000000E+00  0.52688366136E+03  0.52688366136E+03  0.00000000000E+00 0. -1.
         21   -1    0    0  502  503 -0.00000000000E+00 -0.00000000000E+00 -0.13718112809E+03  0.13718112809E+03  0.00000000000E+00 0. -1.
         -6    2    1    2    0  503 -0.10550920093E+01 -0.17943421470E+03  0.32042562114E+03  0.40636152661E+03  0.17395218022E+03 0.  0.
        -24    2    3    3    0    0  0.35118650337E+00 -0.70397912197E+01  0.97995970447E+02  0.12490308497E+03  0.77122554537E+02 0.  0.
          6    2    1    2  501    0  0.10550920093E+01  0.17943421470E+03  0.69276912139E+02  0.25770326284E+03  0.17150489935E+03 0.  0.
         24    2    5    5    0    0 -0.12457373078E+02  0.12722597718E+03  0.11501362507E+03  0.18683561375E+03  0.73060093087E+02 0.  0.
          5    1    5    5  501    0  0.13512465087E+02  0.52208237520E+02 -0.45736712933E+02  0.70867649090E+02  0.47000000000E+01 0. -1.
        -11    1    6    6    0    0 -0.41430734854E+02  0.94937842830E+02  0.75784805041E+02  0.12834732746E+03  0.00000000000E+00 0.  1.
         12    1    6    6    0    0  0.28973361776E+02  0.32288134348E+02  0.39228820031E+02  0.58488286291E+02  0.00000000000E+00 0. -1.
         -5    1    3    3    0  503 -0.14062785126E+01 -0.17239442348E+03  0.22242965069E+03  0.28145844164E+03  0.47000000000E+01 0.  1.
         13    1    4    4    0    0 -0.28226605595E+02 -0.27651459837E+02  0.35304661535E+02  0.52988334760E+02  0.00000000000E+00 0. -1.
        -14    1    4    4    0    0  0.28577792098E+02  0.20611668617E+02  0.62691308912E+02  0.71914750208E+02  0.00000000000E+00 0.  1.
</event>
<event>
12    1  0.8251070E-002  0.1750588E+03  0.7818608E-02  0.1173380E+00
         21   -1    0    0  503  502  0.00000000000E+00  0.00000000000E+00  0.13711510616E+03  0.13711510616E+03  0.00000000000E+00 0. -1.
         21   -1    0    0  501  503 -0.00000000000E+00 -0.00000000000E+00 -0.22233386843E+03  0.22233386843E+03  0.00000000000E+00 0. -1.
          6    2    1    2  501    0 -0.34685579218E+02 -0.19039690254E+02 -0.60893124511E+02  0.18270816081E+03  0.16765649466E+03 0.  0.
         24    2    3    3    0    0 -0.49180260941E+02  0.30896579398E+02 -0.80425070265E+02  0.12696487664E+03  0.79237562360E+02 0.  0.
         -6    2    1    2    0  502  0.34685579218E+02  0.19039690254E+02 -0.24325637763E+02  0.17674081378E+03  0.17052852956E+03 0.  0.
        -24    2    5    5    0    0 -0.20548947194E+02  0.11239635804E+02  0.40348683144E+02  0.91203970598E+02  0.78368101787E+02 0.  0.
          5    1    3    3  501    0  0.14494681723E+02 -0.49936269652E+02  0.19531945754E+02  0.55743284169E+02  0.47000000000E+01 0. -1.
        -13    1    4    4    0    0 -0.15065121026E+02  0.45971474647E+02 -0.75037707270E+02  0.89280411430E+02  0.00000000000E+00 0.  1.
         14    1    4    4    0    0 -0.34115139915E+02 -0.15074895249E+02 -0.53873629945E+01  0.37684465211E+02  0.00000000000E+00 0. -1.
         -5    1    5    5    0  502  0.55234526412E+02  0.78000544500E+01 -0.64674320907E+02  0.85536843185E+02  0.47000000000E+01 0.  1.
         13    1    6    6    0    0  0.48151175158E+01  0.37422759474E+02  0.39663711317E+02  0.54743568378E+02  0.00000000000E+00 0. -1.
        -14    1    6    6    0    0 -0.25364064710E+02 -0.26183123669E+02  0.68497182729E+00  0.36460402221E+02  0.00000000000E+00 0.  1.
</event>
<event>
12    1  0.8251070E-002  0.1908252E+03  0.7818608E-02  0.1158179E+00
         21   -1    0    0  501  502  0.00000000000E+00  0.00000000000E+00  0.12920603212E+03  0.12920603212E+03  0.00000000000E+00 0.  1.
         21   -1    0    0  502  503 -0.00000000000E+00 -0.00000000000E+00 -0.30882511847E+03  0.30882511847E+03  0.00000000000E+00 0. -1.
         -6    2    1    2    0  503  0.62663971865E+02 -0.46697731209E+02 -0.21112805563E+02  0.18996163773E+03  0.17184941600E+03 0.  0.
        -24    2    3    3    0    0  0.29248777865E+02 -0.68226131401E+02  0.41537720352E+02  0.11561632448E+03  0.78303615889E+02 0.  0.
          6    2    1    2  501    0 -0.62663971865E+02  0.46697731209E+02 -0.15850628078E+03  0.24806951286E+03  0.17408845652E+03 0.  0.
         24    2    5    5    0    0 -0.36715214010E+02 -0.35211629109E+02 -0.12463490593E+03  0.15559334633E+03  0.78022842041E+02 0.  0.
          5    1    5    5  501    0 -0.25948757855E+02  0.81909360318E+02 -0.33871374846E+02  0.92476166529E+02  0.47000000000E+01 0. -1.
        -13    1    6    6    0    0  0.42459698054E+01 -0.42494272497E+02 -0.29920054360E+02  0.52144041918E+02  0.00000000000E+00 0.  1.
         14    1    6    6    0    0 -0.40961183816E+02  0.72826433885E+01 -0.94714851574E+02  0.10344930441E+03  0.00000000000E+00 0. -1.
         -5    1    3    3    0  503  0.33415194000E+02  0.21528400192E+02 -0.62650525915E+02  0.74345313251E+02  0.47000000000E+01 0.  1.
         11    1    4    4    0    0 -0.13106909003E+02 -0.61839671194E+02  0.35088877732E+02  0.72299137875E+02  0.00000000000E+00 0. -1.
        -12    1    4    4    0    0  0.42355686868E+02 -0.63864602071E+01  0.64488426201E+01  0.43317186603E+02  0.00000000000E+00 0.  1.
</event>
<event>
12    1  0.8251070E-002  0.2170563E+03  0.7818608E-02  0.1137173E+00
         21   -1    0    0  503  502  0.00000000000E+00  0.00000000000E+00  0.80141664601E+03  0.80141664601E+03  0.00000000000E+00 0.  1.
         21   -1    0    0  501  503 -0.00000000000E+00 -0.00000000000E+00 -0.58636151763E+02  0.58636151763E+02  0.00000000000E+00 0. -1.
          6    2    1    2  501    0 -0.54263217052E+02 -0.10879527723E+03  0.31079922009E+03  0.37909049780E+03  0.17981251692E+03 0.  0.
         24    2    3    3    0    0  0.82902949010E+01  0.84301325874E+01  0.10182028459E+03  0.13140314639E+03  0.82216910689E+02 0.  0.
         -6    2    1    2    0  502  0.54263217052E+02  0.10879527723E+03  0.43198127416E+03  0.48096229998E+03  0.17302024072E+03 0.  0.
        -24    2    5    5    0    0  0.66877151246E+02  0.71472545114E+02  0.15980237345E+03  0.20590677529E+03  0.85322467645E+02 0.  0.
          5    1    3    3  501    0 -0.62553511953E+02 -0.11722540982E+03  0.20897893550E+03  0.24768735141E+03  0.47000000000E+01 0. -1.
        -11    1    4    4    0    0  0.51750713906E+01  0.40153415802E+02  0.87592241818E+02  0.96496005053E+02  0.00000000000E+00 0.  1.
         12    1    4    4    0    0  0.31152235104E+01 -0.31723283215E+02  0.14228042771E+02  0.34907141340E+02  0.00000000000E+00 0. -1.
         -5    1    5    5    0  502 -0.12613934194E+02  0.37322732120E+02  0.27217890071E+03  0.27505552469E+03  0.47000000000E+01 0.  1.
         13    1    6    6    0    0  0.10474560905E+02  0.65419428164E+02  0.52497941759E+02  0.84530774848E+02  0.00000000000E+00 0. -1.
        -14    1    6    6    0    0  0.56402590341E+02  0.60531169494E+01  0.10730443169E+03  0.12137600044E+03  0.00000000000E+00 0.  1.
</event>
<event>
12    1  0.8251070E-002  0.1723876E+03  0.7818608E-02  0.1175622E+00
         21   -1    0    0  503  502  0.00000000000E+00  0.00000000000E+00  0.15859785785E+03  0.15859785785E+03  0.00000000000E+00 0. -1.
         21   -1    0    0  501  503 -0.00000000000E+00 -0.00000000000E+00 -0.20224264671E+03  0.20224264671E+03  0.00000000000E+00 0. -1.
          6    2    1    2  501    0  0.70231744635E+01  0.59410141082E+01  0.28686450262E+02  0.17475810219E+03  0.17214197984E+03 0.  0.
         24    2    3    3    0    0  0.13554781580E+02 -0.63462262135E+02 -0.70242140036E+00  0.98960526884E+02  0.74709448307E+02 0.  0.
         -6    2    1    2    0  502 -0.70231744635E+01 -0.59410141082E+01 -0.72331239126E+02  0.18608240237E+03  0.17120231217E+03 0.  0.
        -24    2    5    5    0    0  0.58587812789E+01 -0.35203414521E+02 -0.10675881672E+03  0.13886396359E+03  0.81315126051E+02 0.  0.
          5    1    3    3  501    0 -0.65316071169E+01  0.69403276243E+02  0.29388871662E+02  0.75797575307E+02  0.47000000000E+01 0. -1.
        -13    1    4    4    0    0 -0.25878798105E+02 -0.95657048205E+01  0.13452166867E+02  0.30694880574E+02  0.00000000000E+00 0.  1.
         14    1    4    4    0    0  0.39433579685E+02 -0.53896557315E+02 -0.14154588267E+02  0.68265646310E+02  0.00000000000E+00 0. -1.
         -5    1    5    5    0  502 -0.12881955742E+02  0.29262400412E+02  0.34427577597E+02  0.47218438780E+02  0.47000000000E+01 0.  1.
         13    1    6    6    0    0 -0.32680218573E+02 -0.31335495795E+02 -0.34658693901E+02  0.57018725394E+02  0.00000000000E+00 0. -1.
        -14    1    6    6    0    0  0.38538999852E+02 -0.38679187261E+01 -0.72100122822E+02  0.81845238199E+02  0.00000000000E+00 0.  1.
</event>
<event>
12    1  0.8251070E-002  0.1881638E+03  0.7818608E-02  0.1160917E+00
         21   -1    0    0  501  502  0.00000000000E+00  0.00000000000E+00  0.28248555523E+02  0.28248555523E+02  0.00000000000E+00 0. -1.
         21   -1    0    0  502  503 -0.00000000000E+00 -0.00000000000E+00 -0.15417871178E+04  0.15417871178E+04  0.00000000000E+00 0.  1.
         -6    2    1    2    0  503 -0.66533974389E+02 -0.10203739182E+02 -0.11149329306E+04  0.11306993655E+04  0.17571206341E+03 0.  0.
        -24    2    3    3    0    0 -0.40098998706E+02  0.45531105759E+02 -0.37376039468E+03  0.38694940821E+03  0.79699439092E+02 0.  0.
          6    2    1    2  501    0  0.66533974389E+02  0.10203739182E+02 -0.39860563165E+03  0.43933630786E+03  0.17204376123E+03 0.  0.
         24    2    5    5    0    0  0.61941761354E+02  0.12771473839E+02 -0.41164177713E+03  0.42451359655E+03  0.82237148740E+02 0.  0.
          5    1    5    5  501    0  0.45922130349E+01 -0.25677346571E+01  0.13036145474E+02  0.14822711313E+02  0.47000000000E+01 0. -1.
        -13    1    6    6    0    0 -0.17838353171E+02  0.10576933021E+02 -0.13520926529E+03  0.13679043745E+03  0.00000000000E+00 0.  1.
         14    1    6    6    0    0  0.79780114525E+02  0.21945408182E+01 -0.27643251183E+03  0.28772315910E+03  0.00000000000E+00 0. -1.
         -5    1    3    3    0  503 -0.26434975683E+02 -0.55734844941E+02 -0.74117253595E+03  0.74374995726E+03  0.47000000000E+01 0.  1.
         13    1    4    4    0    0 -0.22844485960E+02 -0.20207692936E+02 -0.85248691077E+02  0.90540381725E+02  0.00000000000E+00 0. -1.
        -14    1    4    4    0    0 -0.17254512746E+02  0.65738798695E+02 -0.28851170360E+03  0.29640902648E+03  0.00000000000E+00 0.  1.
</event>
<event>
12    1  0.8251070E-002  0.2064121E+03  0.7818608E-02  0.1145635E+00
         21   -1    0    0  501  502  0.00000000000E+00  0.00000000000E+00  0.13222391976E+04  0.13222391976E+04  0.00000000000E+00 0.  1.
         21   -1    0    0  502  503 -0.00000000000E+00 -0.00000000000E+00 -0.11872143116E+03  0.11872143116E+03  0.00000000000E+00 0. -1.
         -6    2    1    2    0  503  0.79899213337E+02  0.82115654686E+02 -0.18672573844E+02  0.20146267084E+03  0.16465624097E+03 0.  0.
        -24    2    3    3    0    0  0.67788788998E+02  0.88285565500E+02 -0.62914733122E+02  0.15494182782E+03  0.87515972117E+02 0.  0.
          6    2    1    2  501    0 -0.79899213337E+02 -0.82115654686E+02  0.12221903403E+04  0.12394979580E+04  0.17169477208E+03 0.  0.
         24    2    5    5    0    0 -0.12242071522E+03 -0.60544786953E+02  0.89346171508E+03  0.90729624286E+03  0.79121003872E+02 0.  0.
          5    1    5    5  501    0  0.42521501884E+02 -0.21570867733E+02  0.32872862525E+03  0.33220171510E+03  0.47000000000E+01 0. -1.
        -13    1    6    6    0    0 -0.95330795846E+02 -0.69957070504E+02  0.54622113403E+03  0.55887340213E+03  0.00000000000E+00 0.  1.
         14    1    6    6    0    0 -0.27089919374E+02  0.94122835510E+01  0.34724058105E+03  0.34842284073E+03  0.00000000000E+00 0. -1.
         -5    1    3    3    0  503  0.12110424338E+02 -0.61699108141E+01  0.44242159278E+02  0.46520843014E+02  0.47000000000E+01 0.  1.
         11    1    4    4    0    0  0.50674873672E+02  0.10507960922E+03 -0.45117379959E+02  0.12508095406E+03  0.00000000000E+00 0. -1.
        -12    1    4    4    0    0  0.17113915326E+02 -0.16794043716E+02 -0.17797353163E+02  0.29860873761E+02  0.00000000000E+00 0.  1.
</event>
<event>
12    1  0.8251070E-002  0.1962616E+03  0.7818608E-02  0.1153127E+00
         21   -1    0    0  503  502  0.00000000000E+00  0.00000000000E+00  0.93708813712E+02  0.93708813712E+02  0.00000000000E+00 0.  1.
         21   -1    0    0  501  503 -0.00000000000E+00 -0.00000000000E+00 -0.57484428525E+03  0.57484428525E+03  0.00000000000E+00 0.  1.
          6    2    1    2  501    0 -0.76409120235E+02  0.53294150216E+02 -0.42042227481E+03  0.46397575973E+03  0.17274257251E+03 0.  0.
         24    2    3    3    0    0 -0.80774096128E+02  0.71710928531E+02 -0.42341614884E+03  0.44424547793E+03  0.80036852040E+02 0.  0.
         -6    2    1    2    0  502  0.76409120235E+02 -0.53294150216E+02 -0.60713196730E+02  0.20457733923E+03  0.17171830237E+03 0.  0.
        -24    2    5    5    0    0 -0.10350927298E+02 -0.70517285140E+02 -0.37423184250E+02  0.11298881973E+03  0.79285241149E+02 0.  0.
          5    1    3    3  501    0  0.43649758924E+01 -0.18416778315E+02  0.29938740357E+01  0.19730281797E+02  0.47000000000E+01 0. -1.
        -11    1    4    4    0    0 -0.32288610127E+02  0.45586299060E+02 -0.33818612129E+03  0.34276889829E+03  0.00000000000E+00 0.  1.
         12    1    4    4    0    0 -0.48485486000E+02  0.26124629471E+02 -0.85230027556E+02  0.10147657964E+03  0.00000000000E+00 0. -1.
         -5    1    5    5    0  502  0.86760047533E+02  0.17223134924E+02 -0.23290012480E+02  0.91588519509E+02  0.47000000000E+01 0.  1.
         13    1    6    6    0    0 -0.41478375034E+02 -0.22323672922E+02 -0.57478068808E+01  0.47453548362E+02  0.00000000000E+00 0. -1.
        -14    1    6    6    0    0  0.31127447736E+02 -0.48193612217E+02 -0.31675377369E+02  0.65535271363E+02  0.00000000000E+00 0.  1.
</event>
<event>
12    1  0.8251070E-002  0.2772321E+03  0.7818608E-02  0.1097232E+00
         21   -1    0    0  503  502  0.00000000000E+00  0.00000000000E+00  0.77403870668E+02  0.77403870668E+02  0.00000000000E+00 0. -1.
         21   -1    0    0  501  503 -0.00000000000E+00 -0.00000000000E+00 -0.18766641869E+04  0.18766641869E+04  0.00000000000E+00 0.  1.
          6    2    1    2  501    0  0.18367223471E+03 -0.11759640864E+03 -0.15704423428E+04  0.15947246726E+04  0.17115263386E+03 0.  0.
         24    2    3    3    0    0  0.92757318109E+02 -0.45928252128E+02 -0.46046942407E+03  0.47872117031E+03  0.80178201472E+02 0.  0.
         -6    2    1    2    0  502 -0.18367223471E+03  0.11759640864E+03 -0.22881797341E+03  0.35934338499E+03  0.17089645477E+03 0.  0.
        -24    2    5    5    0    0 -0.12039376381E+03  0.19346220734E+02 -0.75216353519E+02  0.16628170589E+03  0.84398881840E+02 0.  0.
          5    1    3    3  501    0  0.90914916602E+02 -0.71668156510E+02 -0.11099729188E+04  0.11160035023E+04  0.47000000000E+01 0. -1.
        -13    1    4    4    0    0  0.76102127097E+02 -0.10080158405E+02 -0.39381481757E+03  0.40122718487E+03  0.00000000000E+00 0.  1.
         14    1    4    4    0    0  0.16655191012E+02 -0.35848093723E+02 -0.66654606504E+02  0.77493985440E+02  0.00000000000E+00 0. -1.
         -5    1    5    5    0  502 -0.63278470896E+02  0.98250187904E+02 -0.15360161989E+03  0.19306167909E+03  0.47000000000E+01 0.  1.
         11    1    6    6    0    0 -0.12251204144E+03  0.38238004592E+02 -0.58821259575E+02  0.14117820608E+03  0.00000000000E+00 0. -1.
        -12    1    6    6    0    0  0.21182776290E+01 -0.18891783858E+02 -0.16395093944E+02  0.25103499813E+02  0.00000000000E+00 0.  1.
</event>
<event>
12    1  0.8251070E-002  0.2347883E+03  0.7818608E-02  0.1123399E+00
         21   -1    0    0  501  502  0.00000000000E+00  0.00000000000E+00  0.44346880042E+02  0.44346880042E+02  0.00000000000E+00 0. -1.
         21   -1    0    0  502  503 -0.00000000000E+00 -0.00000000000E+00 -0.16361381950E+04  0.16361381950E+04  0.00000000000E+00 0.  1.
         -6    2    1    2    0  503 -0.65827281760E+02 -0.14545519666E+03 -0.12097505009E+04  0.12323237566E+04  0.17214854451E+03 0.  0.
        -24    2    3    3    0    0 -0.73096444198E+02 -0.91461075859E+02 -0.47668515028E+03  0.49722165206E+03  0.79324776908E+02 0.  0.
          6    2    1    2  501    0  0.65827281760E+02  0.14545519666E+03 -0.38204081407E+03  0.44816131846E+03  0.17147285059E+03 0.  0.
         24    2    5    5    0    0  0.42733064676E+02  0.17003051927E+03 -0.27133067277E+03  0.33233336532E+03  0.78029734169E+02 0.  0.
          5    1    5    5  501    0  0.23094217084E+02 -0.24575322610E+02 -0.11071014129E+03  0.11582795314E+03  0.47000000000E+01 0. -1.
        -13    1    6    6    0    0 -0.21023331856E+02  0.64327861967E+02 -0.11072806467E+03  0.12977194848E+03  0.00000000000E+00 0.  1.
         14    1    6    6    0    0  0.63756396532E+02  0.10570265730E+03 -0.16060260811E+03  0.20256141684E+03  0.00000000000E+00 0. -1.
         -5    1    3    3    0  503  0.72691624377E+01 -0.53994120800E+02 -0.73306535066E+03  0.73510210457E+03  0.47000000000E+01 0.  1.
         11    1    4    4    0    0 -0.47597761862E+01 -0.49372840183E+01  0.10418396944E+01  0.69366903325E+01  0.00000000000E+00 0. -1.
        -12    1    4    4    0    0 -0.68336668012E+02 -0.86523791841E+02 -0.47772698997E+03  0.49028496173E+03  0.00000000000E+00 0.  1.
</event>
<event>
12    1  0.8251070E-002  0.1823109E+03  0.7818608E-02  0.1166170E+00
         21   -1    0    0  503  502  0.00000000000E+00  0.00000000000E+00  0.51737816542E+03  0.51737816542E+03  0.00000000000E+00 0.  1.
         21   -1    0    0  501  503 -0.00000000000E+00 -0.00000000000E+00 -0.69835559162E+02  0.69835559162E+02  0.00000000000E+00 0. -1.
          6    2    1    2  501    0 -0.26735219368E+02  0.42860127292E+02  0.13317293567E+03  0.22380545411E+03  0.17263281272E+03 0.  0.
         24    2    3    3    0    0 -0.71765121719E+02  0.67428421165E+02  0.81736583596E+02  0.15101066388E+03  0.80165621255E+02 0.  0.
         -6    2    1    2    0  502  0.26735219368E+02 -0.42860127292E+02  0.31436967059E+03  0.36340827047E+03  0.17517282552E+03 0.  0.
        -24    2    5    5    0    0  0.72826457757E+02  0.14198325958E+02  0.19365473715E+03  0.22207796765E+03  0.79442942312E+02 0.  0.
          5    1    3    3  501    0  0.45029902351E+02 -0.24568293873E+02  0.51436352078E+02  0.72794790230E+02  0.47000000000E+01 0. -1.
        -13    1    4    4    0    0 -0.44403392823E+02  0.19851629621E+01  0.63953921065E+02  0.77882643674E+02  0.00000000000E+00 0.  1.
         14    1    4    4    0    0 -0.27361728897E+02  0.65443258203E+02  0.17782662532E+02  0.73128020205E+02  0.00000000000E+00 0. -1.
         -5    1    5    5    0  502 -0.46091238389E+02 -0.57058453250E+02  0.12071493343E+03  0.14133030283E+03  0.47000000000E+01 0.  1.
         11    1    6    6    0    0  0.19733862368E+02  0.41333793074E+02  0.58053104324E+02  0.73946404210E+02  0.00000000000E+00 0. -1.
        -12    1    6    6    0    0  0.53092595389E+02 -0.27135467116E+02  0.13560163283E+03  0.14813156344E+03  0.00000000000E+00 0.  1.
</event>
<event>
12    1  0.8251070E-002  0.1967178E+03  0.7818608E-02  0.1152600E+00
         21   -1    0    0  503  502  0.00000000000E+00  0.00000000000E+00  0.34526695523E+03  0.34526695523E+03  0.00000000000E+00 0. -1.
         21   -1    0    0  501  503 -0.00000000000E+00 -0.00000000000E+00 -0.14017271207E+03  0.14017271207E+03  0.00000000000E+00 0. -1.
          6    2    1    2  501    0  0.86326381358E+02 -0.41855481500E+02 -0.63649799768E+01  0.19682078800E+03  0.17173754444E+03 0.  0.
         24    2    3    3    0    0  0.37650064273E+02  0.42429698783E+02 -0.14428996941E+02  0.99043010208E+02  0.79896903818E+02 0.  0.
         -6    2    1    2    0  502 -0.86326381358E+02  0.41855481500E+02  0.21145922314E+03  0.28861887930E+03  0.17141099436E+03 0.  0.
        -24    2    5    5    0    0 -0.17089358486E+02  0.75562761370E+02  0.80830824695E+02  0.13690924041E+03  0.78795563383E+02 0.  0.
          5    1    3    3  501    0  0.48676317085E+02 -0.84285180283E+02  0.80640169638E+01  0.97777777792E+02  0.47000000000E+01 0. -1.
        -11    1    4    4    0    0  0.43355264559E+02  0.42616619589E+02 -0.40045870128E+02  0.72797849862E+02  0.00000000000E+00 0.  1.
         12    1    4    4    0    0 -0.57052002862E+01 -0.18692080562E+00  0.25616873188E+02  0.26245160346E+02  0.00000000000E+00 0. -1.
         -5    1    5    5    0  502 -0.69237022872E+02 -0.33707279869E+02  0.13062839844E+03  0.15170963889E+03  0.47000000000E+01 0.  1.
         13    1    6    6    0    0 -0.99273721734E+01 -0.14021658907E+02  0.27443596506E+02  0.32377625391E+02  0.00000000000E+00 0. -1.
        -14    1    6    6    0    0 -0.71619863127E+01  0.89584420277E+02  0.53387228189E+02  0.10453161502E+03  0.00000000000E+00 0.  1.
</event>
<event>
12    1  0.8251070E-002  0.1725547E+03  0.7818608E-02  0.1175772E+00
         21   -1    0    0  503  502  0.00000000000E+00  0.00000000000E+00  0.57709950993E+03  0.57709950993E+03  0.00000000000E+00 0.  1.
         21   -1    0    0  501  503 -0.00000000000E+00 -0.00000000000E+00 -0.19294973751E+03  0.19294973751E+03  0.00000000000E+00 0.  1.
          6    2    1    2  501    0  0.32877203490E+01 -0.13556941280E+02 -0.13790956437E+03  0.22089399641E+03  0.17198985419E+03 0.  0.
         24    2    3    3    0    0 -0.12808182865E+02 -0.53329002021E+02 -0.14747361185E+03  0.17668476751E+03  0.80380401053E+02 0.  0.
         -6    2    1    2    0  502 -0.32877203490E+01  0.13556941280E+02  0.52205933679E+03  0.54915525102E+03  0.16979675744E+03 0.  0.
        -24    2    5    5    0    0  0.42501455671E+01  0.68811280520E+02  0.25585281858E+03  0.27712977103E+03  0.81161500443E+02 0.  0.
          5    1    3    3  501    0  0.16095903214E+02  0.39772060741E+02  0.95640474778E+01  0.44209228901E+02  0.47000000000E+01 0. -1.
        -11    1    4    4    0    0 -0.47675323264E+01  0.32592688895E+01 -0.10577878502E+03  0.10593631841E+03  0.00000000000E+00 0.  1.
         12    1    4    4    0    0 -0.80406505389E+01 -0.56588270911E+02 -0.41694826831E+02  0.70748449101E+02  0.00000000000E+00 0. -1.
         -5    1    5    5    0  502 -0.75378659161E+01 -0.55254339239E+02  0.26620651821E+03  0.27202547999E+03  0.47000000000E+01 0.  1.
         11    1    6    6    0    0  0.29834455423E+02  0.35883447533E+02  0.55632372121E+02  0.72613203793E+02  0.00000000000E+00 0. -1.
        -12    1    6    6    0    0 -0.25584309856E+02  0.32927832986E+02  0.20022044646E+03  0.20451656724E+03  0.00000000000E+00 0.  1.
</event>
<event>
12    1  0.8251070E-002  0.1848090E+03  0.7818608E-02  0.1163465E+00
         21   -1    0    0  501  502  0.00000000000E+00  0.00000000000E+00  0.21020652260E+04  0.21020652260E+04  0.00000000000E+00 0. -1.
         21   -1    0    0  502  503 -0.00000000000E+00 -0.00000000000E+00 -0.16578607728E+02  0.16578607728E+02  0.00000000000E+00 0. -1.
         -6    2    1    2    0  503  0.58724325979E+02 -0.35906299893E+02  0.87152388129E+03  0.89069437189E+03  0.17042529045E+03 0.  0.
        -24    2    3    3    0    0  0.40808986158E+02 -0.74957888163E+02  0.78807962265E+03  0.79672086367E+03  0.80066126561E+02 0.  0.
          6    2    1    2  501    0 -0.58724325979E+02  0.35906299893E+02  0.12139627370E+04  0.12279494619E+04  0.17151252203E+03 0.  0.
         24    2    5    5    0    0 -0.19268939792E+02 -0.46185448162E+02  0.56859896382E+03  0.57617321779E+03  0.78526476912E+02 0.  0.
          5    1    5    5  501    0 -0.39455386187E+02  0.82091748055E+02  0.64536377318E+03  0.65177624407E+03  0.47000000000E+01 0. -1.
        -11    1    6    6    0    0  0.23832207397E+02 -0.36273632080E+02  0.18448987963E+03  0.18952642607E+03  0.00000000000E+00 0.  1.
         12    1    6    6    0    0 -0.43101147189E+02 -0.99118160825E+01  0.38410908419E+03  0.38664679171E+03  0.00000000000E+00 0. -1.
         -5    1    3    3    0  503  0.17915339821E+02  0.39051588270E+02  0.83444258639E+02  0.93973508220E+02  0.47000000000E+01 0.  1.
         13    1    4    4    0    0 -0.16276726633E+02 -0.53512598985E+02  0.39430168843E+03  0.39824910745E+03  0.00000000000E+00 0. -1.
        -14    1    4    4    0    0  0.57085712791E+02 -0.21445289177E+02  0.39377793422E+03  0.39847175622E+03  0.00000000000E+00 0.  1.
</event>
<event>
12    1  0.8251070E-002  0.1867527E+03  0.7818608E-02  0.1161451E+00
         21   -1    0    0  503  502  0.00000000000E+00  0.00000000000E+00  0.24656103839E+04  0.24656103839E+04  0.00000000000E+00 0. -1.
         21   -1    0    0  501  503 -0.00000000000E+00 -0.00000000000E+00 -0.16936362133E+02  0.16936362133E+02  0.00000000000E+00 0. -1.
          6    2    1    2  501    0 -0.21473211116E+02 -0.69806492561E+02  0.71993492584E+03  0.74376264564E+03  0.17187940657E+03 0.  0.
         24    2    3    3    0    0 -0.23340040608E+02  0.81238582238E+01  0.55095994142E+03  0.55761415656E+03  0.82255309744E+02 0.  0.
         -6    2    1    2    0  502  0.21473211116E+02  0.69806492561E+02  0.17287390959E+04  0.17387841004E+04  0.17174760783E+03 0.  0.
        -24    2    5    5    0    0  0.45424621004E+02  0.61928946699E+00  0.13457510378E+04  0.13488322036E+04  0.78985303339E+02 0.  0.
          5    1    3    3  501    0  0.18668294927E+01 -0.77930350785E+02  0.16897498442E+03  0.18614848908E+03  0.47000000000E+01 0. -1.
        -13    1    4    4    0    0 -0.14624848017E+02  0.45307073612E+02  0.31818054750E+03  0.32172267235E+03  0.00000000000E+00 0.  1.
         14    1    4    4    0    0 -0.87151925919E+01 -0.37183215388E+02  0.23277939392E+03  0.23589148421E+03  0.00000000000E+00 0. -1.
         -5    1    5    5    0  502 -0.23951409889E+02  0.69187203094E+02  0.38298805812E+03  0.38995189673E+03  0.47000000000E+01 0.  1.
         11    1    6    6    0    0  0.16499969261E+02 -0.22581634758E+02  0.15493360047E+03  0.15743760595E+03  0.00000000000E+00 0. -1.
        -12    1    6    6    0    0  0.28924651743E+02  0.23200924225E+02  0.11908174373E+04  0.11913945977E+04  0.00000000000E+00 0.  1.
</event>
<event>
12    1  0.8251070E-002  0.3313505E+03  0.7818608E-02  0.1070923E+00
         21   -1    0    0  503  502  0.00000000000E+00  0.00000000000E+00  0.43457916923E+03  0.43457916923E+03  0.00000000000E+00 0.  1.
         21   -1    0    0  501  503 -0.00000000000E+00 -0.00000000000E+00 -0.34665839655E+03  0.34665839655E+03  0.00000000000E+00 0. -1.
          6    2    1    2  501    0 -0.76807126795E+01 -0.27980537134E+03 -0.16211406039E+03  0.36888227137E+03  0.17732208654E+03 0.  0.
         24    2    3    3    0    0  0.26312800284E+02 -0.26572358323E+03 -0.17465971488E+03  0.32972439698E+03  0.83131076139E+02 0.  0.
         -6    2    1    2    0  502  0.76807126795E+01  0.27980537134E+03  0.25003483307E+03  0.41235529442E+03  0.17079060837E+03 0.  0.
        -24    2    5    5    0    0 -0.22509761057E+02  0.24989844378E+03  0.14923254565E+03  0.30286063624E+03  0.80611976506E+02 0.  0.
          5    1    3    3  501    0 -0.33993512963E+02 -0.14081788118E+02  0.12545654491E+02  0.39157874390E+02  0.47000000000E+01 0. -1.
        -11    1    4    4    0    0 -0.26724701324E+02 -0.55545585106E+02 -0.26113095845E+02  0.66943375029E+02  0.00000000000E+00 0.  1.
         12    1    4    4    0    0  0.53037501608E+02 -0.21017799812E+03 -0.14854661903E+03  0.26278102195E+03  0.00000000000E+00 0. -1.
         -5    1    5    5    0  502  0.30190473736E+02  0.29906927565E+02  0.10080228742E+03  0.10949465818E+03  0.47000000000E+01 0.  1.
         11    1    6    6    0    0 -0.45256488162E+02  0.78460416409E+02  0.53249127067E+02  0.10506976824E+03  0.00000000000E+00 0. -1.
        -12    1    6    6    0    0  0.22746727106E+02  0.17143802737E+03  0.95983418585E+02  0.19779086800E+03  0.00000000000E+00 0.  1.
</event>
<event>
12    1  0.8251070E-002  0.2274735E+03  0.7818608E-02  0.1128540E+00
         21   -1    0    0  503  502  0.00000000000E+00  0.00000000000E+00  0.12130433372E+03  0.12130433372E+03  0.00000000000E+00 0. -1.
         21   -1    0    0  501  503 -0.00000000000E+00 -0.00000000000E+00 -0.57339362305E+03  0.57339362305E+03  0.00000000000E+00 0.  1.
          6    2    1    2  501    0  0.14482736817E+03  0.30186848060E+02 -0.40227213196E+03  0.46183335295E+03  0.17199117819E+03 0.  0.
         24    2    3    3    0    0  0.14652274017E+03  0.32959492480E+02 -0.21227666750E+03  0.27175197995E+03  0.78946269770E+02 0.  0.
         -6    2    1    2    0  502 -0.14482736817E+03 -0.30186848060E+02 -0.49817157368E+02  0.23286460383E+03  0.17279456641E+03 0.  0.
        -24    2    5    5    0    0 -0.14789322533E+03  0.17290098852E+02 -0.66993064163E+02  0.18206537409E+03  0.80550457340E+02 0.  0.
          5    1    3    3  501    0 -0.16953720044E+01 -0.27726444209E+01 -0.18999546446E+03  0.19008137300E+03  0.47000000000E+01 0. -1.
        -11    1    4    4    0    0  0.12613885730E+03  0.37773968609E+02 -0.21342584168E+03  0.25077574428E+03  0.00000000000E+00 0.  1.
         12    1    4    4    0    0  0.20383882877E+02 -0.48144761281E+01  0.11491741798E+01  0.20976235668E+02  0.00000000000E+00 0. -1.
         -5    1    5    5    0  502  0.30658571658E+01 -0.47476946912E+02  0.17175906795E+02  0.50799229743E+02  0.47000000000E+01 0.  1.
         11    1    6    6    0    0 -0.12356452193E+03  0.20023896943E+00 -0.18157839546E+02  0.12489170634E+03  0.00000000000E+00 0. -1.
        -12    1    6    6    0    0 -0.24328703400E+02  0.17089859883E+02 -0.48835224617E+02  0.57173667744E+02  0.00000000000E+00 0.  1.
</event>
<event>
12    1  0.8251070E-002  0.1881987E+03  0.7818608E-02  0.1160123E+00
         21   -1    0    0  503  502  0.00000000000E+00  0.00000000000E+00  0.53492827730E+02  0.53492827730E+02  0.00000000000E+00 0.  1.
         21   -1    0    0  501  503 -0.00000000000E+00 -0.00000000000E+00 -0.78443459451E+03  0.78443459451E+03  0.00000000000E+00 0.  1.
          6    2    1    2  501    0 -0.66756894411E+02  0.36288188176E+02 -0.19965886192E+03  0.27429610798E+03  0.17205051048E+03 0.  0.
         24    2    3    3    0    0 -0.79237171172E+02  0.43877473076E+02 -0.21873809948E+03  0.24981219777E+03  0.79724626402E+02 0.  0.
         -6    2    1    2    0  502  0.66756894411E+02 -0.36288188176E+02 -0.53128290486E+03  0.56363131426E+03  0.17217844774E+03 0.  0.
        -24    2    5    5    0    0 -0.48724168420E+01 -0.43341071221E+02 -0.37831920678E+03  0.39451453710E+03  0.10302479730E+03 0.  0.
          5    1    3    3  501    0  0.12480276761E+02 -0.75892849000E+01  0.19079237555E+02  0.24483910206E+02  0.47000000000E+01 0. -1.
        -13    1    4    4    0    0 -0.46514173184E+02  0.40095385386E+02 -0.53882683847E+02  0.81697930541E+02  0.00000000000E+00 0.  1.
         14    1    4    4    0    0 -0.32722997988E+02  0.37820876907E+01 -0.16485541563E+03  0.16811426723E+03  0.00000000000E+00 0. -1.
         -5    1    5    5    0  502  0.71629311253E+02  0.70528830443E+01 -0.15296369807E+03  0.16911677716E+03  0.47000000000E+01 0.  1.
         13    1    6    6    0    0  0.11060816966E+02  0.28760568500E+02 -0.18546237040E+03  0.18800479464E+03  0.00000000000E+00 0. -1.
        -14    1    6    6    0    0 -0.15933233808E+02 -0.72101639721E+02 -0.19285683638E+03  0.20650974245E+03  0.00000000000E+00 0.  1.
</event>
<event>
12    1  0.8251070E-002  0.1916618E+03  0.7818608E-02  0.1157140E+00
         21   -1    0    0  501  502  0.00000000000E+00  0.00000000000E+00  0.54115245107E+03  0.54115245107E+03  0.00000000000E+00 0.  1.
         21   -1    0    0  502  503 -0.00000000000E+00 -0.00000000000E+00 -0.15839310613E+03  0.15839310613E+03  0.00000000000E+00 0.  1.
         -6    2    1    2    0  503 -0.83320958092E+02 -0.94068978028E+01 -0.73577622023E+02  0.20459334931E+03  0.17150481141E+03 0.  0.
        -24    2    3    3    0    0 -0.64661796639E+02 -0.60509840812E+00  0.22442168144E+02  0.10626977085E+03  0.81290215868E+02 0.  0.
          6    2    1    2  501    0  0.83320958092E+02  0.94068978028E+01  0.45633696696E+03  0.49495220789E+03  0.17234671130E+03 0.  0.
         24    2    5    5    0    0  0.15579542414E+02  0.56894074229E+02  0.21170358762E+03  0.23666649088E+03  0.87823465373E+02 0.  0.
          5    1    5    5  501    0  0.67741415678E+02 -0.47487176427E+02  0.24463337934E+03  0.25828571701E+03  0.47000000000E+01 0. -1.
        -11    1    6    6    0    0  0.16021822863E+02  0.14159565896E+02  0.18508905121E+03  0.18632001769E+03  0.00000000000E+00 0.  1.
         12    1    6    6    0    0 -0.44228044868E+00  0.42734508333E+02  0.26614536413E+02  0.50346473193E+02  0.00000000000E+00 0. -1.
         -5    1    3    3    0  503 -0.18659161453E+02 -0.88017993947E+01 -0.96019790167E+02  0.98323578466E+02  0.47000000000E+01 0.  1.
         13    1    4    4    0    0  0.83329778850E+01 -0.74873937293E+01  0.30516706984E+02  0.32507983488E+02  0.00000000000E+00 0. -1.
        -14    1    4    4    0    0 -0.72994774524E+02  0.68822953212E+01 -0.80745388404E+01  0.73761787358E+02  0.00000000000E+00 0.  1.
</event>
<event>
12    1  0.8251070E-002  0.1734713E+03  0.7818608E-02  0.1174380E+00
         21   -1    0    0  501  502  0.00000000000E+00  0.00000000000E+00  0.32735900565E+03  0.32735900565E+03  0.00000000000E+00 0.  1.
         21   -1    0    0  502  503 -0.00000000000E+00 -0.00000000000E+00 -0.10430237197E+03  0.10430237197E+03  0.00000000000E+00 0.  1.
         -6    2    1    2    0  503 -0.37512436516E+01  0.46924918510E+01  0.18664704951E+03  0.25481252483E+03  0.17336727030E+03 0.  0.
        -24    2    3    3    0    0 -0.48662736148E+02  0.50406137761E+02  0.13804288168E+03  0.17424432570E+03  0.79977542109E+02 0.  0.
          6    2    1    2  501    0  0.37512436516E+01 -0.46924918510E+01  0.36409584174E+02  0.17684885279E+03  0.17295597013E+03 0.  0.
         24    2    5    5    0    0  0.65508442229E+01 -0.64992598334E+02  0.68756647595E+00  0.10654883036E+03  0.84173802959E+02 0.  0.
          5    1    5    5  501    0 -0.27996005713E+01  0.60300106482E+02  0.35722017698E+02  0.70300022430E+02  0.47000000000E+01 0. -1.
        -11    1    6    6    0    0  0.20796788684E+02  0.24973780866E+01  0.25719742537E+02  0.33169993564E+02  0.00000000000E+00 0.  1.
         12    1    6    6    0    0 -0.14245944461E+02 -0.67489976420E+02 -0.25032176061E+02  0.73378836793E+02  0.00000000000E+00 0. -1.
         -5    1    3    3    0  503  0.44911492497E+02 -0.45713645910E+02  0.48604167827E+02  0.80568199129E+02  0.47000000000E+01 0.  1.
         11    1    4    4    0    0 -0.40673344328E+02  0.45368013896E+02  0.34003149699E+02  0.69776728307E+02  0.00000000000E+00 0. -1.
        -12    1    4    4    0    0 -0.79893918199E+01  0.50381238652E+01  0.10403973199E+03  0.10446759739E+03  0.00000000000E+00 0.  1.
</event>
<event>
12    1  0.8251070E-002  0.2911834E+03  0.7818608E-02  0.1089814E+00
         21   -1    0    0  503  502  0.00000000000E+00  0.00000000000E+00  0.47603050245E+03  0.47603050245E+03  0.00000000000E+00 0. -1.
         21   -1    0    0  501  503 -0.00000000000E+00 -0.00000000000E+00 -0.24747771482E+03  0.24747771482E+03  0.00000000000E+00 0.  1.
          6    2    1    2  501    0 -0.95880505944E+02  0.21376029206E+03 -0.77854609049E+02  0.30081062783E+03  0.17186960111E+03 0.  0.
         24    2    3    3    0    0 -0.13173647357E+03  0.13080518039E+03 -0.57796452679E+02  0.20811963257E+03  0.74221680338E+02 0.  0.
         -6    2    1    2    0  502  0.95880505944E+02 -0.21376029206E+03  0.30640739667E+03  0.42269758944E+03  0.17291970825E+03 0.  0.
        -24    2    5    5    0    0  0.71647361656E+02 -0.17206118984E+03  0.31408841497E+03  0.37363489027E+03  0.78823228372E+02 0.  0.
          5    1    3    3  501    0  0.35855967627E+02  0.82955111666E+02 -0.20058156371E+02  0.92690995263E+02  0.47000000000E+01 0. -1.
        -13    1    4    4    0    0 -0.12471134572E+02 -0.84599850192E+01 -0.11647208841E+02  0.19046207440E+02  0.00000000000E+00 0.  1.
         14    1    4    4    0    0 -0.11926533900E+03  0.13926516541E+03 -0.46149243838E+02  0.18907342513E+03  0.00000000000E+00 0. -1.
         -5    1    5    5    0  502  0.24233144288E+02 -0.41699102214E+02 -0.76810182930E+01  0.49062699167E+02  0.47000000000E+01 0.  1.
         13    1    6    6    0    0  0.41717790230E+02 -0.11407935002E+03  0.12810479027E+03  0.17653699163E+03  0.00000000000E+00 0. -1.
        -14    1    6    6    0    0  0.29929571426E+02 -0.57981839819E+02  0.18598362470E+03  0.19709789864E+03  0.00000000000E+00 0.  1.
</event>
<event>
12    1  0.8251070E-002  0.2037151E+03  0.7818608E-02  0.1147122E+00
         21   -1    0    0  501  502  0.00000000000E+00  0.00000000000E+00  0.21783555538E+03  0.21783555538E+03  0.00000000000E+00 0.  1.
         21   -1    0    0  502  503 -0.00000000000E+00 -0.00000000000E+00 -0.27030631345E+03  0.27030631345E+03  0.00000000000E+00 0. -1.
         -6    2    1    2    0  503  0.10403149050E+03  0.40124816453E+02 -0.16073120176E+03  0.25948865699E+03  0.17049132523E+03 0.  0.
        -24    2    3    3    0    0  0.42401804709E+01  0.38059141983E+02 -0.12478823413E+03  0.15329751099E+03  0.80383742624E+02 0.  0.
          6    2    1    2  501    0 -0.10403149050E+03 -0.40124816453E+02  0.10826044369E+03  0.22865321183E+03  0.16771826287E+03 0.  0.
         24    2    5    5    0    0 -0.95283815114E+02 -0.16819517830E+02  0.11819061572E+02  0.12894017881E+03  0.84403660422E+02 0.  0.
          5    1    5    5  501    0 -0.87476753857E+01 -0.23305298623E+02  0.96441382123E+02  0.99713033021E+02  0.47000000000E+01 0. -1.
        -11    1    6    6    0    0 -0.51783761810E+02 -0.23571525932E+02  0.46033536810E+02  0.73186483268E+02  0.00000000000E+00 0.  1.
         12    1    6    6    0    0 -0.43500053304E+02  0.67520081021E+01 -0.34214475238E+02  0.55753695543E+02  0.00000000000E+00 0. -1.
         -5    1    3    3    0  503  0.99791310029E+02  0.20656744694E+01 -0.35942967625E+02  0.10619114601E+03  0.47000000000E+01 0.  1.
         11    1    4    4    0    0  0.11778679801E+02 -0.19910781891E+02 -0.67880287154E+02  0.71714084513E+02  0.00000000000E+00 0. -1.
        -12    1    4    4    0    0 -0.75384993299E+01  0.57969923875E+02 -0.56907946980E+02  0.81583426476E+02  0.00000000000E+00 0.  1.
</event>
<event>
12    1  0.8251070E-002  0.1716498E+03  0.7818608E-02  0.1176403E+00
         21   -1    0    0  501  502  0.00000000000E+00  0.00000000000E+00  0.65067259278E+02  0.65067259278E+02  0.00000000000E+00 0.  1.
         21   -1    0    0  502  503 -0.00000000000E+00 -0.00000000000E+00 -0.50807070037E+03  0.50807070037E+03  0.00000000000E+00 0.  1.
         -6    2    1    2    0  503  0.12038259154E+02  0.85834208941E+01 -0.12530613409E+03  0.21252124126E+03  0.17101185908E+03 0.  0.
        -24    2    3    3    0    0 -0.62679668792E+02  0.29835976280E+00 -0.48821034024E+02  0.10517380754E+03  0.68914487083E+02 0.  0.
          6    2    1    2  501    0 -0.12038259154E+02 -0.85834208941E+01 -0.31769730700E+03  0.36061671839E+03  0.16998306948E+03 0.  0.
         24    2    5    5    0    0 -0.26531677561E+02 -0.28228328461E+02 -0.79016912998E+02  0.12064504912E+03  0.82527491759E+02 0.  0.
          5    1    5    5  501    0  0.14493418407E+02  0.19644907567E+02 -0.23868039400E+03  0.23997166927E+03  0.47000000000E+01 0. -1.
        -11    1    6    6    0    0 -0.39883215753E+02 -0.35680511377E+02 -0.87938974620E+02  0.10294189161E+03  0.00000000000E+00 0.  1.
         12    1    6    6    0    0  0.13351538192E+02  0.74521829158E+01  0.89220616226E+01  0.17703157512E+02  0.00000000000E+00 0. -1.
         -5    1    3    3    0  503  0.74717927946E+02  0.82850611313E+01 -0.76485100069E+02  0.10734743372E+03  0.47000000000E+01 0.  1.
         13    1    4    4    0    0 -0.22288658188E+02 -0.49444644250E+01 -0.58938762428E+02  0.63206089334E+02  0.00000000000E+00 0. -1.
        -14    1    4    4    0    0 -0.40391010603E+02  0.52428241878E+01  0.10117728404E+02  0.41967718202E+02  0.00000000000E+00 0.  1.
</event>
<event>
12    1  0.8251070E-002  0.1922336E+03  0.7818608E-02  0.1157774E+00
         21   -1    0    0  503  502  0.00000000000E+00  0.00000000000E+00  0.14519921381E+03  0.14519921381E+03  0.00000000000E+00 0.  1.
         21   -1    0    0  501  503 -0.00000000000E+00 -0.00000000000E+00 -0.24734417333E+03  0.24734417333E+03  0.00000000000E+00 0. -1.
          6    2    1    2  501    0  0.61355796229E+02 -0.39148589408E+02 -0.43272013019E+02  0.19704371775E+03  0.17792305588E+03 0.  0.
         24    2    3    3    0    0  0.32942919441E+02 -0.94846895068E+02 -0.17650184968E+02  0.12930775320E+03  0.79547448507E+02 0.  0.
         -6    2    1    2    0  502 -0.61355796229E+02  0.39148589408E+02 -0.58872946498E+02  0.19549966939E+03  0.17163027448E+03 0.  0.
        -24    2    5    5    0    0 -0.94168314207E+02  0.42682166961E+02 -0.82473030176E+02  0.15465604741E+03  0.80170153534E+02 0.  0.
          5    1    3    3  501    0  0.28412876788E+02  0.55698305660E+02 -0.25621828051E+02  0.67735964549E+02  0.47000000000E+01 0. -1.
        -13    1    4    4    0    0  0.10569302346E+02 -0.14419482169E+02  0.28706880530E+02  0.33818879459E+02  0.00000000000E+00 0.  1.
         14    1    4    4    0    0  0.22373617095E+02 -0.80427412899E+02 -0.46357065498E+02  0.95488873746E+02  0.00000000000E+00 0. -1.
         -5    1    5    5    0  502  0.32812517978E+02 -0.35335775526E+01  0.23600083678E+02  0.40843621974E+02  0.47000000000E+01 0.  1.
         11    1    6    6    0    0 -0.10435605500E+03  0.31167225627E+02 -0.52356451104E+02  0.12084196349E+03  0.00000000000E+00 0. -1.
        -12    1    6    6    0    0  0.10187740792E+02  0.11514941334E+02 -0.30116579072E+02  0.33814083921E+02  0.00000000000E+00 0.  1.
</event>
<event>
12    1  0.8251070E-002  0.2274066E+03  0.7818608E-02  0.1128993E+00
         21   -1    0    0  503  502  0.00000000000E+00  0.00000000000E+00  0.33554698497E+03  0.33554698497E+03  0.00000000000E+00 0. -1.
         21   -1    0    0  501  503 -0.00000000000E+00 -0.00000000000E+00 -0.28873530166E+03  0.28873530166E+03  0.00000000000E+00 0.  1.
          6    2    1    2  501    0 -0.13350233198E+03 -0.57844745860E+02 -0.19132895586E+03  0.29500316465E+03  0.17102985276E+03 0.  0.
         24    2    3    3    0    0 -0.62389096487E+02 -0.19819663396E+02 -0.20325726230E+02  0.10588099857E+03  0.80699642465E+02 0.  0.
         -6    2    1    2    0  502  0.13350233198E+03  0.57844745860E+02  0.23814063917E+03  0.32927912198E+03  0.17477096120E+03 0.  0.
        -24    2    5    5    0    0  0.14466620675E+03  0.48882241023E+02  0.25431563746E+03  0.30717303316E+03  0.79756153218E+02 0.  0.
          5    1    3    3  501    0 -0.71113235492E+02 -0.38025082465E+02 -0.17100322963E+03  0.18912216608E+03  0.47000000000E+01 0. -1.
        -13    1    4    4    0    0 -0.23953913441E+01  0.97637486691E+01 -0.35832425490E+02  0.37216010053E+02  0.00000000000E+00 0.  1.
         14    1    4    4    0    0 -0.59993705143E+02 -0.29583412065E+02  0.15506699260E+02  0.68664988518E+02  0.00000000000E+00 0. -1.
         -5    1    5    5    0  502 -0.11163874776E+02  0.89625048376E+01 -0.16174998298E+02  0.22106088820E+02  0.47000000000E+01 0.  1.
         11    1    6    6    0    0  0.53675551349E+02 -0.12315513432E+02  0.13128295017E+03  0.14236554951E+03  0.00000000000E+00 0. -1.
        -12    1    6    6    0    0  0.90990655406E+02  0.61197754454E+02  0.12303268730E+03  0.16480748364E+03  0.00000000000E+00 0.  1.
</event>
<event>
12    1  0.8251070E-002  0.1738387E+03  0.7818608E-02  0.1173947E+00
         21   -1    0    0  501  502  0.00000000000E+00  0.00000000000E+00  0.11176715195E+03  0.11176715195E+03  0.00000000000E+00 0. -1.
         21   -1    0    0  502  503 -0.00000000000E+00 -0.00000000000E+00 -0.29766997634E+03  0.29766997634E+03  0.00000000000E+00 0. -1.
         -6    2    1    2    0  503 -0.53901455250E+01  0.24477008191E+02 -0.30615712454E+02  0.17634060979E+03  0.17184443900E+03 0.  0.
        -24    2    3    3    0    0  0.28756540423E+02 -0.43944936576E+02 -0.72093454650E+01  0.96231267623E+02  0.80314295979E+02 0.  0.
          6    2    1    2  501    0  0.53901455250E+01 -0.24477008191E+02 -0.15528711194E+03  0.23309651850E+03  0.17202244680E+03 0.  0.
         24    2    5    5    0    0 -0.13280577798E+02  0.42526336243E+02 -0.13067403672E+03  0.15916453931E+03  0.79200907065E+02 0.  0.
          5    1    5    5  501    0  0.18670723323E+02 -0.67003344434E+02 -0.24613075217E+02  0.73931979186E+02  0.47000000000E+01 0. -1.
        -11    1    6    6    0    0  0.12219199463E+01 -0.75988167935E+01  0.79376551039E+01  0.11056286608E+02  0.00000000000E+00 0.  1.
         12    1    6    6    0    0 -0.14502497745E+02  0.50125153036E+02 -0.13861169183E+03  0.14810825270E+03  0.00000000000E+00 0. -1.
         -5    1    3    3    0  503 -0.34146685948E+02  0.68421944767E+02 -0.23406366989E+02  0.80109342168E+02  0.47000000000E+01 0.  1.
         13    1    4    4    0    0 -0.17354788061E+02 -0.56347644211E+01  0.22790201795E+02  0.29194734741E+02  0.00000000000E+00 0. -1.
        -14    1    4    4    0    0  0.46111328484E+02 -0.38310172155E+02 -0.29999547260E+02  0.67036532883E+02  0.00000000000E+00 0.  1.
</event>
<event>
12    1  0.8251070E-002  0.2029051E+03  0.7818608E-02  0.1147421E+00
         21   -1    0    0  503  502  0.00000000000E+00  0.00000000000E+00  0.17821079075E+03  0.17821079075E+03  0.00000000000E+00 0.  1.
         21   -1    0    0  501  503 -0.00000000000E+00 -0.00000000000E+00 -0.28583048198E+03  0.28583048198E+03  0.00000000000E+00 0.  1.
          6    2    1    2  501    0 -0.61570873269E+02 -0.85556142627E+02 -0.15591354753E+03  0.25546811866E+03  0.17275444820E+03 0.  0.
         24    2    3    3    0    0  0.24491542189E+02 -0.71475578899E+02 -0.54873364856E+02  0.12191584371E+03  0.78382349794E+02 0.  0.
         -6    2    1    2    0  502  0.61570873269E+02  0.85556142627E+02  0.48293856303E+02  0.20857315406E+03  0.17337715554E+03 0.  0.
        -24    2    5    5    0    0  0.46276517425E+02  0.11014187663E+03 -0.55624429029E+01  0.14724643394E+03  0.85894251762E+02 0.  0.
          5    1    3    3  501    0 -0.86062415458E+02 -0.14080563728E+02 -0.10104018267E+03  0.13355227495E+03  0.47000000000E+01 0. -1.
        -11    1    4    4    0    0  0.85466155409E+01 -0.67298968514E+02 -0.71459433792E+02  0.98532464082E+02  0.00000000000E+00 0.  1.
         12    1    4    4    0    0  0.15944926648E+02 -0.41766103848E+01  0.16586068935E+02  0.23383379628E+02  0.00000000000E+00 0. -1.
         -5    1    5    5    0  502  0.15294355844E+02 -0.24585733999E+02  0.53856299206E+02  0.61326720123E+02  0.47000000000E+01 0.  1.
         13    1    6    6    0    0  0.68749115529E+01 -0.93811695446E+01 -0.17304388746E+02  0.20849763086E+02  0.00000000000E+00 0. -1.
        -14    1    6    6    0    0  0.39401605872E+02  0.11952304617E+03  0.11741945843E+02  0.12639667086E+03  0.00000000000E+00 0.  1.
</event>
<event>
12    1  0.8251070E-002  0.3550359E+03  0.7818608E-02  0.1060574E+00
         21   -1    0    0  503  502  0.00000000000E+00  0.00000000000E+00  0.94587970073E+03  0.94587970073E+03  0.00000000000E+00 0.  1.
         21   -1    0    0  501  503 -0.00000000000E+00 -0.00000000000E+00 -0.13337666770E+03  0.13337666770E+03  0.00000000000E+00 0. -1.
          6    2    1    2  501    0 -0.12034410231E+03  0.28637226389E+03  0.42369943478E+03  0.55274071100E+03  0.17178272928E+03 0.  0.
         24    2    3    3    0    0 -0.15246456070E+03  0.21424070065E+03  0.34589871753E+03  0.44179149799E+03  0.79933002088E+02 0.  0.
         -6    2    1    2    0  502  0.12034410231E+03 -0.28637226389E+03  0.38880359826E+03  0.52651565743E+03  0.17192650469E+03 0.  0.
        -24    2    5    5    0    0  0.11684231557E+03 -0.30151758708E+03  0.38609799876E+03  0.51005195209E+03  0.80723894566E+02 0.  0.
          5    1    3    3  501    0  0.32120458393E+02  0.72131563240E+02  0.77800717243E+02  0.11094921300E+03  0.47000000000E+01 0. -1.
        -13    1    4    4    0    0 -0.26981399196E+02  0.59425965090E+02  0.14403938360E+03  0.15813533842E+03  0.00000000000E+00 0.  1.
         14    1    4    4    0    0 -0.12548316151E+03  0.15481473556E+03  0.20185933394E+03  0.28365615958E+03  0.00000000000E+00 0. -1.
         -5    1    5    5    0  502  0.35017867436E+01  0.15145323190E+02  0.27055994931E+01  0.16463705341E+02  0.47000000000E+01 0.  1.
         11    1    6    6    0    0  0.42355969905E+02 -0.52881746770E+02  0.44609933247E+02  0.81120610651E+02  0.00000000000E+00 0. -1.
        -12    1    6    6    0    0  0.74486345661E+02 -0.24863584031E+03  0.34148806552E+03  0.42893134144E+03  0.00000000000E+00 0.  1.
</event>
<event>
12    1  0.8251070E-002  0.2588522E+03  0.7818608E-02  0.1107933E+00
         21   -1    0    0  501  502  0.00000000000E+00  0.00000000000E+00  0.16353740582E+03  0.16353740582E+03  0.00000000000E+00 0.  1.
         21   -1    0    0  502  503 -0.00000000000E+00 -0.00000000000E+00 -0.73195997907E+03  0.73195997907E+03  0.00000000000E+00 0. -1.
         -6    2    1    2    0  503 -0.56265994463E+02  0.18654002802E+03 -0.58157028267E+03  0.63631148305E+03  0.16942628367E+03 0.  0.
        -24    2    3    3    0    0 -0.48007329047E+01  0.89452426682E+02 -0.15795465403E+03  0.19865069396E+03  0.80545898762E+02 0.  0.
          6    2    1    2  501    0  0.56265994463E+02 -0.18654002802E+03  0.13147709424E+02  0.25918590184E+03  0.17041544901E+03 0.  0.
         24    2    5    5    0    0  0.73122238290E+02 -0.10885350131E+03  0.61925196747E+02  0.16580141352E+03  0.80370593222E+02 0.  0.
          5    1    5    5  501    0 -0.16856243827E+02 -0.77686526710E+02 -0.48777487323E+02  0.93384488314E+02  0.47000000000E+01 0. -1.
        -11    1    6    6    0    0  0.18572178395E+02 -0.87194134689E+02  0.14454531254E+02  0.90314320062E+02  0.00000000000E+00 0.  1.
         12    1    6    6    0    0  0.54550059895E+02 -0.21659366618E+02  0.47470665493E+02  0.75487093461E+02  0.00000000000E+00 0. -1.
         -5    1    3    3    0  503 -0.51465261558E+02  0.97087601334E+02 -0.42361562864E+03  0.43766078909E+03  0.47000000000E+01 0.  1.
         13    1    4    4    0    0 -0.34389247096E+02  0.71926436328E+02 -0.13662117890E+03  0.15818147515E+03  0.00000000000E+00 0. -1.
        -14    1    4    4    0    0  0.29588514191E+02  0.17525990354E+02 -0.21333475133E+02  0.40469218811E+02  0.00000000000E+00 0.  1.
</event>
<event>
12    1  0.8251070E-002  0.1975939E+03  0.7818608E-02  0.1151946E+00
         21   -1    0    0  501  502  0.00000000000E+00  0.00000000000E+00  0.64455579983E+02  0.64455579983E+02  0.00000000000E+00 0. -1.
         21   -1    0    0  502  503 -0.00000000000E+00 -0.00000000000E+00 -0.60898094082E+03  0.60898094082E+03  0.00000000000E+00 0. -1.
         -6    2    1    2    0  503  0.84013459839E+02  0.48922995221E+02 -0.30383839445E+03  0.36203073029E+03  0.17116295987E+03 0.  0.
        -24    2    3    3    0    0  0.90540079272E+02 -0.22975217541E+02 -0.20719406709E+03  0.24130722068E+03  0.81082838757E+02 0.  0.
          6    2    1    2  501    0 -0.84013459839E+02 -0.48922995221E+02 -0.24068696638E+03  0.31140579051E+03  0.17202217788E+03 0.  0.
         24    2    5    5    0    0 -0.81196228761E+02  0.30450553308E+02 -0.15575165691E+03  0.19502626572E+03  0.79098684737E+02 0.  0.
          5    1    5    5  501    0 -0.28172310779E+01 -0.79373548530E+02 -0.84935309468E+02  0.11637952480E+03  0.47000000000E+01 0. -1.
        -11    1    6    6    0    0 -0.75616970997E+01  0.31334660289E+02 -0.13706298064E+02  0.35027172382E+02  0.00000000000E+00 0.  1.
         12    1    6    6    0    0 -0.73634531661E+02 -0.88410698027E+00 -0.14204535885E+03  0.15999909333E+03  0.00000000000E+00 0. -1.
         -5    1    3    3    0  503 -0.65266194330E+01  0.71898212762E+02 -0.96644327369E+02  0.12072350961E+03  0.47000000000E+01 0.  1.
         13    1    4    4    0    0  0.45012175445E+02  0.97010956580E+01 -0.28782708253E+02  0.54301486993E+02  0.00000000000E+00 0. -1.
        -14    1    4    4    0    0  0.45527903827E+02 -0.32676313199E+02 -0.17841135883E+03  0.18700573369E+03  0.00000000000E+00 0.  1.
</event>
<event>
12    1  0.8251070E-002  0.2324940E+03  0.7818608E-02  0.1124905E+00
         21   -1    0    0  501  502  0.00000000000E+00  0.00000000000E+00  0.91577704373E+03  0.91577704373E+03  0.00000000000E+00 0. -1.
         21   -1    0    0  502  503 -0.00000000000E+00 -0.00000000000E+00 -0.59931363133E+02  0.59931363133E+02  0.00000000000E+00 0. -1.
         -6    2    1    2    0  503 -0.97598112672E+02  0.12240784460E+03  0.48836508261E+03  0.54088252514E+03  0.17188478721E+03 0.  0.
        -24    2    3    3    0    0 -0.45819333389E+02  0.14195426731E+03  0.42148002589E+03  0.45394113432E+03  0.78528440008E+02 0.  0.
          6    2    1    2  501    0  0.97598112672E+02 -0.12240784460E+03  0.36748059798E+03  0.43482588172E+03  0.17182108572E+03 0.  0.
         24    2    5    5    0    0  0.32840024762E+02 -0.56439844849E+02  0.72444511140E+02  0.12561111900E+03  0.79158213153E+02 0.  0.
          5    1    5    5  501    0  0.64758087910E+02 -0.65967999749E+02  0.29503608684E+03  0.30921476271E+03  0.47000000000E+01 0. -1.
        -13    1    6    6    0    0  0.90642677028E+01  0.89054232378E+01  0.51418722914E+02  0.52965579182E+02  0.00000000000E+00 0.  1.
         14    1    6    6    0    0  0.23775757059E+02 -0.65345268087E+02  0.21025788226E+02  0.72645539820E+02  0.00000000000E+00 0. -1.
         -5    1    3    3    0  503 -0.51778779283E+02 -0.19546422710E+02  0.66885056726E+02  0.86941390822E+02  0.47000000000E+01 0.  1.
         11    1    4    4    0    0 -0.62705380967E+02  0.81717646002E+02  0.30186160697E+03  0.31895167068E+03  0.00000000000E+00 0. -1.
        -12    1    4    4    0    0  0.16886047578E+02  0.60236621307E+02  0.11961841892E+03  0.13498946364E+03  0.00000000000E+00 0.  1.
</event>
<event>
12    1  0.8251070E-002  0.1734339E+03  0.7818608E-02  0.1174687E+00
         21   -1    0    0  503  502  0.00000000000E+00  0.00000000000E+00  0.31021915367E+02  0.31021915367E+02  0.00000000000E+00 0.  1.
         21   -1    0    0  501  503 -0.00000000000E+00 -0.00000000000E+00 -0.99771424265E+03  0.99771424265E+03  0.00000000000E+00 0.  1.
          6    2    1    2  501    0 -0.10902756493E+02 -0.15621785669E+02 -0.38724473265E+03  0.42430863378E+03  0.17238452207E+03 0.  0.
         24    2    3    3    0    0  0.23783074685E+02  0.22966514368E+02 -0.34910774070E+03  0.35974328751E+03  0.80286504879E+02 0.  0.
         -6    2    1    2    0  502  0.10902756493E+02  0.15621785669E+02 -0.57944759464E+03  0.60442752424E+03  0.17090993781E+03 0.  0.
        -24    2    5    5    0    0 -0.29449852043E+02 -0.21366456670E+02 -0.16892852986E+03  0.19024826881E+03  0.79584774469E+02 0.  0.
          5    1    3    3  501    0 -0.34685831177E+02 -0.38588300037E+02 -0.38136991946E+02  0.64565346270E+02  0.47000000000E+01 0. -1.
        -11    1    4    4    0    0 -0.10628826995E+02  0.33110780965E+02 -0.68202594720E+02  0.76556447840E+02  0.00000000000E+00 0.  1.
         12    1    4    4    0    0  0.34411901680E+02 -0.10144266597E+02 -0.28090514598E+03  0.28318683967E+03  0.00000000000E+00 0. -1.
         -5    1    5    5    0  502  0.40352608535E+02  0.36988242339E+02 -0.41051906477E+03  0.41417925543E+03  0.47000000000E+01 0.  1.
         13    1    6    6    0    0  0.15451106281E+02 -0.16366535490E+02 -0.93065943025E+01  0.24355961627E+02  0.00000000000E+00 0. -1.
        -14    1    6    6    0    0 -0.44900958324E+02 -0.49999211801E+01 -0.15962193556E+03  0.16589230718E+03  0.00000000000E+00 0.  1.
</event>
<event>
12    1  0.8251070E-002  0.1778093E+03  0.7818608E-02  0.1172543E+00
         21   -1    0    0  503  502  0.00000000000E+00  0.00000000000E+00  0.56506357832E+02  0.56506357832E+02  0.00000000000E+00 0. -1.
         21   -1    0    0  501  503 -0.00000000000E+00 -0.00000000000E+00 -0.54371929175E+03  0.54371929175E+03  0.00000000000E+00 0. -1.
          6    2    1    2  501    0 -0.39552194709E+02 -0.44245917446E+02 -0.28806583538E+03  0.33325050675E+03  0.15669045096E+03 0.  0.
         24    2    3    3    0    0 -0.81528840445E+02 -0.34724869924E+02 -0.24283842856E+03  0.27063822792E+03  0.80136006947E+02 0.  0.
         -6    2    1    2    0  502  0.39552194709E+02  0.44245917446E+02 -0.19914709854E+03  0.26697514283E+03  0.16761289543E+03 0.  0.
        -24    2    5    5    0    0  0.25470907533E+02  0.64226830268E+02 -0.21344776993E+03  0.23826767467E+03  0.80235163426E+02 0.  0.
          5    1    3    3  501    0  0.41976645736E+02 -0.95210475218E+01 -0.45227406818E+02  0.62612278833E+02  0.47000000000E+01 0. -1.
        -11    1    4    4    0    0  0.48215735373E+01  0.14697528658E+02 -0.13059527110E+02  0.20243916824E+02  0.00000000000E+00 0.  1.
         12    1    4    4    0    0 -0.86350413983E+02 -0.49422398583E+02 -0.22977890145E+03  0.25039431110E+03  0.00000000000E+00 0. -1.
         -5    1    5    5    0  502  0.14081287176E+02 -0.19980912822E+02  0.14300671391E+02  0.28707468157E+02  0.47000000000E+01 0.  1.
         11    1    6    6    0    0 -0.12217358232E+02  0.54847562099E+02 -0.70589033654E+02  0.90223780582E+02  0.00000000000E+00 0. -1.
        -12    1    6    6    0    0  0.37688265764E+02  0.93792681691E+01 -0.14285873627E+03  0.14804389409E+03  0.00000000000E+00 0.  1.
</event>
<event>
12    1  0.8251070E-002  0.1740346E+03  0.7818608E-02  0.1173785E+00
         21   -1    0    0  501  502  0.00000000000E+00  0.00000000000E+00  0.97361717800E+02  0.97361717800E+02  0.00000000000E+00 0. -1.
         21   -1    0    0  502  503 -0.00000000000E+00 -0.00000000000E+00 -0.53489647632E+03  0.53489647632E+03  0.00000000000E+00 0. -1.
         -6    2    1    2    0  503 -0.23682476034E+02  0.16753638746E+02 -0.42339798190E+03  0.45765034881E+03  0.17127885628E+03 0.  0.
        -24    2    3    3    0    0 -0.81255286951E+02  0.99905974055E+01 -0.30892558387E+03  0.32925102173E+03  0.79176923684E+02 0.  0.
          6    2    1    2  501    0  0.23682476034E+02 -0.16753638746E+02 -0.14136776625E+02  0.17460784531E+03  0.17159984589E+03 0.  0.
         24    2    5    5    0    0  0.72721878836E+02  0.21080658389E+02 -0.20104585178E+02  0.11220590780E+03  0.80331224190E+02 0.  0.
          5    1    5    5  501    0 -0.49039402802E+02 -0.37834297135E+02  0.59678085532E+01  0.62401937516E+02  0.47000000000E+01 0. -1.
        -13    1    6    6    0    0  0.20745309152E+02 -0.42173305227E+01 -0.44642326252E+02  0.49407398451E+02  0.00000000000E+00 0.  1.
         14    1    6    6    0    0  0.51976569684E+02  0.25297988911E+02  0.24537741074E+02  0.62798509346E+02  0.00000000000E+00 0. -1.
         -5    1    3    3    0  503  0.57572810917E+02  0.67630413406E+01 -0.11447239802E+03  0.12839932708E+03  0.47000000000E+01 0.  1.
         13    1    4    4    0    0 -0.42234561971E+02  0.43391994598E+02 -0.19713058969E+03  0.20622098054E+03  0.00000000000E+00 0. -1.
        -14    1    4    4    0    0 -0.39020724980E+02 -0.33401397193E+02 -0.11179499418E+03  0.12303004119E+03  0.00000000000E+00 0.  1.
</event>
<event>
12    1  0.8251070E-002  0.2745626E+03  0.7818608E-02  0.1098946E+00
         21   -1    0    0  503  502  0.00000000000E+00  0.00000000000E+00  0.99529803620E+02  0.99529803620E+02  0.00000000000E+00 0. -1.
         21   -1    0    0  501  503 -0.00000000000E+00 -0.00000000000E+00 -0.76295736704E+03  0.76295736704E+03  0.00000000000E+00 0. -1.
          6    2    1    2  501    0 -0.93776016515E+02 -0.18943464518E+03 -0.38325137211E+03  0.47145118396E+03  0.17522893187E+03 0.  0.
         24    2    3    3    0    0 -0.94233713119E+02 -0.55271393289E+02 -0.23572875975E+03  0.27198941118E+03  0.80469074894E+02 0.  0.
         -6    2    1    2    0  502  0.93776016515E+02  0.18943464518E+03 -0.28017619131E+03  0.39103598670E+03  0.17242685015E+03 0.  0.
        -24    2    5    5    0    0  0.12163195357E+03  0.19076278370E+03 -0.26964231331E+03  0.36085702438E+03  0.79536426521E+02 0.  0.
          5    1    3    3  501    0  0.45769660367E+00 -0.13416325189E+03 -0.14752261236E+03  0.19946177278E+03  0.47000000000E+01 0. -1.
        -13    1    4    4    0    0 -0.56292026811E+02  0.15815379965E+01 -0.54785393939E+02  0.78566741908E+02  0.00000000000E+00 0.  1.
         14    1    4    4    0    0 -0.37941686308E+02 -0.56852931286E+02 -0.18094336582E+03  0.19342266927E+03  0.00000000000E+00 0. -1.
         -5    1    5    5    0  502 -0.27855937052E+02 -0.13281385261E+01 -0.10533877999E+02  0.30178962320E+02  0.47000000000E+01 0.  1.
         13    1    6    6    0    0  0.12410448775E+03  0.19016293190E+03 -0.23740476897E+03  0.32851923670E+03  0.00000000000E+00 0. -1.
        -14    1    6    6    0    0 -0.24725341828E+01  0.59985180183E+00 -0.32237544336E+02  0.32337787684E+02  0.00000000000E+00 0.  1.
</event>
<event>
12    1  0.8251070E-002  0.3925644E+03  0.7818608E-02  0.1046445E+00
         21   -1    0    0  503  502  0.00000000000E+00  0.00000000000E+00  0.97581222647E+02  0.97581222647E+02  0.00000000000E+00 0. -1.
         21   -1    0    0  501  503 -0.00000000000E+00 -0.00000000000E+00 -0.22035062547E+04  0.22035062547E+04  0.00000000000E+00 0.  1.
          6    2    1    2  501    0  0.49643793206E+02  0.34906816472E+03 -0.16673330687E+04  0.17129233338E+04  0.17260850419E+03 0.  0.
         24    2    3    3    0    0  0.11272939768E+02  0.22471805699E+03 -0.13255558774E+04  0.13471788736E+04  0.84659607022E+02 0.  0.
         -6    2    1    2    0  502 -0.49643793206E+02 -0.34906816472E+03 -0.43859196336E+03  0.58816414354E+03  0.17105864374E+03 0.  0.
        -24    2    5    5    0    0 -0.81567395573E+02 -0.25693059251E+03 -0.38439557540E+03  0.47650489821E+03  0.81427208226E+02 0.  0.
          5    1    3    3  501    0  0.38370853439E+02  0.12435010773E+03 -0.34177719138E+03  0.36574446029E+03  0.47000000000E+01 0. -1.
        -11    1    4    4    0    0 -0.90866835996E+00  0.14642991988E+03 -0.61373328083E+03  0.63096044813E+03  0.00000000000E+00 0.  1.
         12    1    4    4    0    0  0.12181608127E+02  0.78288137109E+02 -0.71182259652E+03  0.71621842542E+03  0.00000000000E+00 0. -1.
         -5    1    5    5    0  502  0.31923602367E+02 -0.92137572209E+02 -0.54196387961E+02  0.11165924533E+03  0.47000000000E+01 0.  1.
         11    1    6    6    0    0 -0.16510585213E+02 -0.57637805708E+01 -0.77121420238E+01  0.19112763410E+02  0.00000000000E+00 0. -1.
        -12    1    6    6    0    0 -0.65056810360E+02 -0.25116681194E+03 -0.37668343338E+03  0.45739213480E+03  0.00000000000E+00 0.  1.
</event>
<event>
12    1  0.8251070E-002  0.2221318E+03  0.7818608E-02  0.1132316E+00
         21   -1    0    0  503  502  0.00000000000E+00  0.00000000000E+00  0.14048505137E+03  0.14048505137E+03  0.00000000000E+00 0.  1.
         21   -1    0    0  501  503 -0.00000000000E+00 -0.00000000000E+00 -0.47337094600E+03  0.47337094600E+03  0.00000000000E+00 0.  1.
          6    2    1    2  501    0 -0.13797553474E+03  0.25859070602E+02 -0.32243582678E+03  0.39154487779E+03  0.17215280775E+03 0.  0.
         24    2    3    3    0    0 -0.48613280057E+02  0.14133538045E+01 -0.26871232993E+03  0.28434641817E+03  0.79254783457E+02 0.  0.
         -6    2    1    2    0  502  0.13797553474E+03 -0.25859070602E+02 -0.10450067853E+02  0.22231111958E+03  0.17206710972E+03 0.  0.
        -24    2    5    5    0    0  0.24352443678E+02 -0.11244883926E+02  0.43897845939E+02  0.95427050406E+02  0.80372956544E+02 0.  0.
          5    1    3    3  501    0 -0.89362254688E+02  0.24445716797E+02 -0.53723496850E+02  0.10719845963E+03  0.47000000000E+01 0. -1.
        -13    1    4    4    0    0 -0.45038816889E+02 -0.31305200038E+02 -0.20992730712E+03  0.21697461799E+03  0.00000000000E+00 0.  1.
         14    1    4    4    0    0 -0.35744631676E+01  0.32718553843E+02 -0.58785022806E+02  0.67371800175E+02  0.00000000000E+00 0. -1.
         -5    1    5    5    0  502  0.11362309107E+03 -0.14614186676E+02 -0.54347913792E+02  0.12688406917E+03  0.47000000000E+01 0.  1.
         11    1    6    6    0    0 -0.16022437225E+02 -0.26874284202E+02 -0.32025889471E+01  0.31451585364E+02  0.00000000000E+00 0. -1.
        -12    1    6    6    0    0  0.40374880902E+02  0.15629400276E+02  0.47100434886E+02  0.63975465042E+02  0.00000000000E+00 0.  1.
</event>
<event>
12    1  0.8251070E-002  0.2703210E+03  0.7818608E-02  0.1101212E+00
         21   -1    0    0  503  502  0.00000000000E+00  0.00000000000E+00  0.61973325787E+02  0.61973325787E+02  0.00000000000E+00 0. -1.
         21   -1    0    0  501  503 -0.00000000000E+00 -0.00000000000E+00 -0.11834930067E+04  0.11834930067E+04  0.00000000000E+00 0.  1.
          6    2    1    2  501    0 -0.45273520487E+02  0.20112384188E+03 -0.51067715574E+03  0.57781019922E+03  0.17485130109E+03 0.  0.
         24    2    3    3    0    0  0.26406656351E+02  0.14513444650E+03 -0.40421296493E+03  0.43770461735E+03  0.80224011165E+02 0.  0.
         -6    2    1    2    0  502  0.45273520487E+02 -0.20112384188E+03 -0.61084252515E+03  0.66765613325E+03  0.17359617020E+03 0.  0.
        -24    2    5    5    0    0  0.84314747051E+01 -0.18027858784E+03 -0.33800212873E+03  0.39151154635E+03  0.80401448387E+02 0.  0.
          5    1    3    3  501    0 -0.71680176838E+02  0.55989395372E+02 -0.10646419081E+03  0.14010558187E+03  0.47000000000E+01 0. -1.
        -13    1    4    4    0    0  0.27318490667E+02  0.11072266862E+03 -0.19680960822E+03  0.22746391179E+03  0.00000000000E+00 0.  1.
         14    1    4    4    0    0 -0.91183431566E+00  0.34411777884E+02 -0.20740335671E+03  0.21024070556E+03  0.00000000000E+00 0. -1.
         -5    1    5    5    0  502  0.36842045782E+02 -0.20845254034E+02 -0.27284039642E+03  0.27614458690E+03  0.47000000000E+01 0.  1.
         13    1    6    6    0    0 -0.24777151181E+02 -0.11062024730E+03 -0.14792517841E+03  0.18636685527E+03  0.00000000000E+00 0. -1.
        -14    1    6    6    0    0  0.33208625886E+02 -0.69658340545E+02 -0.19007695031E+03  0.20514469109E+03  0.00000000000E+00 0.  1.
</event>
<event>
12    1  0.8251070E-002  0.2378393E+03  0.7818608E-02  0.1121242E+00
         21   -1    0    0  503  502  0.00000000000E+00  0.00000000000E+00  0.41438485238E+03  0.41438485238E+03  0.00000000000E+00 0. -1.
         21   -1    0    0  501  503 -0.00000000000E+00 -0.00000000000E+00 -0.14769689592E+03  0.14769689592E+03  0.00000000000E+00 0.  1.
          6    2    1    2  501    0  0.11966054649E+03  0.11386998235E+03  0.55980614476E+02  0.24433865935E+03  0.17112139548E+03 0.  0.
         24    2    3    3    0    0  0.12428916082E+03  0.49143791310E+02  0.79137763880E+02  0.17527892111E+03  0.81221960022E+02 0.  0.
         -6    2    1    2    0  502 -0.11966054649E+03 -0.11386998235E+03  0.21070734199E+03  0.31774308896E+03  0.17110834973E+03 0.  0.
        -24    2    5    5    0    0 -0.10844966073E+03 -0.12605461044E+03  0.10706362671E+03  0.21267997060E+03  0.78224395220E+02 0.  0.
          5    1    3    3  501    0 -0.46286143391E+01  0.64726191045E+02 -0.23157149404E+02  0.69059738245E+02  0.47000000000E+01 0. -1.
        -11    1    4    4    0    0 -0.11101737307E+02  0.19424197141E+00  0.23252496410E+00  0.11105870926E+02  0.00000000000E+00 0.  1.
         12    1    4    4    0    0  0.13539089813E+03  0.48949549338E+02  0.78905238916E+02  0.16417305018E+03  0.00000000000E+00 0. -1.
         -5    1    5    5    0  502 -0.11210885752E+02  0.12184628080E+02  0.10364371528E+03  0.10506311835E+03  0.47000000000E+01 0.  1.
         13    1    6    6    0    0 -0.22564335104E+02 -0.84691334129E+02  0.61169839960E+02  0.10688087114E+03  0.00000000000E+00 0. -1.
        -14    1    6    6    0    0 -0.85885325629E+02 -0.41363276307E+02  0.45893786745E+02  0.10579909946E+03  0.00000000000E+00 0.  1.
</event>
<event>
12    1  0.8251070E-002  0.1909099E+03  0.7818608E-02  0.1159276E+00
         21   -1    0    0  503  502  0.00000000000E+00  0.00000000000E+00  0.10234889726E+03  0.10234889726E+03  0.00000000000E+00 0. -1.
         21   -1    0    0  501  503 -0.00000000000E+00 -0.00000000000E+00 -0.77471650837E+03  0.77471650837E+03  0.00000000000E+00 0. -1.
          6    2    1    2  501    0 -0.55376678485E+02  0.39311919190E+02 -0.66072019045E+03  0.68580052982E+03  0.17076063111E+03 0.  0.
         24    2    3    3    0    0 -0.42685929949E+02  0.92085899492E+02 -0.42737483423E+03  0.44617938434E+03  0.78261692914E+02 0.  0.
         -6    2    1    2    0  502  0.55376678485E+02 -0.39311919190E+02 -0.11647420659E+02  0.19126487580E+03  0.17842249521E+03 0.  0.
        -24    2    5    5    0    0 -0.66747034329E+01 -0.79350394255E+02  0.25120211804E+02  0.10863677961E+03  0.69497396417E+02 0.  0.
          5    1    3    3  501    0 -0.12690748537E+02 -0.52773980302E+02 -0.23334535622E+03  0.23962114549E+03  0.47000000000E+01 0. -1.
        -11    1    4    4    0    0 -0.32333939353E+02  0.26712870150E+02 -0.61971698893E+02  0.74830157887E+02  0.00000000000E+00 0.  1.
         12    1    4    4    0    0 -0.10351990596E+02  0.65373029342E+02 -0.36540313533E+03  0.37134922645E+03  0.00000000000E+00 0. -1.
         -5    1    5    5    0  502  0.62051381918E+02  0.40038475065E+02 -0.36767632463E+02  0.82628096193E+02  0.47000000000E+01 0.  1.
         13    1    6    6    0    0 -0.19833856218E+02 -0.18819452733E+02  0.36551452051E+02  0.45646054602E+02  0.00000000000E+00 0. -1.
        -14    1    6    6    0    0  0.13159152785E+02 -0.60530941522E+02 -0.11431240247E+02  0.62990725009E+02  0.00000000000E+00 0.  1.
</event>
<event>
12    1  0.8251070E-002  0.2672262E+03  0.7818608E-02  0.1102915E+00
         21   -1    0    0  503  502  0.00000000000E+00  0.00000000000E+00  0.91128578198E+03  0.91128578198E+03  0.00000000000E+00 0.  1.
         21   -1    0    0  501  503 -0.00000000000E+00 -0.00000000000E+00 -0.85375089386E+02  0.85375089386E+02  0.00000000000E+00 0.  1.
          6    2    1    2  501    0  0.98446726783E+02 -0.17890087786E+03  0.26954473062E+03  0.37955793146E+03  0.17237337211E+03 0.  0.
         24    2    3    3    0    0  0.86396992536E+02 -0.18987943217E+03  0.17567569438E+03  0.28416814838E+03  0.79818217713E+02 0.  0.
         -6    2    1    2    0  502 -0.98446726783E+02  0.17890087786E+03  0.55636596197E+03  0.61710293991E+03  0.17197579099E+03 0.  0.
        -24    2    5    5    0    0 -0.11531094579E+02  0.13596542880E+03  0.42889185100E+03  0.45688584071E+03  0.78593177902E+02 0.  0.
          5    1    3    3  501    0  0.12049734248E+02  0.10978554307E+02  0.93869036243E+02  0.95389783076E+02  0.47000000000E+01 0. -1.
        -11    1    4    4    0    0  0.79433028172E+02 -0.79563531323E+02  0.97044656002E+02  0.14851810240E+03  0.00000000000E+00 0.  1.
         12    1    4    4    0    0  0.69639643640E+01 -0.11031590085E+03  0.78631038376E+02  0.13565004598E+03  0.00000000000E+00 0. -1.
         -5    1    5    5    0  502 -0.86915632204E+02  0.42935449068E+02  0.12747411097E+03  0.16021709920E+03  0.47000000000E+01 0.  1.
         13    1    6    6    0    0 -0.12558465540E+02  0.67131630954E+02  0.32607430863E+03  0.33314985469E+03  0.00000000000E+00 0. -1.
        -14    1    6    6    0    0  0.10273709609E+01  0.68833797842E+02  0.10281754238E+03  0.12373598602E+03  0.00000000000E+00 0.  1.
</event>
<event>
12    1  0.8251070E-002  0.1766551E+03  0.7818608E-02  0.1171864E+00
         21   -1    0    0  503  502  0.00000000000E+00  0.00000000000E+00  0.22495467588E+02  0.22495467588E+02  0.00000000000E+00 0.  1.
         21   -1    0    0  501  503 -0.00000000000E+00 -0.00000000000E+00 -0.14057184100E+04  0.14057184100E+04  0.00000000000E+00 0.  1.
          6    2    1    2  501    0 -0.16538679961E+02 -0.22145647624E+02 -0.82239741457E+03  0.84115666088E+03  0.17447940568E+03 0.  0.
         24    2    3    3    0    0  0.20922136526E+02  0.20221275341E+02 -0.21738481372E+03  0.23348848981E+03  0.80087963319E+02 0.  0.
         -6    2    1    2    0  502  0.16538679961E+02  0.22145647624E+02 -0.56082552786E+03  0.58705721673E+03  0.17130950168E+03 0.  0.
        -24    2    5    5    0    0 -0.40328912117E+02  0.14538753369E+02 -0.47576442235E+03  0.48434757969E+03  0.80018722052E+02 0.  0.
          5    1    3    3  501    0 -0.37460816486E+02 -0.42366922964E+02 -0.60501260086E+03  0.60766817107E+03  0.47000000000E+01 0. -1.
        -11    1    4    4    0    0  0.16492183688E+02 -0.57112135023E+01 -0.20252118760E+03  0.20327184140E+03  0.00000000000E+00 0.  1.
         12    1    4    4    0    0  0.44299528381E+01  0.25932488843E+02 -0.14863626119E+02  0.30216648411E+02  0.00000000000E+00 0. -1.
         -5    1    5    5    0  502  0.56867592078E+02  0.76068942548E+01 -0.85061105514E+02  0.10270963704E+03  0.47000000000E+01 0.  1.
         11    1    6    6    0    0 -0.86613076983E+01  0.85350671345E+01 -0.41817649493E+03  0.41835325568E+03  0.00000000000E+00 0. -1.
        -12    1    6    6    0    0 -0.31667604419E+02  0.60036862342E+01 -0.57587927414E+02  0.65994324013E+02  0.00000000000E+00 0.  1.
</event>
<event>
12    1  0.8251070E-002  0.2133397E+03  0.7818608E-02  0.1139032E+00
         21   -1    0    0  501  502  0.00000000000E+00  0.00000000000E+00  0.18530795093E+03  0.18530795093E+03  0.00000000000E+00 0.  1.
         21   -1    0    0  502  503 -0.00000000000E+00 -0.00000000000E+00 -0.26172428869E+03  0.26172428869E+03  0.00000000000E+00 0. -1.
         -6    2    1    2    0  503 -0.12539392832E+03 -0.56511802753E+01 -0.94480647564E+02  0.23292915070E+03  0.17197041427E+03 0.  0.
        -24    2    3    3    0    0 -0.22781484145E+02 -0.54779464972E+02 -0.40900621274E+02  0.10708873083E+03  0.79217104511E+02 0.  0.
          6    2    1    2  501    0  0.12539392832E+03  0.56511802753E+01  0.18064309803E+02  0.21410308891E+03  0.17250576887E+03 0.  0.
         24    2    5    5    0    0  0.58185780283E+02 -0.54413909874E+02  0.40487465528E+02  0.12109965816E+03  0.81727802657E+02 0.  0.
          5    1    5    5  501    0  0.67208148042E+02  0.60065090149E+02 -0.22423155725E+02  0.93003430746E+02  0.47000000000E+01 0. -1.
        -11    1    6    6    0    0  0.15556612333E+02  0.14498485023E+02  0.33615287188E+02  0.39776900181E+02  0.00000000000E+00 0.  1.
         12    1    6    6    0    0  0.42629167949E+02 -0.68912394897E+02  0.68721783399E+01  0.81322757981E+02  0.00000000000E+00 0. -1.
         -5    1    3    3    0  503 -0.10261244418E+03  0.49128284696E+02 -0.53580026290E+02  0.12584041988E+03  0.47000000000E+01 0.  1.
         13    1    4    4    0    0  0.81032720613E+01 -0.17519140388E+02 -0.53670546805E+02  0.57036049060E+02  0.00000000000E+00 0. -1.
        -14    1    4    4    0    0 -0.30884756207E+02 -0.37260324583E+02  0.12769925531E+02  0.50052681767E+02  0.00000000000E+00 0.  1.
</event>
<event>
12    1  0.8251070E-002  0.2677241E+03  0.7818608E-02  0.1102665E+00
         21   -1    0    0  501  502  0.00000000000E+00  0.00000000000E+00  0.16407673066E+03  0.16407673066E+03  0.00000000000E+00 0.  1.
         21   -1    0    0  502  503 -0.00000000000E+00 -0.00000000000E+00 -0.46959059074E+03  0.46959059074E+03  0.00000000000E+00 0. -1.
         -6    2    1    2    0  503 -0.11268879536E+03  0.17161657586E+03 -0.23736233028E+03  0.35740507456E+03  0.17101607459E+03 0.  0.
        -24    2    3    3    0    0 -0.77397006203E+02  0.15522300866E+03 -0.10201966998E+03  0.21650090455E+03  0.79875838771E+02 0.  0.
          6    2    1    2  501    0  0.11268879536E+03 -0.17161657586E+03 -0.68151529800E+02  0.27626224685E+03  0.17182893909E+03 0.  0.
         24    2    5    5    0    0  0.83723890107E+02 -0.19171608178E+03 -0.33160542685E+02  0.22636820859E+03  0.79863624275E+02 0.  0.
          5    1    5    5  501    0  0.28964905257E+02  0.20099505916E+02 -0.34990987116E+02  0.49894038261E+02  0.47000000000E+01 0. -1.
        -13    1    6    6    0    0  0.90221930842E+02 -0.15374564898E+03 -0.48753331171E+02  0.18480965528E+03  0.00000000000E+00 0.  1.
         14    1    6    6    0    0 -0.64980407352E+01 -0.37970432799E+02  0.15592788487E+02  0.41558553309E+02  0.00000000000E+00 0. -1.
         -5    1    3    3    0  503 -0.35291789161E+02  0.16393567199E+02 -0.13534266030E+03  0.14090417001E+03  0.47000000000E+01 0.  1.
         11    1    4    4    0    0 -0.26192239188E+02  0.13210921715E+03 -0.68829940079E+02  0.15124959273E+03  0.00000000000E+00 0. -1.
        -12    1    4    4    0    0 -0.51204767014E+02  0.23113791514E+02 -0.33189729899E+02  0.65251311818E+02  0.00000000000E+00 0.  1.
</event>
<event>
12    1  0.8251070E-002  0.1861036E+03  0.7818608E-02  0.1162118E+00
         21   -1    0    0  501  502  0.00000000000E+00  0.00000000000E+00  0.13654087902E+03  0.13654087902E+03  0.00000000000E+00 0.  1.
         21   -1    0    0  502  503 -0.00000000000E+00 -0.00000000000E+00 -0.25774631051E+03  0.25774631051E+03  0.00000000000E+00 0.  1.
         -6    2    1    2    0  503 -0.71650310660E+02 -0.82566290246E+00 -0.34075504152E+02  0.18879712436E+03  0.17131481386E+03 0.  0.
        -24    2    3    3    0    0 -0.51402927623E+01 -0.54908142900E+02 -0.17709709439E+01  0.97068339409E+02  0.79861125782E+02 0.  0.
          6    2    1    2  501    0  0.71650310660E+02  0.82566290246E+00 -0.87129927342E+02  0.20549006516E+03  0.17175591374E+03 0.  0.
         24    2    5    5    0    0  0.11292797455E+03  0.34687953217E+01 -0.82377129123E+02  0.16359124923E+03  0.84919641109E+02 0.  0.
          5    1    5    5  501    0 -0.41277663892E+02 -0.26431324193E+01 -0.47527982183E+01  0.41898815930E+02  0.47000000000E+01 0. -1.
        -11    1    6    6    0    0  0.93061681136E+02 -0.29012422453E+02 -0.78804856215E+02  0.12534912252E+03  0.00000000000E+00 0.  1.
         12    1    6    6    0    0  0.19866293416E+02  0.32481217775E+02 -0.35722729082E+01  0.38242126718E+02  0.00000000000E+00 0. -1.
         -5    1    3    3    0  503 -0.66510017897E+02  0.54082479998E+02 -0.32304533209E+02  0.91728784955E+02  0.47000000000E+01 0.  1.
         11    1    4    4    0    0 -0.11470601440E+02 -0.73911550907E+02 -0.99057703824E+01  0.75449429036E+02  0.00000000000E+00 0. -1.
        -12    1    4    4    0    0  0.63303086780E+01  0.19003408007E+02  0.81347994385E+01  0.21618910374E+02  0.00000000000E+00 0.  1.
</event>
<event>
12    1  0.8251070E-002  0.1772178E+03  0.7818608E-02  0.1170913E+00
         21   -1    0    0  503  502  0.00000000000E+00  0.00000000000E+00  0.36817522245E+03  0.36817522245E+03  0.00000000000E+00 0. -1.
         21   -1    0    0  501  503 -0.00000000000E+00 -0.00000000000E+00 -0.14164877866E+03  0.14164877866E+03  0.00000000000E+00 0. -1.
          6    2    1    2  501    0 -0.24366241854E+02 -0.27524946232E+02 -0.48282781710E+02  0.18367739913E+03  0.17336327043E+03 0.  0.
         24    2    3    3    0    0 -0.26792783134E+02 -0.61501251307E+02  0.20284049499E+02  0.10697161219E+03  0.80816000947E+02 0.  0.
         -6    2    1    2    0  502  0.24366241854E+02  0.27524946232E+02  0.27480922550E+03  0.32614660198E+03  0.17175610368E+03 0.  0.
        -24    2    5    5    0    0  0.73095660856E+02  0.52411971609E+02  0.19934347714E+03  0.23281338450E+03  0.79838961173E+02 0.  0.
          5    1    3    3  501    0  0.24265412804E+01  0.33976305075E+02 -0.68566831210E+02  0.76705786948E+02  0.47000000000E+01 0. -1.
        -13    1    4    4    0    0  0.19483897823E+02 -0.39694401411E+02 -0.12817949402E+02  0.46038761980E+02  0.00000000000E+00 0.  1.
         14    1    4    4    0    0 -0.46276680958E+02 -0.21806849896E+02  0.33101998902E+02  0.60932850205E+02  0.00000000000E+00 0. -1.
         -5    1    5    5    0  502 -0.48729419002E+02 -0.24887025377E+02  0.75465748366E+02  0.93333217478E+02  0.47000000000E+01 0.  1.
         11    1    6    6    0    0  0.14023670537E+02 -0.11335942832E+02  0.96477467804E+02  0.98148197789E+02  0.00000000000E+00 0. -1.
        -12    1    6    6    0    0  0.59071990319E+02  0.63747914441E+02  0.10286600933E+03  0.13466518671E+03  0.00000000000E+00 0.  1.
</event>
<event>
12    1  0.8251070E-002  0.2015075E+03  0.7818608E-02  0.1148551E+00
         21   -1    0    0  501  502  0.00000000000E+00  0.00000000000E+00  0.71348843406E+02  0.71348843406E+02  0.00000000000E+00 0. -1.
         21   -1    0    0  502  503 -0.00000000000E+00 -0.00000000000E+00 -0.70838028536E+03  0.70838028536E+03  0.00000000000E+00 0. -1.
         -6    2    1    2    0  503  0.11837847783E+02 -0.10375493327E+03 -0.49226821918E+03  0.53191473524E+03  0.17233706836E+03 0.  0.
        -24    2    3    3    0    0  0.73046121122E+02 -0.42660533981E+02 -0.30207476480E+03  0.32293000269E+03  0.76674416449E+02 0.  0.
          6    2    1    2  501    0 -0.11837847783E+02  0.10375493327E+03 -0.14476322278E+03  0.24781439353E+03  0.17190218775E+03 0.  0.
         24    2    5    5    0    0 -0.22995669161E+02  0.14000868593E+03 -0.11795748078E+03  0.20112960625E+03  0.80049474096E+02 0.  0.
          5    1    5    5  501    0  0.11157821378E+02 -0.36253752653E+02 -0.26805741994E+02  0.46684787278E+02  0.47000000000E+01 0. -1.
        -11    1    6    6    0    0 -0.38144150248E+02  0.77612331349E+02 -0.10429245122E+03  0.13548271313E+03  0.00000000000E+00 0.  1.
         12    1    6    6    0    0  0.15148481087E+02  0.62396354577E+02 -0.13665029567E+02  0.65646893124E+02  0.00000000000E+00 0. -1.
         -5    1    3    3    0  503 -0.61208273340E+02 -0.61094399292E+02 -0.19019345438E+03  0.20898473255E+03  0.47000000000E+01 0.  1.
         13    1    4    4    0    0  0.27951397126E+02  0.15283422413E+02 -0.15850393395E+03  0.16167362395E+03  0.00000000000E+00 0. -1.
        -14    1    4    4    0    0  0.45094723996E+02 -0.57943956394E+02 -0.14357083085E+03  0.16125637875E+03  0.00000000000E+00 0.  1.
</event>
<event>
12    1  0.8251070E-002  0.3595242E+03  0.7818608E-02  0.1058832E+00
         21   -1    0    0  501  502  0.00000000000E+00  0.00000000000E+00  0.10916783596E+03  0.10916783596E+03  0.00000000000E+00 0. -1.
         21   -1    0    0  502  503 -0.00000000000E+00 -0.00000000000E+00 -0.17712903412E+04  0.17712903412E+04  0.00000000000E+00 0.  1.
         -6    2    1    2    0  503  0.30768878946E+03  0.68679196074E+02 -0.13738181521E+04  0.14200823720E+04  0.17282478156E+03 0.  0.
        -24    2    3    3    0    0  0.20478356887E+03  0.13943137066E+02 -0.63362583457E+03  0.67075448816E+03  0.79367272884E+02 0.  0.
          6    2    1    2  501    0 -0.30768878946E+03 -0.68679196074E+02 -0.28830435309E+03  0.46037580510E+03  0.17157289640E+03 0.  0.
         24    2    5    5    0    0 -0.23410292454E+03 -0.80571340929E+02 -0.14329130004E+03  0.29725873616E+03  0.80835878781E+02 0.  0.
          5    1    5    5  501    0 -0.73585864915E+02  0.11892144855E+02 -0.14501305305E+03  0.16311706894E+03  0.47000000000E+01 0. -1.
        -11    1    6    6    0    0  0.31817579435E+01  0.40079646928E+01  0.30212655234E+01  0.59426770023E+01  0.00000000000E+00 0.  1.
         12    1    6    6    0    0 -0.23728468248E+03 -0.84579305622E+02 -0.14631256557E+03  0.29131605916E+03  0.00000000000E+00 0. -1.
         -5    1    3    3    0  503  0.10290522059E+03  0.54736059008E+02 -0.74019231756E+03  0.74932788387E+03  0.47000000000E+01 0.  1.
         11    1    4    4    0    0  0.35861739111E+02  0.26800168764E+02 -0.78670344993E+02  0.90517051206E+02  0.00000000000E+00 0. -1.
        -12    1    4    4    0    0  0.16892182976E+03 -0.12857031698E+02 -0.55495548958E+03  0.58023743696E+03  0.00000000000E+00 0.  1.
</event>
<event>
12    1  0.8251070E-002  0.2919861E+03  0.7818608E-02  0.1090057E+00
         21   -1    0    0  501  502  0.00000000000E+00  0.00000000000E+00  0.45997103728E+03  0.45997103728E+03  0.00000000000E+00 0.  1.
         21   -1    0    0  502  503 -0.00000000000E+00 -0.00000000000E+00 -0.21595045100E+03  0.21595045100E+03  0.00000000000E+00 0. -1.
         -6    2    1    2    0  503  0.41313879676E+02 -0.22670933300E+03 -0.13441274310E+02  0.28663690769E+03  0.16992966390E+03 0.  0.
        -24    2    3    3    0    0 -0.25320848134E+01 -0.12827296503E+03 -0.73518250292E+02  0.16317225614E+03  0.68991934569E+02 0.  0.
          6    2    1    2  501    0 -0.41313879676E+02  0.22670933300E+03  0.25746186059E+03  0.38928458059E+03  0.17930955554E+03 0.  0.
         24    2    5    5    0    0 -0.28066013854E+02  0.94098429258E+02  0.21480160609E+03  0.24927334871E+03  0.79719865004E+02 0.  0.
          5    1    5    5  501    0 -0.13247865822E+02  0.13261090374E+03  0.42660254501E+02  0.14001123188E+03  0.47000000000E+01 0. -1.
        -11    1    6    6    0    0 -0.59229441060E+01  0.79926115529E+02  0.84959217360E+02  0.11679612076E+03  0.00000000000E+00 0.  1.
         12    1    6    6    0    0 -0.22143069748E+02  0.14172313730E+02  0.12984238873E+03  0.13247722795E+03  0.00000000000E+00 0. -1.
         -5    1    3    3    0  503  0.43845964489E+02 -0.98436367967E+02  0.60076975982E+02  0.12346465156E+03  0.47000000000E+01 0.  1.
         13    1    4    4    0    0 -0.44107967266E+01 -0.38834978819E+02 -0.61559133312E+02  0.72918705432E+02  0.00000000000E+00 0. -1.
        -14    1    4    4    0    0  0.18787119132E+01 -0.89437986211E+02 -0.11959116980E+02  0.90253550705E+02  0.00000000000E+00 0.  1.
</event>
<event>
12    1  0.8251070E-002  0.1942831E+03  0.7818608E-02  0.1155720E+00
         21   -1    0    0  501  502  0.00000000000E+00  0.00000000000E+00  0.12551178568E+03  0.12551178568E+03  0.00000000000E+00 0.  1.
         21   -1    0    0  502  503 -0.00000000000E+00 -0.00000000000E+00 -0.53811714654E+03  0.53811714654E+03  0.00000000000E+00 0.  1.
         -6    2    1    2    0  503 -0.88733226247E+01 -0.87209148804E+02 -0.43148818258E+03  0.47321028897E+03  0.17338325868E+03 0.  0.
        -24    2    3    3    0    0  0.53233480576E+02 -0.51209631944E+02 -0.16697362305E+03  0.19908757480E+03  0.79369022854E+02 0.  0.
          6    2    1    2  501    0  0.88733226247E+01  0.87209148804E+02  0.18882821726E+02  0.19041864325E+03  0.16798371127E+03 0.  0.
         24    2    5    5    0    0  0.49948982328E+02  0.17188853707E+02  0.43954915869E+02  0.10532603811E+03  0.79819685207E+02 0.  0.
          5    1    5    5  501    0 -0.41075659703E+02  0.70020295097E+02 -0.25072094143E+02  0.85092605144E+02  0.47000000000E+01 0. -1.
        -13    1    6    6    0    0  0.52783486772E+02  0.41103093239E+02  0.16692501014E+02  0.68950709494E+02  0.00000000000E+00 0.  1.
         14    1    6    6    0    0 -0.28345044442E+01 -0.23914239532E+02  0.27262414856E+02  0.36375328612E+02  0.00000000000E+00 0. -1.
         -5    1    3    3    0  503 -0.62106803201E+02 -0.35999516860E+02 -0.26451455953E+03  0.27412271417E+03  0.47000000000E+01 0.  1.
         11    1    4    4    0    0 -0.15319025578E+02  0.74566389543E+01 -0.38434398024E+02  0.42041372012E+02  0.00000000000E+00 0. -1.
        -12    1    4    4    0    0  0.68552506155E+02 -0.58666270898E+02 -0.12853922502E+03  0.15704620279E+03  0.00000000000E+00 0.  1.
</event>
<event>
12    1  0.8251070E-002  0.2263915E+03  0.7818608E-02  0.1129627E+00
         21   -1    0    0  503  502  0.00000000000E+00  0.00000000000E+00  0.39958445467E+03  0.39958445467E+03  0.00000000000E+00 0. -1.
         21   -1    0    0  501  503 -0.00000000000E+00 -0.00000000000E+00 -0.19527193061E+03  0.19527193061E+03  0.00000000000E+00 0.  1.
          6    2    1    2  501    0 -0.14222622251E+03  0.92508290302E+01 -0.73431044213E+02  0.23800261738E+03  0.17589556963E+03 0.  0.
         24    2    3    3    0    0 -0.53757371477E+02 -0.12897261367E+02 -0.10414378217E+03  0.14165617072E+03  0.78513368285E+02 0.  0.
         -6    2    1    2    0  502  0.14222622251E+03 -0.92508290302E+01  0.27774356827E+03  0.35685376790E+03  0.17288506511E+03 0.  0.
        -24    2    5    5    0    0  0.17081393851E+03 -0.24425911423E+02  0.22151008733E+03  0.29180121214E+03  0.79417893946E+02 0.  0.
          5    1    3    3  501    0 -0.88468851034E+02  0.22148090397E+02  0.30712737954E+02  0.96346446661E+02  0.47000000000E+01 0. -1.
        -13    1    4    4    0    0 -0.73373914513E+02 -0.17790902877E+01 -0.77171113603E+02  0.10650012802E+03  0.00000000000E+00 0.  1.
         14    1    4    4    0    0  0.19616543036E+02 -0.11118171079E+02 -0.26972668564E+02  0.35156042699E+02  0.00000000000E+00 0. -1.
         -5    1    5    5    0  502 -0.28587716001E+02  0.15175082393E+02  0.56233480945E+02  0.65052555760E+02  0.47000000000E+01 0.  1.
         11    1    6    6    0    0  0.63022605986E+02  0.28134600659E+01  0.14119191764E+03  0.15464450210E+03  0.00000000000E+00 0. -1.
        -12    1    6    6    0    0  0.10779133253E+03 -0.27239371489E+02  0.80318169689E+02  0.13715671004E+03  0.00000000000E+00 0.  1.
</event>
<event>
12    1  0.8251070E-002  0.1785883E+03  0.7818608E-02  0.1170167E+00
         21   -1    0    0  503  502  0.00000000000E+00  0.00000000000E+00  0.76305957537E+02  0.76305957537E+02  0.00000000000E+00 0. -1.
         21   -1    0    0  501  503 -0.00000000000E+00 -0.00000000000E+00 -0.54955310838E+03  0.54955310838E+03  0.00000000000E+00 0. -1.
          6    2    1    2  501    0 -0.17850166105E+02 -0.10805919758E+02 -0.39706332473E+03  0.43537691334E+03  0.17736509378E+03 0.  0.
         24    2    3    3    0    0 -0.82648973484E+02 -0.94425667918E+01 -0.23193471918E+03  0.25792187526E+03  0.76223125695E+02 0.  0.
         -6    2    1    2    0  502  0.17850166105E+02  0.10805919758E+02 -0.76183826113E+02  0.19048215258E+03  0.17333227846E+03 0.  0.
        -24    2    5    5    0    0 -0.53064949269E+02  0.47575860575E+01 -0.17305353258E+02  0.97992691043E+02  0.80402542127E+02 0.  0.
          5    1    3    3  501    0  0.64798807379E+02 -0.13633529663E+01 -0.16512860556E+03  0.17745503808E+03  0.47000000000E+01 0. -1.
        -13    1    4    4    0    0 -0.75066166526E+02 -0.70798167834E+01 -0.23686334307E+03  0.24857452897E+03  0.00000000000E+00 0.  1.
         14    1    4    4    0    0 -0.75828069580E+01 -0.23627500083E+01  0.49286238987E+01  0.93473462811E+01  0.00000000000E+00 0. -1.
         -5    1    5    5    0  502  0.70915115374E+02  0.60483337006E+01 -0.58878472855E+02  0.92489461533E+02  0.47000000000E+01 0.  1.
         13    1    6    6    0    0 -0.52769355115E+02  0.52456158970E+01  0.22914732797E+02  0.57768558097E+02  0.00000000000E+00 0. -1.
        -14    1    6    6    0    0 -0.29559415396E+00 -0.48802983949E+00 -0.40220086055E+02  0.40224132947E+02  0.00000000000E+00 0.  1.
</event>
<event>
12    1  0.8251070E-002  0.1836251E+03  0.7818608E-02  0.1165881E+00
         21   -1    0    0  501  502  0.00000000000E+00  0.00000000000E+00  0.45427212554E+03  0.45427212554E+03  0.00000000000E+00 0. -1.
         21   -1    0    0  502  503 -0.00000000000E+00 -0.00000000000E+00 -0.10911497922E+03  0.10911497922E+03  0.00000000000E+00 0.  1.
         -6    2    1    2    0  503 -0.31883709128E+02  0.33520099852E+02  0.95596144745E+01  0.18387375170E+03  0.17770200430E+03 0.  0.
        -24    2    3    3    0    0 -0.70214873212E+02 -0.28753611167E+02 -0.38239878320E+01  0.10938547051E+03  0.78699807496E+02 0.  0.
          6    2    1    2  501    0  0.31883709128E+02 -0.33520099852E+02  0.33559753185E+03  0.37951335307E+03  0.17106873990E+03 0.  0.
         24    2    5    5    0    0  0.66562647567E+02 -0.42883218874E+02  0.13321489910E+03  0.17391394449E+03  0.78932212904E+02 0.  0.
          5    1    5    5  501    0 -0.34678938439E+02  0.93631190220E+01  0.20238263275E+03  0.20559940857E+03  0.47000000000E+01 0. -1.
        -13    1    6    6    0    0  0.74934079443E+02 -0.56282125644E+02  0.99528840746E+02  0.13670692766E+03  0.00000000000E+00 0.  1.
         14    1    6    6    0    0 -0.83714318760E+01  0.13398906770E+02  0.33686058356E+02  0.37207016836E+02  0.00000000000E+00 0. -1.
         -5    1    3    3    0  503  0.38331164084E+02  0.62273711019E+02  0.13383602307E+02  0.74488281191E+02  0.47000000000E+01 0.  1.
         13    1    4    4    0    0 -0.79873321925E+01 -0.44369376236E+02 -0.36261703728E+01  0.45228178547E+02  0.00000000000E+00 0. -1.
        -14    1    4    4    0    0 -0.62227541020E+02  0.15615765068E+02 -0.19781745918E+00  0.64157291961E+02  0.00000000000E+00 0.  1.
</event>
<event>
12    1  0.8251070E-002  0.1846752E+03  0.7818608E-02  0.1163624E+00
         21   -1    0    0  501  502  0.00000000000E+00  0.00000000000E+00  0.79094750328E+03  0.79094750328E+03  0.00000000000E+00 0. -1.
         21   -1    0    0  502  503 -0.00000000000E+00 -0.00000000000E+00 -0.43892341500E+02  0.43892341500E+02  0.00000000000E+00 0.  1.
         -6    2    1    2    0  503 -0.63660121235E+02 -0.41032815561E+00  0.30806081545E+03  0.35858258603E+03  0.17212560991E+03 0.  0.
        -24    2    3    3    0    0 -0.10590514162E+03 -0.18097818061E+02  0.19074631762E+03  0.23255770576E+03  0.78456986831E+02 0.  0.
          6    2    1    2  501    0  0.63660121235E+02  0.41032815561E+00  0.43899434633E+03  0.47625725875E+03  0.17335559118E+03 0.  0.
         24    2    5    5    0    0  0.61924292618E+02  0.61304604000E+02  0.23078889238E+03  0.25927171318E+03  0.79783682035E+02 0.  0.
          5    1    5    5  501    0  0.17358286174E+01 -0.60894275845E+02  0.20820545395E+03  0.21698554557E+03  0.47000000000E+01 0. -1.
        -13    1    6    6    0    0 -0.86512356333E+01 -0.13720638399E+01 -0.11761640862E+01  0.88379748315E+01  0.00000000000E+00 0.  1.
         14    1    6    6    0    0  0.70575528251E+02  0.62676667840E+02  0.23196505647E+03  0.25043373835E+03  0.00000000000E+00 0. -1.
         -5    1    3    3    0  503  0.42245020389E+02  0.17687489905E+02  0.11731449783E+03  0.12602488028E+03  0.47000000000E+01 0.  1.
         13    1    4    4    0    0 -0.86047765522E+02 -0.15041478987E+02  0.19347641452E+03  0.21228185748E+03  0.00000000000E+00 0. -1.
        -14    1    4    4    0    0 -0.19857376103E+02 -0.30563390732E+01 -0.27300969022E+01  0.20275848276E+02  0.00000000000E+00 0.  1.
</event>
<event>
12    1  0.8251070E-002  0.2023364E+03  0.7818608E-02  0.1149096E+00
         21   -1    0    0  501  502  0.00000000000E+00  0.00000000000E+00  0.40215198064E+03  0.40215198064E+03  0.00000000000E+00 0.  1.
         21   -1    0    0  502  503 -0.00000000000E+00 -0.00000000000E+00 -0.28770734819E+03  0.28770734819E+03  0.00000000000E+00 0. -1.
         -6    2    1    2    0  503 -0.90835160645E+02 -0.18877824087E+02 -0.22264601294E+03  0.29670524556E+03  0.17278702791E+03 0.  0.
        -24    2    3    3    0    0 -0.71820363427E+02  0.42130314156E+02 -0.19619252860E+03  0.22738402025E+03  0.79239235310E+02 0.  0.
          6    2    1    2  501    0  0.90835160645E+02  0.18877824087E+02  0.33709064540E+03  0.39315408327E+03  0.17981276740E+03 0.  0.
         24    2    5    5    0    0 -0.11905683526E+02 -0.26023554324E+02  0.15205032473E+03  0.17674284253E+03  0.85438635607E+02 0.  0.
          5    1    5    5  501    0  0.10274084417E+03  0.44901378411E+02  0.18504032067E+03  0.21641124074E+03  0.47000000000E+01 0. -1.
        -11    1    6    6    0    0  0.91028947489E+01  0.19542996415E+02  0.10750754886E+03  0.10964791135E+03  0.00000000000E+00 0.  1.
         12    1    6    6    0    0 -0.21008578275E+02 -0.45566550739E+02  0.44542775868E+02  0.67094931175E+02  0.00000000000E+00 0. -1.
         -5    1    3    3    0  503 -0.19014797218E+02 -0.61008138243E+02 -0.26453484348E+02  0.69321225316E+02  0.47000000000E+01 0.  1.
         13    1    4    4    0    0 -0.40700272433E+02  0.17766707204E+02 -0.17874914483E+03  0.18418312854E+03  0.00000000000E+00 0. -1.
        -14    1    4    4    0    0 -0.31120090994E+02  0.24363606951E+02 -0.17443383769E+02  0.43200891709E+02  0.00000000000E+00 0.  1.
</event>
<event>
12    1  0.8251070E-002  0.1826329E+03  0.7818608E-02  0.1166170E+00
         21   -1    0    0  501  502  0.00000000000E+00  0.00000000000E+00  0.43550367027E+02  0.43550367027E+02  0.00000000000E+00 0. -1.
         21   -1    0    0  502  503 -0.00000000000E+00 -0.00000000000E+00 -0.83560037807E+03  0.83560037807E+03  0.00000000000E+00 0. -1.
         -6    2    1    2    0  503  0.40354420410E+02 -0.53374597121E+02 -0.53272651156E+03  0.56197026921E+03  0.16593890590E+03 0.  0.
        -24    2    3    3    0    0  0.47551782766E+02 -0.94468914937E+02 -0.44604265019E+03  0.46565450309E+03  0.81820061858E+02 0.  0.
          6    2    1    2  501    0 -0.40354420410E+02  0.53374597121E+02 -0.25932349947E+03  0.31718047588E+03  0.16993366363E+03 0.  0.
         24    2    5    5    0    0  0.25933344288E+02  0.65431394543E+02 -0.10225529953E+03  0.14620695879E+03  0.77243270121E+02 0.  0.
          5    1    5    5  501    0 -0.66287764698E+02 -0.12056797421E+02 -0.15706819994E+03  0.17097351709E+03  0.47000000000E+01 0. -1.
        -11    1    6    6    0    0 -0.82932824239E+00 -0.14698586969E+02 -0.35837584906E+02  0.38743628329E+02  0.00000000000E+00 0.  1.
         12    1    6    6    0    0  0.26762672531E+02  0.80129981512E+02 -0.66417714627E+02  0.10746333046E+03  0.00000000000E+00 0. -1.
         -5    1    3    3    0  503 -0.71973623555E+01  0.41094317815E+02 -0.86683861370E+02  0.96315766121E+02  0.47000000000E+01 0.  1.
         11    1    4    4    0    0  0.21855894877E+02 -0.18923095776E+02 -0.27940252375E+03  0.28089416863E+03  0.00000000000E+00 0. -1.
        -12    1    4    4    0    0  0.25695887888E+02 -0.75545819161E+02 -0.16664012644E+03  0.18476033446E+03  0.00000000000E+00 0.  1.
</event>
<event>
12    1  0.8251070E-002  0.2206757E+03  0.7818608E-02  0.1133517E+00
         21   -1    0    0  501  502  0.00000000000E+00  0.00000000000E+00  0.38318895690E+03  0.38318895690E+03  0.00000000000E+00 0. -1.
         21   -1    0    0  502  503 -0.00000000000E+00 -0.00000000000E+00 -0.60737024514E+03  0.60737024514E+03  0.00000000000E+00 0. -1.
         -6    2    1    2    0  503 -0.97902513017E+02  0.98809936963E+02 -0.55267166925E+03  0.59482735012E+03  0.17036812134E+03 0.  0.
        -24    2    3    3    0    0 -0.87601477797E+02  0.57412966906E+01 -0.23474169856E+03  0.26336175705E+03  0.80924462530E+02 0.  0.
          6    2    1    2  501    0  0.97902513017E+02 -0.98809936963E+02  0.32849038100E+03  0.39573185192E+03  0.17131684831E+03 0.  0.
         24    2    5    5    0    0 -0.14326332754E+02 -0.62928322328E+02  0.17974881122E+03  0.20591892118E+03  0.76991878831E+02 0.  0.
          5    1    5    5  501    0  0.11222884577E+03 -0.35881614636E+02  0.14874156978E+03  0.18981293073E+03  0.47000000000E+01 0. -1.
        -11    1    6    6    0    0  0.10147840206E+01 -0.97963493006E+01 -0.63889626304E+01  0.11739552365E+02  0.00000000000E+00 0.  1.
         12    1    6    6    0    0 -0.15341116775E+02 -0.53131973027E+02  0.18613777385E+03  0.19417936882E+03  0.00000000000E+00 0. -1.
         -5    1    3    3    0  503 -0.10301035221E+02  0.93068640273E+02 -0.31792997069E+03  0.33146559307E+03  0.47000000000E+01 0.  1.
         11    1    4    4    0    0 -0.28287189946E+01  0.17762585416E+02 -0.57446429322E+01  0.18881525739E+02  0.00000000000E+00 0. -1.
        -12    1    4    4    0    0 -0.84772758802E+02 -0.12021288726E+02 -0.22899705562E+03  0.24448023131E+03  0.00000000000E+00 0.  1.
</event>
<event>
12    1  0.8251070E-002  0.1758774E+03  0.7818608E-02  0.1171963E+00
         21   -1    0    0  503  502  0.00000000000E+00  0.00000000000E+00  0.12676290282E+03  0.12676290282E+03  0.00000000000E+00 0.  1.
         21   -1    0    0  501  503 -0.00000000000E+00 -0.00000000000E+00 -0.31114070721E+03  0.31114070721E+03  0.00000000000E+00 0.  1.
          6    2    1    2  501    0 -0.33295564987E+02  0.96030889389E+01 -0.19443033541E+03  0.26217554403E+03  0.17242983094E+03 0.  0.
         24    2    3    3    0    0  0.11699248029E+02  0.63352996671E+02 -0.81089234436E+02  0.12882682470E+03  0.76618615415E+02 0.  0.
         -6    2    1    2    0  502  0.33295564987E+02 -0.96030889389E+01  0.10052531017E+02  0.17572806600E+03  0.17198396970E+03 0.  0.
        -24    2    5    5    0    0 -0.95892392923E+01 -0.54745844324E+02  0.41617188904E+02  0.10576098496E+03  0.79776779488E+02 0.  0.
          5    1    3    3  501    0 -0.44994813016E+02 -0.53749907732E+02 -0.11334110097E+03  0.13334871934E+03  0.47000000000E+01 0. -1.
        -13    1    4    4    0    0  0.42718186594E+02  0.21213043199E+02 -0.36040065519E+02  0.59780623870E+02  0.00000000000E+00 0.  1.
         14    1    4    4    0    0 -0.31018938565E+02  0.42139953473E+02 -0.45049168917E+02  0.69046200826E+02  0.00000000000E+00 0. -1.
         -5    1    5    5    0  502  0.42884804279E+02  0.45142755385E+02 -0.31564657887E+02  0.69967081041E+02  0.47000000000E+01 0.  1.
         13    1    6    6    0    0 -0.19130566459E+02  0.15251986906E+02  0.14825120710E+01  0.24511212121E+02  0.00000000000E+00 0. -1.
        -14    1    6    6    0    0  0.95413271664E+01 -0.69997831231E+02  0.40134676833E+02  0.81249772834E+02  0.00000000000E+00 0.  1.
</event>
<event>
12    1  0.8251070E-002  0.1778294E+03  0.7818608E-02  0.1170250E+00
         21   -1    0    0  503  502  0.00000000000E+00  0.00000000000E+00  0.21731438411E+03  0.21731438411E+03  0.00000000000E+00 0.  1.
         21   -1    0    0  501  503 -0.00000000000E+00 -0.00000000000E+00 -0.20963219820E+03  0.20963219820E+03  0.00000000000E+00 0.  1.
          6    2    1    2  501    0 -0.36694802263E+02  0.24717908635E+02 -0.11522413819E+03  0.21077709438E+03  0.17085929290E+03 0.  0.
         24    2    3    3    0    0  0.70829989561E+01  0.17360367874E+02 -0.13850761880E+03  0.16042990226E+03  0.78751773481E+02 0.  0.
         -6    2    1    2    0  502  0.36694802263E+02 -0.24717908635E+02  0.12290632411E+03  0.21616948794E+03  0.17223762507E+03 0.  0.
        -24    2    5    5    0    0  0.29591366139E+02  0.30398151723E+02  0.11106904006E+02  0.91231746446E+02  0.80001072898E+02 0.  0.
          5    1    3    3  501    0 -0.43777801220E+02  0.73575407612E+01  0.23283480601E+02  0.50347192122E+02  0.47000000000E+01 0. -1.
        -11    1    4    4    0    0  0.18400475132E+02  0.25204652924E+02 -0.12411580483E+02  0.33584212722E+02  0.00000000000E+00 0.  1.
         12    1    4    4    0    0 -0.11317476176E+02 -0.78442850502E+01 -0.12609603831E+03  0.12684568953E+03  0.00000000000E+00 0. -1.
         -5    1    5    5    0  502  0.71034361245E+01 -0.55116060358E+02  0.11179942010E+03  0.12493774149E+03  0.47000000000E+01 0.  1.
         13    1    6    6    0    0  0.36325003915E+02  0.44659139403E+02  0.31366372872E+02  0.65557562407E+02  0.00000000000E+00 0. -1.
        -14    1    6    6    0    0 -0.67336377760E+01 -0.14260987680E+02 -0.20259468866E+02  0.25674184039E+02  0.00000000000E+00 0.  1.
</event>
<event>
12    1  0.8251070E-002  0.1724698E+03  0.7818608E-02  0.1175329E+00
         21   -1    0    0  501  502  0.00000000000E+00  0.00000000000E+00  0.10723718517E+04  0.10723718517E+04  0.00000000000E+00 0.  1.
         21   -1    0    0  502  503 -0.00000000000E+00 -0.00000000000E+00 -0.37208027062E+02  0.37208027062E+02  0.00000000000E+00 0.  1.
         -6    2    1    2    0  503  0.18691567722E+02 -0.85158467832E+01  0.23725938807E+03  0.29324825023E+03  0.17111582244E+03 0.  0.
        -24    2    3    3    0    0  0.42128123483E+02  0.36104493462E+02  0.21910617972E+03  0.23947208560E+03  0.79126787839E+02 0.  0.
          6    2    1    2  501    0 -0.18691567722E+02  0.85158467832E+01  0.79790443654E+03  0.81633162849E+03  0.17124235306E+03 0.  0.
         24    2    5    5    0    0  0.52031321547E+02  0.24962648537E+02  0.50171694671E+03  0.51133762284E+03  0.80099173974E+02 0.  0.
          5    1    5    5  501    0 -0.70722889269E+02 -0.16446801754E+02  0.29618748983E+03  0.30499400565E+03  0.47000000000E+01 0. -1.
        -13    1    6    6    0    0 -0.21069639670E+02  0.11398828280E+02  0.10311569938E+03  0.10586175164E+03  0.00000000000E+00 0.  1.
         14    1    6    6    0    0  0.73100961217E+02  0.13563820258E+02  0.39860124733E+03  0.40547587120E+03  0.00000000000E+00 0. -1.
         -5    1    3    3    0  503 -0.23436555761E+02 -0.44620340245E+02  0.18153208348E+02  0.53776164635E+02  0.47000000000E+01 0.  1.
         11    1    4    4    0    0 -0.68187280825E+01  0.43541713344E+02  0.13342706695E+03  0.14051746528E+03  0.00000000000E+00 0. -1.
        -12    1    4    4    0    0  0.48946851566E+02 -0.74372198816E+01  0.85679112768E+02  0.98954620319E+02  0.00000000000E+00 0.  1.
</event>
<event>
12    1  0.8251070E-002  0.1750333E+03  0.7818608E-02  0.1172852E+00
         21   -1    0    0  503  502  0.00000000000E+00  0.00000000000E+00  0.56474265442E+02  0.56474265442E+02  0.00000000000E+00 0. -1.
         21   -1    0    0  501  503 -0.00000000000E+00 -0.00000000000E+00 -0.73854379016E+03  0.73854379016E+03  0.00000000000E+00 0. -1.
          6    2    1    2  501    0 -0.28057989673E+02 -0.34258255153E+01 -0.54639398108E+03  0.57355813863E+03  0.17211498705E+03 0.  0.
         24    2    3    3    0    0 -0.67626555642E+02  0.32371892230E+02 -0.44688968281E+03  0.46055219462E+03  0.82320379800E+02 0.  0.
         -6    2    1    2    0  502  0.28057989673E+02  0.34258255153E+01 -0.13567554364E+03  0.22145991697E+03  0.17273579426E+03 0.  0.
        -24    2    5    5    0    0  0.48089487825E+00  0.22318452941E+02 -0.25244972095E+01  0.84096462247E+02  0.81040096710E+02 0.  0.
          5    1    3    3  501    0  0.39568565968E+02 -0.35797717746E+02 -0.99504298269E+02  0.11300594401E+03  0.47000000000E+01 0. -1.
        -11    1    4    4    0    0  0.11325303303E+02 -0.88327280893E+00 -0.93742572690E+01  0.14728182681E+02  0.00000000000E+00 0.  1.
         12    1    4    4    0    0 -0.78951858944E+02  0.33255165039E+02 -0.43751542554E+03  0.44582401194E+03  0.00000000000E+00 0. -1.
         -5    1    5    5    0  502  0.27577094795E+02 -0.18892627426E+02 -0.13315104643E+03  0.13736345473E+03  0.47000000000E+01 0.  1.
         13    1    6    6    0    0  0.30456247250E+02  0.39003097458E+02  0.18042183661E+01  0.49518479498E+02  0.00000000000E+00 0. -1.
        -14    1    6    6    0    0 -0.29975352372E+02 -0.16684644517E+02 -0.43287155756E+01  0.34577982749E+02  0.00000000000E+00 0.  1.
</event>
<event>
12    1  0.8251070E-002  0.2498111E+03  0.7818608E-02  0.1113432E+00
         21   -1    0    0  503  502  0.00000000000E+00  0.00000000000E+00  0.13124985453E+04  0.13124985453E+04  0.00000000000E+00 0. -1.
         21   -1    0    0  501  503 -0.00000000000E+00 -0.00000000000E+00 -0.88491422177E+02  0.88491422177E+02  0.00000000000E+00 0. -1.
          6    2    1    2  501    0  0.11669345472E+03  0.13847577715E+03  0.13542898641E+03  0.28411579117E+03  0.17201124730E+03 0.  0.
         24    2    3    3    0    0  0.12563338238E+03  0.11115271020E+03  0.16079941978E+03  0.24548651233E+03  0.79173875606E+02 0.  0.
         -6    2    1    2    0  502 -0.11669345472E+03 -0.13847577715E+03  0.10885781367E+04  0.11168741763E+04  0.17208330180E+03 0.  0.
        -24    2    5    5    0    0 -0.11331028313E+03 -0.92103697528E+02  0.10221044578E+04  0.10356174498E+04  0.80521228626E+02 0.  0.
          5    1    3    3  501    0 -0.89399276627E+01  0.27323066953E+02 -0.25370433370E+02  0.38629278840E+02  0.47000000000E+01 0. -1.
        -13    1    4    4    0    0 -0.55371706038E+01 -0.63890731115E+01  0.28931281579E+01  0.89359221157E+01  0.00000000000E+00 0.  1.
         14    1    4    4    0    0  0.13117055298E+03  0.11754178331E+03  0.15790629163E+03  0.23655059021E+03  0.00000000000E+00 0. -1.
         -5    1    5    5    0  502 -0.33831715864E+01 -0.46372079624E+02  0.66473678859E+02  0.81256726489E+02  0.47000000000E+01 0.  1.
         11    1    6    6    0    0  0.16049940054E+01 -0.34289591390E+00  0.22833177043E+03  0.22833766875E+03  0.00000000000E+00 0. -1.
        -12    1    6    6    0    0 -0.11491527714E+03 -0.91760801614E+02  0.79377268740E+03  0.80727978105E+03  0.00000000000E+00 0.  1.
</event>
<event>
12    1  0.8251070E-002  0.2554975E+03  0.7818608E-02  0.1109932E+00
         21   -1    0    0  503  502  0.00000000000E+00  0.00000000000E+00  0.21582057615E+03  0.21582057615E+03  0.00000000000E+00 0.  1.
         21   -1    0    0  501  503 -0.00000000000E+00 -0.00000000000E+00 -0.41396102217E+03  0.41396102217E+03  0.00000000000E+00 0.  1.
          6    2    1    2  501    0  0.24354800113E+02  0.18685071746E+03 -0.26283519168E+03  0.36655328916E+03  0.17254746855E+03 0.  0.
         24    2    3    3    0    0  0.73029646468E+02  0.16178173587E+03 -0.16850013972E+03  0.25737963605E+03  0.79657520936E+02 0.  0.
         -6    2    1    2    0  502 -0.24354800113E+02 -0.18685071746E+03  0.64694745667E+02  0.26322830915E+03  0.17203890757E+03 0.  0.
        -24    2    5    5    0    0 -0.44554445950E+02 -0.62660132882E+02 -0.19070389564E+02  0.11199995576E+03  0.79176508039E+02 0.  0.
          5    1    3    3  501    0 -0.48674846355E+02  0.25068981590E+02 -0.94335051963E+02  0.10917365312E+03  0.47000000000E+01 0. -1.
        -11    1    4    4    0    0 -0.39046079104E+01  0.30596807464E+02 -0.61070347837E+00  0.30850989428E+02  0.00000000000E+00 0.  1.
         12    1    4    4    0    0  0.76934254378E+02  0.13118492841E+03 -0.16788943624E+03  0.22652864662E+03  0.00000000000E+00 0. -1.
         -5    1    5    5    0  502  0.20199645837E+02 -0.12419058458E+03  0.83765135231E+02  0.15122835339E+03  0.47000000000E+01 0.  1.
         11    1    6    6    0    0 -0.45181081934E+02 -0.29612992448E+02  0.22817161499E+02  0.58641984493E+02  0.00000000000E+00 0. -1.
        -12    1    6    6    0    0  0.62663598402E+00 -0.33047140435E+02 -0.41887551063E+02  0.53357971266E+02  0.00000000000E+00 0.  1.
</event>
<event>
12    1  0.8251070E-002  0.1997746E+03  0.7818608E-02  0.1150085E+00
         21   -1    0    0  501  502  0.00000000000E+00  0.00000000000E+00  0.13611461524E+03  0.13611461524E+03  0.00000000000E+00 0.  1.
         21   -1    0    0  502  503 -0.00000000000E+00 -0.00000000000E+00 -0.71852012253E+03  0.71852012253E+03  0.00000000000E+00 0.  1.
         -6    2    1    2    0  503 -0.20619699476E+02  0.95433871126E+02 -0.62060266684E+03  0.65196437561E+03  0.17429022121E+03 0.  0.
        -24    2    3    3    0    0  0.16420114837E+02  0.12883952110E+02 -0.13834278489E+03  0.16126780877E+03  0.80205758018E+02 0.  0.
          6    2    1    2  501    0  0.20619699476E+02 -0.95433871126E+02  0.38197159560E+02  0.20267036216E+03  0.17344583286E+03 0.  0.
         24    2    5    5    0    0  0.11394148000E+02  0.14212273605E+02 -0.12245859584E+02  0.81534174194E+02  0.78524169240E+02 0.  0.
          5    1    5    5  501    0  0.92255514760E+01 -0.10964614473E+03  0.50443019144E+02  0.12113618797E+03  0.47000000000E+01 0. -1.
        -13    1    6    6    0    0  0.89272501932E+01 -0.29366804908E+02  0.10339293655E+02  0.32388362413E+02  0.00000000000E+00 0.  1.
         14    1    6    6    0    0  0.24668978069E+01  0.43579078513E+02 -0.22585153239E+02  0.49145811781E+02  0.00000000000E+00 0. -1.
         -5    1    3    3    0  503 -0.37039814313E+02  0.82549919016E+02 -0.48225988195E+03  0.49069656684E+03  0.47000000000E+01 0.  1.
         11    1    4    4    0    0  0.32178350850E+02  0.40073685837E+02 -0.88720138083E+02  0.10253101707E+03  0.00000000000E+00 0. -1.
        -12    1    4    4    0    0 -0.15758236013E+02 -0.27189733727E+02 -0.49622646810E+02  0.58736791697E+02  0.00000000000E+00 0.  1.
</event>
<event>
12    1  0.8251070E-002  0.1745834E+03  0.7818608E-02  0.1173772E+00
         21   -1    0    0  501  502  0.00000000000E+00  0.00000000000E+00  0.74129188224E+02  0.74129188224E+02  0.00000000000E+00 0.  1.
         21   -1    0    0  502  503 -0.00000000000E+00 -0.00000000000E+00 -0.43307822680E+03  0.43307822680E+03  0.00000000000E+00 0.  1.
         -6    2    1    2    0  503 -0.14407915850E+02 -0.18061747977E+02 -0.11420302160E+03  0.20657480019E+03  0.17057843695E+03 0.  0.
        -24    2    3    3    0    0  0.11951840725E+02 -0.53415995372E+02 -0.12760995744E+03  0.16024343388E+03  0.79984634802E+02 0.  0.
          6    2    1    2  501    0  0.14407915850E+02  0.18061747977E+02 -0.24474601698E+03  0.30063261484E+03  0.17304780120E+03 0.  0.
         24    2    5    5    0    0 -0.50537842589E+01  0.66836608026E+02 -0.98700118421E+02  0.14536111317E+03  0.83038948326E+02 0.  0.
          5    1    5    5  501    0  0.19461700109E+02 -0.48774860049E+02 -0.14604589856E+03  0.15527150166E+03  0.47000000000E+01 0. -1.
        -13    1    6    6    0    0  0.25034861176E+02  0.68450260310E+02 -0.85815891719E+02  0.11259018466E+03  0.00000000000E+00 0.  1.
         14    1    6    6    0    0 -0.30088645435E+02 -0.16136522846E+01 -0.12884226702E+02  0.32770928512E+02  0.00000000000E+00 0. -1.
         -5    1    3    3    0  503 -0.26359756575E+02  0.35354247395E+02  0.13406935841E+02  0.46331366311E+02  0.47000000000E+01 0.  1.
         13    1    4    4    0    0 -0.20258844355E+02 -0.59551373893E+02 -0.95462896832E+02  0.11432388892E+03  0.00000000000E+00 0. -1.
        -14    1    4    4    0    0  0.32210685080E+02  0.61353785213E+01 -0.32147060609E+02  0.45919544953E+02  0.00000000000E+00 0.  1.
</event>
<event>
12    1  0.8251070E-002  0.1740021E+03  0.7818608E-02  0.1174222E+00
         21   -1    0    0  503  502  0.00000000000E+00  0.00000000000E+00  0.90126525086E+02  0.90126525086E+02  0.00000000000E+00 0.  1.
         21   -1    0    0  501  503 -0.00000000000E+00 -0.00000000000E+00 -0.33289385797E+03  0.33289385797E+03  0.00000000000E+00 0.  1.
          6    2    1    2  501    0  0.22555538116E+02  0.95327618181E+01 -0.11289914649E+03  0.20741971034E+03  0.17227040695E+03 0.  0.
         24    2    3    3    0    0 -0.35264534652E+01 -0.59955635892E+02 -0.51651639389E+02  0.11107525109E+03  0.77863376522E+02 0.  0.
         -6    2    1    2    0  502 -0.22555538116E+02 -0.95327618181E+01 -0.12986818639E+03  0.21560067272E+03  0.17034752241E+03 0.  0.
        -24    2    5    5    0    0  0.78569147555E+01 -0.40895484045E+02 -0.14260392074E+02  0.91924524082E+02  0.80700604835E+02 0.  0.
          5    1    3    3  501    0  0.26081991581E+02  0.69488397711E+02 -0.61247507105E+02  0.96344459248E+02  0.47000000000E+01 0. -1.
        -13    1    4    4    0    0  0.14186622936E+02  0.14543111378E+02 -0.34922221475E+01  0.20614508832E+02  0.00000000000E+00 0.  1.
         14    1    4    4    0    0 -0.17713076401E+02 -0.74498747270E+02 -0.48159417241E+02  0.90460742255E+02  0.00000000000E+00 0. -1.
         -5    1    5    5    0  502 -0.30412452871E+02  0.31362722227E+02 -0.11560779431E+03  0.12367614863E+03  0.47000000000E+01 0.  1.
         13    1    6    6    0    0 -0.21416218234E+02 -0.11596330156E+02  0.24967948752E+02  0.34878757739E+02  0.00000000000E+00 0. -1.
        -14    1    6    6    0    0  0.29273132989E+02 -0.29299153889E+02 -0.39228340827E+02  0.57045766343E+02  0.00000000000E+00 0.  1.
</event>
<event>
12    1  0.8251070E-002  0.1845492E+03  0.7818608E-02  0.1163799E+00
         21   -1    0    0  503  502  0.00000000000E+00  0.00000000000E+00  0.91579123518E+03  0.91579123518E+03  0.00000000000E+00 0. -1.
         21   -1    0    0  501  503 -0.00000000000E+00 -0.00000000000E+00 -0.11714006087E+03  0.11714006087E+03  0.00000000000E+00 0. -1.
          6    2    1    2  501    0  0.16074518808E+02  0.63506612052E+02 -0.27619116670E+02  0.18660450314E+03  0.17253099738E+03 0.  0.
         24    2    3    3    0    0 -0.12151210487E+02  0.10604250993E+03 -0.28578352342E+02  0.13533068394E+03  0.78134537592E+02 0.  0.
         -6    2    1    2    0  502 -0.16074518808E+02 -0.63506612052E+02  0.82627029098E+03  0.84632679291E+03  0.17104083342E+03 0.  0.
        -24    2    5    5    0    0  0.29732320925E+02 -0.68078467278E+02  0.74499912637E+03  0.75280534817E+03  0.78571657339E+02 0.  0.
          5    1    3    3  501    0  0.28225729295E+02 -0.42535897877E+02  0.95923567136E+00  0.51273819201E+02  0.47000000000E+01 0. -1.
        -13    1    4    4    0    0  0.20868348896E+02  0.64869043027E+02  0.11439274899E+02  0.69096582688E+02  0.00000000000E+00 0.  1.
         14    1    4    4    0    0 -0.33019559384E+02  0.41173466901E+02 -0.40017627241E+02  0.66234101251E+02  0.00000000000E+00 0. -1.
         -5    1    5    5    0  502 -0.45806839733E+02  0.45718552261E+01  0.81271164619E+02  0.93521444734E+02  0.47000000000E+01 0.  1.
         11    1    6    6    0    0  0.38979861588E+02 -0.26224774545E+01  0.19726364209E+03  0.20109513045E+03  0.00000000000E+00 0. -1.
        -12    1    6    6    0    0 -0.92475406630E+01 -0.65455989824E+02  0.54773548427E+03  0.55171021773E+03  0.00000000000E+00 0.  1.
</event>
<event>
12    1  0.8251070E-002  0.2208031E+03  0.7818608E-02  0.1133375E+00
         21   -1    0    0  503  502  0.00000000000E+00  0.00000000000E+00  0.38271918197E+03  0.38271918197E+03  0.00000000000E+00 0. -1.
         21   -1    0    0  501  503 -0.00000000000E+00 -0.00000000000E+00 -0.65805877974E+03  0.65805877974E+03  0.00000000000E+00 0. -1.
          6    2    1    2  501    0 -0.13628736802E+03 -0.24315347306E+02 -0.60507568505E+03  0.64394059288E+03  0.17139842394E+03 0.  0.
         24    2    3    3    0    0 -0.15868379127E+02 -0.46193904148E+02 -0.18181435227E+03  0.20331416385E+03  0.76775701198E+02 0.  0.
         -6    2    1    2    0  502  0.13628736802E+03  0.24315347306E+02  0.32973608728E+03  0.39683736883E+03  0.17201316011E+03 0.  0.
        -24    2    5    5    0    0  0.20474798407E+02 -0.72170875370E+00  0.60499908007E+02  0.10264420833E+03  0.80348344112E+02 0.  0.
          5    1    3    3  501    0 -0.12041898889E+03  0.21878556841E+02 -0.42326133278E+03  0.44062642903E+03  0.47000000000E+01 0. -1.
        -11    1    4    4    0    0 -0.39303837023E+02 -0.30301743519E+01 -0.58141144199E+02  0.70245044025E+02  0.00000000000E+00 0.  1.
         12    1    4    4    0    0  0.23435457896E+02 -0.43163729796E+02 -0.12367320807E+03  0.13306911982E+03  0.00000000000E+00 0. -1.
         -5    1    5    5    0  502  0.11581256961E+03  0.25037056060E+02  0.26923617927E+03  0.29419316050E+03  0.47000000000E+01 0.  1.
         13    1    6    6    0    0  0.10864820278E+02 -0.17859793715E+02  0.75234335695E+02  0.78084709250E+02  0.00000000000E+00 0. -1.
        -14    1    6    6    0    0  0.96099781291E+01  0.17138084961E+02 -0.14734427688E+02  0.24559499080E+02  0.00000000000E+00 0.  1.
</event>
<event>
12    1  0.8251070E-002  0.1728673E+03  0.7818608E-02  0.1175135E+00
         21   -1    0    0  501  502  0.00000000000E+00  0.00000000000E+00  0.10553292420E+04  0.10553292420E+04  0.00000000000E+00 0.  1.
         21   -1    0    0  502  503 -0.00000000000E+00 -0.00000000000E+00 -0.50747484230E+02  0.50747484230E+02  0.00000000000E+00 0.  1.
         -6    2    1    2    0  503 -0.98841289979E-02 -0.55026174871E+00  0.13410193114E+03  0.21878398639E+03  0.17286642786E+03 0.  0.
        -24    2    3    3    0    0  0.43965821984E+02 -0.11274521243E+01  0.14637512165E+03  0.17288281994E+03  0.80799310267E+02 0.  0.
          6    2    1    2  501    0  0.98841289979E-02  0.55026174871E+00  0.87047982660E+03  0.88729273981E+03  0.17190978653E+03 0.  0.
         24    2    5    5    0    0 -0.13835385885E+02 -0.22025344420E+02  0.84781888925E+03  0.85212233211E+03  0.81480465258E+02 0.  0.
          5    1    5    5  501    0  0.13845270014E+02  0.22575606169E+02  0.22660937360E+02  0.35170407698E+02  0.47000000000E+01 0. -1.
        -13    1    6    6    0    0  0.11071002280E+02 -0.41112936088E+02  0.25971768772E+03  0.26318457006E+03  0.00000000000E+00 0.  1.
         14    1    6    6    0    0 -0.24906388165E+02  0.19087591667E+02  0.58810120153E+03  0.58893776205E+03  0.00000000000E+00 0. -1.
         -5    1    3    3    0  503 -0.43975706113E+02  0.57719037557E+00 -0.12273190514E+02  0.45901166459E+02  0.47000000000E+01 0.  1.
         13    1    4    4    0    0 -0.10916771062E+02 -0.15792311865E+02  0.92907659592E+02  0.94870470723E+02  0.00000000000E+00 0. -1.
        -14    1    4    4    0    0  0.54882593046E+02  0.14664859740E+02  0.53467462059E+02  0.78012349213E+02  0.00000000000E+00 0.  1.
</event>
<event>
12    1  0.8251070E-002  0.1981369E+03  0.7818608E-02  0.1153010E+00
         21   -1    0    0  501  502  0.00000000000E+00  0.00000000000E+00  0.48587257086E+03  0.48587257086E+03  0.00000000000E+00 0. -1.
         21   -1    0    0  502  503 -0.00000000000E+00 -0.00000000000E+00 -0.10056610967E+03  0.10056610967E+03  0.00000000000E+00 0. -1.
         -6    2    1    2    0  503  0.90301370730E+02 -0.45161178591E+01  0.32957090384E+03  0.38061184325E+03  0.16755196713E+03 0.  0.
        -24    2    3    3    0    0  0.17322010936E+02 -0.51513578226E+02  0.22469272635E+03  0.24439044130E+03  0.79285343649E+02 0.  0.
          6    2    1    2  501    0 -0.90301370730E+02  0.45161178591E+01  0.55735557346E+02  0.20582683727E+03  0.17630513808E+03 0.  0.
         24    2    5    5    0    0 -0.10717180444E+02 -0.13319245882E+02  0.85382369900E+02  0.11892018023E+03  0.80991357006E+02 0.  0.
          5    1    5    5  501    0 -0.79584190286E+02  0.17835363741E+02 -0.29646812554E+02  0.86906657040E+02  0.47000000000E+01 0. -1.
        -11    1    6    6    0    0 -0.43300849422E+02 -0.66660942548E+01  0.69281735908E+02  0.81971698187E+02  0.00000000000E+00 0.  1.
         12    1    6    6    0    0  0.32583668978E+02 -0.66531516267E+01  0.16100633992E+02  0.36948482047E+02  0.00000000000E+00 0. -1.
         -5    1    3    3    0  503  0.72979359794E+02  0.46997460367E+02  0.10487817749E+03  0.13622140195E+03  0.47000000000E+01 0.  1.
         11    1    4    4    0    0 -0.15138061192E+02  0.15288277688E+02  0.59469933368E+02  0.63242116554E+02  0.00000000000E+00 0. -1.
        -12    1    4    4    0    0  0.32460072128E+02 -0.66801855914E+02  0.16522279299E+03  0.18114832475E+03  0.00000000000E+00 0.  1.
</event>
<event>
12    1  0.8251070E-002  0.2430154E+03  0.7818608E-02  0.1118025E+00
         21   -1    0    0  503  502  0.00000000000E+00  0.00000000000E+00  0.19386756990E+03  0.19386756990E+03  0.00000000000E+00 0. -1.
         21   -1    0    0  501  503 -0.00000000000E+00 -0.00000000000E+00 -0.38560792142E+03  0.38560792142E+03  0.00000000000E+00 0. -1.
          6    2    1    2  501    0 -0.99511787305E+02 -0.13852327469E+03  0.38518782594E+02  0.24469833610E+03  0.17117910397E+03 0.  0.
         24    2    3    3    0    0 -0.11842954853E+03 -0.15223151085E+03  0.55237355206E+02  0.21558823307E+03  0.78912166145E+02 0.  0.
         -6    2    1    2    0  502  0.99511787305E+02  0.13852327469E+03 -0.23025913411E+03  0.33477715522E+03  0.17310453886E+03 0.  0.
        -24    2    5    5    0    0  0.78569444253E+02  0.15013571761E+03 -0.24340732832E+03  0.30705720620E+03  0.79517979900E+02 0.  0.
          5    1    3    3  501    0  0.18917761227E+02  0.13708236161E+02 -0.16718572611E+02  0.29110103034E+02  0.47000000000E+01 0. -1.
        -13    1    4    4    0    0  0.48746053982E+01 -0.43728646467E+02  0.83968484583E+01  0.44793563864E+02  0.00000000000E+00 0.  1.
         14    1    4    4    0    0 -0.12330415393E+03 -0.10850286439E+03  0.46840506747E+02  0.17079466920E+03  0.00000000000E+00 0. -1.
         -5    1    5    5    0  502  0.20942343052E+02 -0.11612442922E+02  0.13148194203E+02  0.27719949024E+02  0.47000000000E+01 0.  1.
         13    1    6    6    0    0  0.76940438747E+02  0.14691718127E+03 -0.18466750320E+03  0.24820672030E+03  0.00000000000E+00 0. -1.
        -14    1    6    6    0    0  0.16290055062E+01  0.32185363435E+01 -0.58739825120E+02  0.58850485896E+02  0.00000000000E+00 0.  1.
</event>
<event>
12    1  0.8251070E-002  0.2534961E+03  0.7818608E-02  0.1111216E+00
         21   -1    0    0  501  502  0.00000000000E+00  0.00000000000E+00  0.17287952733E+03  0.17287952733E+03  0.00000000000E+00 0.  1.
         21   -1    0    0  502  503 -0.00000000000E+00 -0.00000000000E+00 -0.46012624843E+03  0.46012624843E+03  0.00000000000E+00 0. -1.
         -6    2    1    2    0  503 -0.12927785887E+03  0.13333606312E+03 -0.28296312872E+03  0.37947345184E+03  0.17158291848E+03 0.  0.
        -24    2    3    3    0    0 -0.13065147430E+03  0.93928322102E+02 -0.28777660837E+03  0.33947199614E+03  0.80830207267E+02 0.  0.
          6    2    1    2  501    0  0.12927785887E+03 -0.13333606312E+03 -0.42835923762E+01  0.25353232392E+03  0.17253700932E+03 0.  0.
         24    2    5    5    0    0  0.54399141355E+02 -0.12993552905E+03  0.40062607150E+02  0.16631385465E+03  0.78821173982E+02 0.  0.
          5    1    5    5  501    0  0.74878717512E+02 -0.34005340692E+01 -0.44346199526E+02  0.87218469263E+02  0.47000000000E+01 0. -1.
        -13    1    6    6    0    0  0.45356215809E+02 -0.17900683504E+02  0.16452555091E+02  0.51461707622E+02  0.00000000000E+00 0.  1.
         14    1    6    6    0    0  0.90429255470E+01 -0.11203484555E+03  0.23610052059E+02  0.11485214703E+03  0.00000000000E+00 0. -1.
         -5    1    3    3    0  503  0.13736154351E+01  0.39407741021E+02  0.48134796536E+01  0.40001455700E+02  0.47000000000E+01 0.  1.
         11    1    4    4    0    0 -0.57939937728E+02  0.10752850386E+02 -0.49998282793E+02  0.77281876644E+02  0.00000000000E+00 0. -1.
        -12    1    4    4    0    0 -0.72711536575E+02  0.83175471716E+02 -0.23777832558E+03  0.26219011950E+03  0.00000000000E+00 0.  1.
</event>
<event>
12    1  0.8251070E-002  0.1975577E+03  0.7818608E-02  0.1153674E+00
         21   -1    0    0  501  502  0.00000000000E+00  0.00000000000E+00  0.51624392992E+03  0.51624392992E+03  0.00000000000E+00 0.  1.
         21   -1    0    0  502  503 -0.00000000000E+00 -0.00000000000E+00 -0.15739949086E+03  0.15739949086E+03  0.00000000000E+00 0.  1.
         -6    2    1    2    0  503 -0.70503486653E+02 -0.35994176646E+02 -0.66266832640E+02  0.20837546544E+03  0.18100474886E+03 0.  0.
        -24    2    3    3    0    0  0.15211786996E+02 -0.57671545324E+02  0.10869584147E+00  0.97719163180E+02  0.77405538781E+02 0.  0.
          6    2    1    2  501    0  0.70503486653E+02  0.35994176646E+02  0.42511127170E+03  0.46526795533E+03  0.17172173580E+03 0.  0.
         24    2    5    5    0    0  0.89646912081E+02 -0.25320863946E+02  0.24312228993E+03  0.27221852015E+03  0.79478046349E+02 0.  0.
          5    1    5    5  501    0 -0.19143425427E+02  0.61315040592E+02  0.18198898177E+03  0.19304943518E+03  0.47000000000E+01 0. -1.
        -11    1    6    6    0    0  0.40510173519E+02 -0.24533986737E+02  0.20394071281E+03  0.20936763123E+03  0.00000000000E+00 0.  1.
         12    1    6    6    0    0  0.49136738561E+02 -0.78687720974E+00  0.39181577125E+02  0.62850888921E+02  0.00000000000E+00 0. -1.
         -5    1    3    3    0  503 -0.85715273650E+02  0.21677368678E+02 -0.66375528482E+02  0.11065630226E+03  0.47000000000E+01 0.  1.
         13    1    4    4    0    0  0.33830440612E+02 -0.13970465498E+02  0.24771684790E+02  0.44196255334E+02  0.00000000000E+00 0. -1.
        -14    1    4    4    0    0 -0.18618653615E+02 -0.43701079826E+02 -0.24662988948E+02  0.53522907846E+02  0.00000000000E+00 0.  1.
</event>
<event>
12    1  0.8251070E-002  0.2436884E+03  0.7818608E-02  0.1117730E+00
         21   -1    0    0  503  502  0.00000000000E+00  0.00000000000E+00  0.33672322176E+03  0.33672322176E+03  0.00000000000E+00 0.  1.
         21   -1    0    0  501  503 -0.00000000000E+00 -0.00000000000E+00 -0.18591529232E+03  0.18591529232E+03  0.00000000000E+00 0.  1.
          6    2    1    2  501    0  0.48723400897E+02 -0.16297346166E+03  0.13916867904E+03  0.27867234285E+03  0.17133602786E+03 0.  0.
         24    2    3    3    0    0 -0.11343675421E+02 -0.73427529294E+02  0.12919469114E+03  0.17028369909E+03  0.82371044233E+02 0.  0.
         -6    2    1    2    0  502 -0.48723400897E+02  0.16297346166E+03  0.11639250398E+02  0.24396617123E+03  0.17449842852E+03 0.  0.
        -24    2    5    5    0    0 -0.62935427920E+02  0.79315062413E+02 -0.51969732601E+02  0.13781108565E+03  0.77712901171E+02 0.  0.
          5    1    3    3  501    0  0.60067076318E+02 -0.89545932367E+02  0.99739878965E+01  0.10838864376E+03  0.47000000000E+01 0. -1.
        -11    1    4    4    0    0  0.50844996018E+01 -0.88169691266E+02  0.96254748684E+02  0.13063201460E+03  0.00000000000E+00 0.  1.
         12    1    4    4    0    0 -0.16428175022E+02  0.14742161972E+02  0.32939942455E+02  0.39651684493E+02  0.00000000000E+00 0. -1.
         -5    1    5    5    0  502  0.14212027023E+02  0.83658399248E+02  0.63608983000E+02  0.10615508558E+03  0.47000000000E+01 0.  1.
         11    1    6    6    0    0 -0.54539327241E+02  0.25695224355E+02  0.32608121090E+01  0.60377277731E+02  0.00000000000E+00 0. -1.
        -12    1    6    6    0    0 -0.83961006794E+01  0.53619838059E+02 -0.55230544710E+02  0.77433807920E+02  0.00000000000E+00 0.  1.
</event>
<event>
12    1  0.8251070E-002  0.2176313E+03  0.7818608E-02  0.1135854E+00
         21   -1    0    0  501  502  0.00000000000E+00  0.00000000000E+00  0.13039966927E+04  0.13039966927E+04  0.00000000000E+00 0.  1.
         21   -1    0    0  502  503 -0.00000000000E+00 -0.00000000000E+00 -0.20090198200E+03  0.20090198200E+03  0.00000000000E+00 0.  1.
         -6    2    1    2    0  503 -0.29411165767E+02 -0.12807427833E+03 -0.12961280881E+03  0.25330389988E+03  0.17348010851E+03 0.  0.
        -24    2    3    3    0    0  0.49603688001E+02 -0.61851397428E+02 -0.56785603121E+02  0.12699194891E+03  0.81340206162E+02 0.  0.
          6    2    1    2  501    0  0.29411165767E+02  0.12807427833E+03  0.12327075196E+04  0.12515947749E+04  0.17220224806E+03 0.  0.
         24    2    5    5    0    0  0.82254392464E+00  0.19675397152E+02  0.81388807681E+03  0.81800575013E+03  0.79572657645E+02 0.  0.
          5    1    5    5  501    0  0.28588621843E+02  0.10839888118E+03  0.41881944275E+03  0.43358902473E+03  0.47000000000E+01 0. -1.
        -11    1    6    6    0    0  0.26771172392E+02 -0.17041330083E+02  0.20301982395E+03  0.20548516131E+03  0.00000000000E+00 0.  1.
         12    1    6    6    0    0 -0.25948628467E+02  0.36716727235E+02  0.61086825286E+03  0.61252058882E+03  0.00000000000E+00 0. -1.
         -5    1    3    3    0  503 -0.79014853769E+02 -0.66222880901E+02 -0.72827205689E+02  0.12631195098E+03  0.47000000000E+01 0.  1.
         13    1    4    4    0    0  0.31572942096E+02  0.14358479560E+02 -0.11575415080E+02  0.36565104159E+02  0.00000000000E+00 0. -1.
        -14    1    4    4    0    0  0.18030745905E+02 -0.76209876989E+02 -0.45210188041E+02  0.90426844749E+02  0.00000000000E+00 0.  1.
</event>
<event>
12    1  0.8251070E-002  0.2450288E+03  0.7818608E-02  0.1116508E+00
         21   -1    0    0  503  502  0.00000000000E+00  0.00000000000E+00  0.64928256069E+03  0.64928256069E+03  0.00000000000E+00 0. -1.
         21   -1    0    0  501  503 -0.00000000000E+00 -0.00000000000E+00 -0.94600419570E+02  0.94600419570E+02  0.00000000000E+00 0. -1.
          6    2    1    2  501    0 -0.20937250046E+02  0.17198969596E+03  0.22083124706E+03  0.32976279818E+03  0.17308448640E+03 0.  0.
         24    2    3    3    0    0 -0.50297041209E+02  0.35286848149E+02  0.11448207523E+03  0.15403032456E+03  0.82729930063E+02 0.  0.
         -6    2    1    2    0  502  0.20937250046E+02 -0.17198969596E+03  0.33385089406E+03  0.41412018207E+03  0.17326361933E+03 0.  0.
        -24    2    5    5    0    0 -0.20179097528E+02 -0.80606686078E+02  0.27414310306E+03  0.29737893470E+03  0.79844574209E+02 0.  0.
          5    1    3    3  501    0  0.29359791163E+02  0.13670284781E+03  0.10634917183E+03  0.17573247362E+03  0.47000000000E+01 0. -1.
        -13    1    4    4    0    0 -0.79544906512E+01 -0.13741974108E+02  0.78168075181E+02  0.79764426604E+02  0.00000000000E+00 0.  1.
         14    1    4    4    0    0 -0.42342550558E+02  0.49028822256E+02  0.36314000047E+02  0.74265897954E+02  0.00000000000E+00 0. -1.
         -5    1    5    5    0  502  0.41116347574E+02 -0.91383009882E+02  0.59707790999E+02  0.11674124738E+03  0.47000000000E+01 0.  1.
         13    1    6    6    0    0  0.29041026419E+02 -0.41855184472E+02  0.98409361616E+02  0.11081353769E+03  0.00000000000E+00 0. -1.
        -14    1    6    6    0    0 -0.49220123947E+02 -0.38751501606E+02  0.17573374144E+03  0.18656539701E+03  0.00000000000E+00 0.  1.
</event>
<event>
12    1  0.8251070E-002  0.2239127E+03  0.7818608E-02  0.1131211E+00
         21   -1    0    0  501  502  0.00000000000E+00  0.00000000000E+00  0.13226519206E+03  0.13226519206E+03  0.00000000000E+00 0.  1.
         21   -1    0    0  502  503 -0.00000000000E+00 -0.00000000000E+00 -0.11888267198E+04  0.11888267198E+04  0.00000000000E+00 0.  1.
         -6    2    1    2    0  503  0.13745102346E+03  0.34266916562E+02 -0.10736632629E+04  0.10965270917E+04  0.17190653031E+03 0.  0.
        -24    2    3    3    0    0  0.24166145737E+02  0.54798095508E-02 -0.29823631742E+03  0.31210606480E+03  0.88776641207E+02 0.  0.
          6    2    1    2  501    0 -0.13745102346E+03 -0.34266916562E+02  0.17101735168E+02  0.22456482022E+03  0.17340670031E+03 0.  0.
         24    2    5    5    0    0 -0.12999348832E+03  0.25268979666E+02 -0.51032568929E+01  0.16041429845E+03  0.90387364044E+02 0.  0.
          5    1    5    5  501    0 -0.74575351429E+01 -0.59535896229E+02  0.22204992060E+02  0.64150521764E+02  0.47000000000E+01 0. -1.
        -13    1    6    6    0    0 -0.83314894066E+02 -0.26690644168E+02 -0.18175678843E+02  0.89353888336E+02  0.00000000000E+00 0.  1.
         14    1    6    6    0    0 -0.46678594251E+02  0.51959623835E+02  0.13072421950E+02  0.71060410117E+02  0.00000000000E+00 0. -1.
         -5    1    3    3    0  503  0.11328487772E+03  0.34261436753E+02 -0.77542694552E+03  0.78442102687E+03  0.47000000000E+01 0.  1.
         11    1    4    4    0    0  0.48981689176E+02  0.32535911896E+01 -0.91287412304E+02  0.10364932887E+03  0.00000000000E+00 0. -1.
        -12    1    4    4    0    0 -0.24815543439E+02 -0.32481113801E+01 -0.20694890512E+03  0.20845673592E+03  0.00000000000E+00 0.  1.
</event>
<event>
12    1  0.8251070E-002  0.1849401E+03  0.7818608E-02  0.1163401E+00
         21   -1    0    0  501  502  0.00000000000E+00  0.00000000000E+00  0.27976724025E+03  0.27976724025E+03  0.00000000000E+00 0. -1.
         21   -1    0    0  502  503 -0.00000000000E+00 -0.00000000000E+00 -0.20188385652E+03  0.20188385652E+03  0.00000000000E+00 0. -1.
         -6    2    1    2    0  503  0.50304218490E+02 -0.46443675785E+02 -0.11317252078E+03  0.21574662359E+03  0.17044370541E+03 0.  0.
        -24    2    3    3    0    0  0.10088678830E+03 -0.31298300091E+02 -0.91054889983E+02  0.15830745259E+03  0.74916813281E+02 0.  0.
          6    2    1    2  501    0 -0.50304218490E+02  0.46443675785E+02  0.19105590451E+03  0.26590447318E+03  0.17180017693E+03 0.  0.
         24    2    5    5    0    0  0.11412416039E+02  0.81184127357E+02  0.12433597007E+03  0.16849050291E+03  0.78794100942E+02 0.  0.
          5    1    5    5  501    0 -0.61716634529E+02 -0.34740451572E+02  0.66719934441E+02  0.97413970276E+02  0.47000000000E+01 0. -1.
        -13    1    6    6    0    0  0.35786370637E+02  0.10702698466E+02  0.56160482972E+02  0.67447845966E+02  0.00000000000E+00 0.  1.
         14    1    6    6    0    0 -0.24373954598E+02  0.70481428891E+02  0.68175487096E+02  0.10104265694E+03  0.00000000000E+00 0. -1.
         -5    1    3    3    0  503 -0.50582569814E+02 -0.15145375694E+02 -0.22117630796E+02  0.57439171006E+02  0.47000000000E+01 0.  1.
         13    1    4    4    0    0  0.41990229527E+02  0.23345433705E+02 -0.44307565859E+02  0.65355558623E+02  0.00000000000E+00 0. -1.
        -14    1    4    4    0    0  0.58896558777E+02 -0.54643733796E+02 -0.46747324125E+02  0.92951893965E+02  0.00000000000E+00 0.  1.
</event>
<event>
12    1  0.8251070E-002  0.2069977E+03  0.7818608E-02  0.1145667E+00
         21   -1    0    0  501  502  0.00000000000E+00  0.00000000000E+00  0.46985150185E+03  0.46985150185E+03  0.00000000000E+00 0. -1.
         21   -1    0    0  502  503 -0.00000000000E+00 -0.00000000000E+00 -0.91382644751E+02  0.91382644751E+02  0.00000000000E+00 0.  1.
         -6    2    1    2    0  503 -0.76768250077E+02 -0.85055157655E+02  0.13581208437E+03  0.24757416496E+03  0.17239576802E+03 0.  0.
        -24    2    3    3    0    0 -0.30360284167E+02 -0.70678688403E+02  0.80506021511E+01  0.11080622827E+03  0.79347238004E+02 0.  0.
          6    2    1    2  501    0  0.76768250077E+02  0.85055157655E+02  0.24265677273E+03  0.31365998164E+03  0.16239621507E+03 0.  0.
         24    2    5    5    0    0  0.84289830233E+02  0.84469680618E+01  0.10858673515E+03  0.15899177594E+03  0.79442929286E+02 0.  0.
          5    1    5    5  501    0 -0.75215801559E+01  0.76608189593E+02  0.13407003758E+03  0.15466820571E+03  0.47000000000E+01 0. -1.
        -13    1    6    6    0    0  0.44330322492E+01 -0.51340130640E+01 -0.11964502902E+02  0.13753515724E+02  0.00000000000E+00 0.  1.
         14    1    6    6    0    0  0.79856797984E+02  0.13580981126E+02  0.12055123806E+03  0.14523826021E+03  0.00000000000E+00 0. -1.
         -5    1    3    3    0  503 -0.46407965910E+02 -0.14376469252E+02  0.12776148222E+03  0.13676793669E+03  0.47000000000E+01 0.  1.
         13    1    4    4    0    0  0.19854784350E+02 -0.18409078139E+02 -0.19390856385E+02  0.33303332129E+02  0.00000000000E+00 0. -1.
        -14    1    4    4    0    0 -0.50215068517E+02 -0.52269610264E+02  0.27441458536E+02  0.77502896139E+02  0.00000000000E+00 0.  1.
</event>
<event>
12    1  0.8251070E-002  0.2066417E+03  0.7818608E-02  0.1144271E+00
         21   -1    0    0  503  502  0.00000000000E+00  0.00000000000E+00  0.13470964057E+03  0.13470964057E+03  0.00000000000E+00 0. -1.
         21   -1    0    0  501  503 -0.00000000000E+00 -0.00000000000E+00 -0.44103543301E+03  0.44103543301E+03  0.00000000000E+00 0. -1.
          6    2    1    2  501    0 -0.10576342493E+03 -0.44816973369E+02 -0.30594160644E+03  0.36918972799E+03  0.17177405378E+03 0.  0.
         24    2    3    3    0    0 -0.19573860228E+02 -0.38878477881E+02 -0.59182297802E+02  0.10770138563E+03  0.78755139817E+02 0.  0.
         -6    2    1    2    0  502  0.10576342493E+03  0.44816973369E+02 -0.38418600023E+00  0.20655534558E+03  0.17166974117E+03 0.  0.
        -24    2    5    5    0    0  0.81521392857E+02 -0.25786749449E+02  0.38898716415E+02  0.12206985442E+03  0.77956688481E+02 0.  0.
          5    1    3    3  501    0 -0.86189564704E+02 -0.59384954881E+01 -0.24675930864E+03  0.26148834236E+03  0.47000000000E+01 0. -1.
        -13    1    4    4    0    0  0.35263574085E+01 -0.25306649399E+02 -0.73152043403E+02  0.77486019090E+02  0.00000000000E+00 0.  1.
         14    1    4    4    0    0 -0.23100217636E+02 -0.13571828482E+02  0.13969745601E+02  0.30215366543E+02  0.00000000000E+00 0. -1.
         -5    1    5    5    0  502  0.24242032075E+02  0.70603722818E+02 -0.39282902415E+02  0.84485491163E+02  0.47000000000E+01 0.  1.
         13    1    6    6    0    0  0.57753246504E+02  0.11750346760E+02 -0.55829677683E+01  0.59200318072E+02  0.00000000000E+00 0. -1.
        -14    1    6    6    0    0  0.23768146353E+02 -0.37537096209E+02  0.44481684183E+02  0.62869536348E+02  0.00000000000E+00 0.  1.
</event>
<event>
12    1  0.8251070E-002  0.4210658E+03  0.7818608E-02  0.1036868E+00
         21   -1    0    0  501  502  0.00000000000E+00  0.00000000000E+00  0.12660055013E+04  0.12660055013E+04  0.00000000000E+00 0.  1.
         21   -1    0    0  502  503 -0.00000000000E+00 -0.00000000000E+00 -0.13948326943E+03  0.13948326943E+03  0.00000000000E+00 0. -1.
         -6    2    1    2    0  503 -0.27838767931E+03 -0.26166098240E+03  0.55182554433E+03  0.69412377795E+03  0.17700344077E+03 0.  0.
        -24    2    3    3    0    0 -0.13352629843E+03 -0.13540718364E+03  0.19904546417E+03  0.29237669790E+03  0.98491923102E+02 0.  0.
          6    2    1    2  501    0  0.27838767931E+03  0.26166098240E+03  0.57469668758E+03  0.71136499281E+03  0.17262010476E+03 0.  0.
         24    2    5    5    0    0  0.22454999836E+03  0.21091615720E+03  0.54544113634E+03  0.63166862869E+03  0.81184334252E+02 0.  0.
          5    1    5    5  501    0  0.53837680949E+02  0.50744825202E+02  0.29255551246E+02  0.79696364117E+02  0.47000000000E+01 0. -1.
        -13    1    6    6    0    0  0.13212396560E+02 -0.52161740057E+01  0.12285172472E+02  0.18780344959E+02  0.00000000000E+00 0.  1.
         14    1    6    6    0    0  0.21133760180E+03  0.21613233121E+03  0.53315596386E+03  0.61288828373E+03  0.00000000000E+00 0. -1.
         -5    1    3    3    0  503 -0.14486138088E+03 -0.12625379876E+03  0.35278008016E+03  0.40174708005E+03  0.47000000000E+01 0.  1.
         13    1    4    4    0    0 -0.13783897738E+03 -0.13720014288E+03  0.20644607094E+03  0.28362553323E+03  0.00000000000E+00 0. -1.
        -14    1    4    4    0    0  0.43126789479E+01  0.17929592353E+01 -0.74006067760E+01  0.87511646756E+01  0.00000000000E+00 0.  1.
</event>
<event>
12    1  0.8251070E-002  0.2363207E+03  0.7818608E-02  0.1122361E+00
         21   -1    0    0  503  502  0.00000000000E+00  0.00000000000E+00  0.11259554478E+03  0.11259554478E+03  0.00000000000E+00 0.  1.
         21   -1    0    0  501  503 -0.00000000000E+00 -0.00000000000E+00 -0.56331605723E+03  0.56331605723E+03  0.00000000000E+00 0. -1.
          6    2    1    2  501    0  0.85018087005E+02  0.13798016403E+03 -0.10777473331E+03  0.25973611987E+03  0.17199086615E+03 0.  0.
         24    2    3    3    0    0  0.10809480810E+03  0.11279653574E+03 -0.34143393401E+02  0.17843166484E+03  0.79148857800E+02 0.  0.
         -6    2    1    2    0  502 -0.85018087005E+02 -0.13798016403E+03 -0.34294577914E+03  0.41617548214E+03  0.17124141942E+03 0.  0.
        -24    2    5    5    0    0 -0.52726325126E+01 -0.12600661966E+03 -0.17628179222E+03  0.23096836076E+03  0.79784989509E+02 0.  0.
          5    1    3    3  501    0 -0.23076721099E+02  0.25183628297E+02 -0.73631339907E+02  0.81304455028E+02  0.47000000000E+01 0. -1.
        -13    1    4    4    0    0  0.84099586526E+02  0.11183560541E+03 -0.41244825723E+01  0.13998912261E+03  0.00000000000E+00 0.  1.
         14    1    4    4    0    0  0.23995221577E+02  0.96093032040E+00 -0.30018910829E+02  0.38442542229E+02  0.00000000000E+00 0. -1.
         -5    1    5    5    0  502 -0.79745454492E+02 -0.11973544369E+02 -0.16666398691E+03  0.18520712138E+03  0.47000000000E+01 0.  1.
         13    1    6    6    0    0  0.97953725422E+01 -0.67865351013E+02 -0.34013549953E+02  0.76541340280E+02  0.00000000000E+00 0. -1.
        -14    1    6    6    0    0 -0.15068005055E+02 -0.58141268651E+02 -0.14226824227E+03  0.15442702048E+03  0.00000000000E+00 0.  1.
</event>
<event>
12    1  0.8251070E-002  0.1846907E+03  0.7818608E-02  0.1163562E+00
         21   -1    0    0  501  502  0.00000000000E+00  0.00000000000E+00  0.33717091267E+03  0.33717091267E+03  0.00000000000E+00 0. -1.
         21   -1    0    0  502  503 -0.00000000000E+00 -0.00000000000E+00 -0.14705684043E+03  0.14705684043E+03  0.00000000000E+00 0. -1.
         -6    2    1    2    0  503 -0.67099656485E+02 -0.17643887397E+02 -0.41124122468E+02  0.18828558181E+03  0.17013699247E+03 0.  0.
        -24    2    3    3    0    0  0.65907472412E+01 -0.92679350918E+01  0.29739710654E+02  0.85600602273E+02  0.79458669443E+02 0.  0.
          6    2    1    2  501    0  0.67099656485E+02  0.17643887397E+02  0.23123819471E+03  0.29594217128E+03  0.17116365089E+03 0.  0.
         24    2    5    5    0    0  0.52687943866E+02 -0.22705924441E+02  0.23309058855E+03  0.25279908216E+03  0.79275311652E+02 0.  0.
          5    1    5    5  501    0  0.14411712619E+02  0.40349811838E+02 -0.18523938375E+01  0.43143089121E+02  0.47000000000E+01 0. -1.
        -11    1    6    6    0    0  0.45739222379E+02  0.69948993551E+01  0.53925851526E+02  0.71056333593E+02  0.00000000000E+00 0.  1.
         12    1    6    6    0    0  0.69487214875E+01 -0.29700823796E+02  0.17916473703E+03  0.18174274857E+03  0.00000000000E+00 0. -1.
         -5    1    3    3    0  503 -0.73690403726E+02 -0.83759523051E+01 -0.70863833121E+02  0.10268497954E+03  0.47000000000E+01 0.  1.
         13    1    4    4    0    0  0.15537082058E+01 -0.41648831532E+02  0.32302298118E+02  0.52730234599E+02  0.00000000000E+00 0. -1.
        -14    1    4    4    0    0  0.50370390354E+01  0.32380896440E+02 -0.25625874647E+01  0.32870367674E+02  0.00000000000E+00 0.  1.
</event>
<event>
12    1  0.8251070E-002  0.2180126E+03  0.7818608E-02  0.1135451E+00
         21   -1    0    0  501  502  0.00000000000E+00  0.00000000000E+00  0.11497222940E+03  0.11497222940E+03  0.00000000000E+00 0. -1.
         21   -1    0    0  502  503 -0.00000000000E+00 -0.00000000000E+00 -0.46624474299E+03  0.46624474299E+03  0.00000000000E+00 0. -1.
         -6    2    1    2    0  503 -0.13097219244E+03 -0.28266167176E+02 -0.77229825300E+02  0.23128755792E+03  0.17197906016E+03 0.  0.
        -24    2    3    3    0    0 -0.14419357576E+03  0.16111394163E+02 -0.37509750810E+02  0.17009975485E+03  0.80470994033E+02 0.  0.
          6    2    1    2  501    0  0.13097219244E+03  0.28266167176E+02 -0.27404268828E+03  0.34992941447E+03  0.17145993325E+03 0.  0.
         24    2    5    5    0    0  0.97189690330E+02 -0.33662859833E+02 -0.93881958580E+02  0.15639275034E+03  0.71174757979E+02 0.  0.
          5    1    5    5  501    0  0.33782502110E+02  0.61929027009E+02 -0.18016072971E+03  0.19353666413E+03  0.47000000000E+01 0. -1.
        -11    1    6    6    0    0  0.59705417555E+02 -0.55611521484E+02 -0.63343554046E+02  0.10329464675E+03  0.00000000000E+00 0.  1.
         12    1    6    6    0    0  0.37484272775E+02  0.21948661651E+02 -0.30538404534E+02  0.53098103594E+02  0.00000000000E+00 0. -1.
         -5    1    3    3    0  503  0.13221383322E+02 -0.44377561340E+02 -0.39720074489E+02  0.61187803073E+02  0.47000000000E+01 0.  1.
         13    1    4    4    0    0 -0.10872817805E+03 -0.89092490938E+01  0.51871467748E+01  0.10921583179E+03  0.00000000000E+00 0. -1.
        -14    1    4    4    0    0 -0.35465397713E+02  0.25020643257E+02 -0.42696897585E+02  0.60883923061E+02  0.00000000000E+00 0.  1.
</event>
<event>
12    1  0.8251070E-002  0.2235147E+03  0.7818608E-02  0.1131469E+00
         21   -1    0    0  501  502  0.00000000000E+00  0.00000000000E+00  0.14753400658E+04  0.14753400658E+04  0.00000000000E+00 0. -1.
         21   -1    0    0  502  503 -0.00000000000E+00 -0.00000000000E+00 -0.47394199291E+02  0.47394199291E+02  0.00000000000E+00 0. -1.
         -6    2    1    2    0  503  0.11125977642E+03 -0.87413934269E+02  0.30604268440E+03  0.37897355957E+03  0.17302861157E+03 0.  0.
        -24    2    3    3    0    0  0.11506116589E+03 -0.10047661099E+03  0.31465991724E+03  0.36219766058E+03  0.94030104528E+02 0.  0.
          6    2    1    2  501    0 -0.11125977642E+03  0.87413934269E+02  0.11219031821E+04  0.11437607055E+04  0.17176107744E+03 0.  0.
         24    2    5    5    0    0 -0.95914206777E+02  0.50077136997E+02  0.42932280784E+03  0.44998899396E+03  0.80403772588E+02 0.  0.
          5    1    5    5  501    0 -0.15345569641E+02  0.37336797272E+02  0.69258037429E+03  0.69377171158E+03  0.47000000000E+01 0. -1.
        -13    1    6    6    0    0 -0.91041124086E+02  0.70865692178E+01  0.27901257454E+03  0.29357575255E+03  0.00000000000E+00 0.  1.
         14    1    6    6    0    0 -0.48730826909E+01  0.42990567780E+02  0.15031023330E+03  0.15641324141E+03  0.00000000000E+00 0. -1.
         -5    1    3    3    0  503 -0.38013894724E+01  0.13062676725E+02 -0.86172328372E+01  0.16775898990E+02  0.47000000000E+01 0.  1.
         11    1    4    4    0    0  0.42682281188E+02 -0.80131638756E+02  0.10156692401E+03  0.13623030760E+03  0.00000000000E+00 0. -1.
        -12    1    4    4    0    0  0.72378884703E+02 -0.20344972238E+02  0.21309299323E+03  0.22596735297E+03  0.00000000000E+00 0.  1.
</event>
<event>
12    1  0.8251070E-002  0.1929821E+03  0.7818608E-02  0.1157158E+00
         21   -1    0    0  503  502  0.00000000000E+00  0.00000000000E+00  0.65191100183E+02  0.65191100183E+02  0.00000000000E+00 0. -1.
         21   -1    0    0  501  503 -0.00000000000E+00 -0.00000000000E+00 -0.83586624637E+03  0.83586624637E+03  0.00000000000E+00 0.  1.
          6    2    1    2  501    0  0.64726618137E+02 -0.34885548937E+02 -0.64310144099E+03  0.66971961018E+03  0.17186726341E+03 0.  0.
         24    2    3    3    0    0  0.10020592750E+03 -0.55986938074E+02 -0.55490241367E+03  0.57222495168E+03  0.79680245237E+02 0.  0.
         -6    2    1    2    0  502 -0.64726618137E+02  0.34885548937E+02 -0.12757370519E+03  0.23133773637E+03  0.17842522634E+03 0.  0.
        -24    2    5    5    0    0 -0.94183284927E+02  0.46667471706E+02 -0.49270890064E+02  0.14672136810E+03  0.89728452424E+02 0.  0.
          5    1    3    3  501    0 -0.35479309360E+02  0.21101389138E+02 -0.88199027319E+02  0.97494658501E+02  0.47000000000E+01 0. -1.
        -11    1    4    4    0    0  0.12280527666E+02  0.67489562990E+01 -0.11316589596E+02  0.18011800881E+02  0.00000000000E+00 0.  1.
         12    1    4    4    0    0  0.87925399832E+02 -0.62735894373E+02 -0.54358582408E+03  0.55421315080E+03  0.00000000000E+00 0. -1.
         -5    1    5    5    0  502  0.29456666790E+02 -0.11781922770E+02 -0.78302815127E+02  0.84616368271E+02  0.47000000000E+01 0.  1.
         11    1    6    6    0    0 -0.21346340901E+02  0.60417341653E+02 -0.22972874619E+02  0.68071098203E+02  0.00000000000E+00 0. -1.
        -12    1    6    6    0    0 -0.72836944026E+02 -0.13749869947E+02 -0.26298015445E+02  0.78650269898E+02  0.00000000000E+00 0.  1.
</event>
<event>
12    1  0.8251070E-002  0.2303965E+03  0.7818608E-02  0.1126691E+00
         21   -1    0    0  501  502  0.00000000000E+00  0.00000000000E+00  0.54114435659E+02  0.54114435659E+02  0.00000000000E+00 0. -1.
         21   -1    0    0  502  503 -0.00000000000E+00 -0.00000000000E+00 -0.11895350626E+04  0.11895350626E+04  0.00000000000E+00 0.  1.
         -6    2    1    2    0  503  0.14879815673E+03  0.16790305804E+02 -0.83113448948E+03  0.86197868857E+03  0.17262651633E+03 0.  0.
        -24    2    3    3    0    0  0.99648790479E+02  0.77884654090E+02 -0.56390568024E+03  0.58344411965E+03  0.80134410626E+02 0.  0.
          6    2    1    2  501    0 -0.14879815673E+03 -0.16790305804E+02 -0.30428613744E+03  0.38167080966E+03  0.17509925098E+03 0.  0.
         24    2    5    5    0    0 -0.70100970285E+02  0.10362380677E+02 -0.58731065294E+02  0.12234495481E+03  0.80606606237E+02 0.  0.
          5    1    5    5  501    0 -0.78697186449E+02 -0.27152686481E+02 -0.24555507215E+03  0.25932585485E+03  0.47000000000E+01 0. -1.
        -13    1    6    6    0    0  0.33841911167E+01 -0.20349387151E+02  0.39369339259E+01  0.21001184625E+02  0.00000000000E+00 0.  1.
         14    1    6    6    0    0 -0.73485161401E+02  0.30711767828E+02 -0.62667999220E+02  0.10134377019E+03  0.00000000000E+00 0. -1.
         -5    1    3    3    0  503  0.49149366254E+02 -0.61094348286E+02 -0.26722880924E+03  0.27853456892E+03  0.47000000000E+01 0.  1.
         11    1    4    4    0    0  0.19034495660E+02  0.54787672292E+02 -0.32773026854E+03  0.33282297093E+03  0.00000000000E+00 0. -1.
        -12    1    4    4    0    0  0.80614294819E+02  0.23096981798E+02 -0.23617541170E+03  0.25062114872E+03  0.00000000000E+00 0.  1.
</event>
<event>
12    1  0.8251070E-002  0.2255479E+03  0.7818608E-02  0.1130140E+00
         21   -1    0    0  501  502  0.00000000000E+00  0.00000000000E+00  0.35671786750E+03  0.35671786750E+03  0.00000000000E+00 0.  1.
         21   -1    0    0  502  503 -0.00000000000E+00 -0.00000000000E+00 -0.20900438278E+03  0.20900438278E+03  0.00000000000E+00 0.  1.
         -6    2    1    2    0  503 -0.13098860794E+02  0.14326875495E+03 -0.86726295423E+02  0.24164704204E+03  0.17370758853E+03 0.  0.
        -24    2    3    3    0    0 -0.50903237823E+02  0.62451124660E+02  0.53895848647E+01  0.11331900267E+03  0.79503875060E+02 0.  0.
          6    2    1    2  501    0  0.13098860794E+02 -0.14326875495E+03  0.23443978014E+03  0.32407520824E+03  0.17136281331E+03 0.  0.
         24    2    5    5    0    0 -0.53431451579E+02 -0.50234277323E+02  0.10918672115E+03  0.15439281293E+03  0.80851703586E+02 0.  0.
          5    1    5    5  501    0  0.66530312374E+02 -0.93034477625E+02  0.12525305899E+03  0.16968239531E+03  0.47000000000E+01 0. -1.
        -11    1    6    6    0    0 -0.16137143194E+02 -0.66141824034E+02  0.60942532365E+02  0.91373631470E+02  0.00000000000E+00 0.  1.
         12    1    6    6    0    0 -0.37294308385E+02  0.15907546711E+02  0.48244188782E+02  0.63019181457E+02  0.00000000000E+00 0. -1.
         -5    1    3    3    0  503  0.37804377029E+02  0.80817630287E+02 -0.92115880287E+02  0.12832803937E+03  0.47000000000E+01 0.  1.
         11    1    4    4    0    0 -0.18775792954E+02 -0.60163824578E+01  0.28122969026E+02  0.34345722380E+02  0.00000000000E+00 0. -1.
        -12    1    4    4    0    0 -0.32127444869E+02  0.68467507118E+02 -0.22733384162E+02  0.78973280293E+02  0.00000000000E+00 0.  1.
</event>
<event>
12    1  0.8251070E-002  0.2124106E+03  0.7818608E-02  0.1139708E+00
         21   -1    0    0  501  502  0.00000000000E+00  0.00000000000E+00  0.64563090816E+03  0.64563090816E+03  0.00000000000E+00 0.  1.
         21   -1    0    0  502  503 -0.00000000000E+00 -0.00000000000E+00 -0.31747200884E+03  0.31747200884E+03  0.00000000000E+00 0.  1.
         -6    2    1    2    0  503 -0.11456777224E+03 -0.49075261104E+02 -0.26125070246E+03  0.33658721284E+03  0.17176980706E+03 0.  0.
        -24    2    3    3    0    0 -0.55851951363E+02 -0.80230234021E+02 -0.22782151221E+03  0.26203668823E+03  0.84877874787E+02 0.  0.
          6    2    1    2  501    0  0.11456777224E+03  0.49075261104E+02  0.58940960179E+03  0.62651570417E+03  0.17200027094E+03 0.  0.
         24    2    5    5    0    0  0.11393415426E+03  0.64607538512E+02  0.59072205325E+03  0.61022258777E+03  0.79145037048E+02 0.  0.
          5    1    5    5  501    0  0.63361797991E+00 -0.15532277407E+02 -0.13124514603E+01  0.16293116401E+02  0.47000000000E+01 0. -1.
        -13    1    6    6    0    0  0.57706596027E+02 -0.23767040878E+01  0.14650125037E+03  0.15747481166E+03  0.00000000000E+00 0.  1.
         14    1    6    6    0    0  0.56227558233E+02  0.66984242599E+02  0.44422080288E+03  0.45274777611E+03  0.00000000000E+00 0. -1.
         -5    1    3    3    0  503 -0.58715820877E+02  0.31154972917E+02 -0.33429190253E+02  0.74550524611E+02  0.47000000000E+01 0.  1.
         13    1    4    4    0    0 -0.29465713635E+01 -0.10286507968E+02  0.60294525881E+01  0.12282053065E+02  0.00000000000E+00 0. -1.
        -14    1    4    4    0    0 -0.52905380000E+02 -0.69943726053E+02 -0.23385096480E+03  0.24975463516E+03  0.00000000000E+00 0.  1.
</event>
<event>
12    1  0.8251070E-002  0.1830031E+03  0.7818608E-02  0.1165143E+00
         21   -1    0    0  501  502  0.00000000000E+00  0.00000000000E+00  0.13470881661E+03  0.13470881661E+03  0.00000000000E+00 0.  1.
         21   -1    0    0  502  503 -0.00000000000E+00 -0.00000000000E+00 -0.37787656846E+03  0.37787656846E+03  0.00000000000E+00 0.  1.
         -6    2    1    2    0  503  0.61611627119E+02 -0.13885623511E+02 -0.27239217885E+03  0.32815793586E+03  0.17175950813E+03 0.  0.
        -24    2    3    3    0    0  0.69769185006E+02  0.44940877613E+02 -0.11959814337E+03  0.16416034361E+03  0.75878065736E+02 0.  0.
          6    2    1    2  501    0 -0.61611627119E+02  0.13885623511E+02  0.29224427001E+02  0.18442744920E+03  0.17079406825E+03 0.  0.
         24    2    5    5    0    0 -0.96905164408E+01 -0.41453604177E+02  0.53029833040E+02  0.10475926727E+03  0.79687097317E+02 0.  0.
          5    1    5    5  501    0 -0.51921110679E+02  0.55339227688E+02 -0.23805406040E+02  0.79668181929E+02  0.47000000000E+01 0. -1.
        -11    1    6    6    0    0  0.97492728187E+01 -0.67091233147E+01  0.62684778362E+02  0.63792178944E+02  0.00000000000E+00 0.  1.
         12    1    6    6    0    0 -0.19439789260E+02 -0.34744480863E+02 -0.96549453214E+01  0.40967088328E+02  0.00000000000E+00 0. -1.
         -5    1    3    3    0  503 -0.81575578867E+01 -0.58826501124E+02 -0.15279403548E+03  0.16399759225E+03  0.47000000000E+01 0.  1.
         13    1    4    4    0    0  0.84813360418E+02  0.32384084159E+02 -0.84831404052E+02  0.12425136670E+03  0.00000000000E+00 0. -1.
        -14    1    4    4    0    0 -0.15044175412E+02  0.12556793454E+02 -0.34766739315E+02  0.39908976914E+02  0.00000000000E+00 0.  1.
</event>
<event>
12    1  0.8251070E-002  0.2544316E+03  0.7818608E-02  0.1111853E+00
         21   -1    0    0  501  502  0.00000000000E+00  0.00000000000E+00  0.87692380472E+02  0.87692380472E+02  0.00000000000E+00 0. -1.
         21   -1    0    0  502  503 -0.00000000000E+00 -0.00000000000E+00 -0.13925174563E+04  0.13925174563E+04  0.00000000000E+00 0.  1.
         -6    2    1    2    0  503 -0.14842519942E+03  0.91702956607E+02 -0.11633586712E+04  0.11890944026E+04  0.17350109050E+03 0.  0.
        -24    2    3    3    0    0 -0.36374157876E+02  0.78012843450E+02 -0.79858002532E+03  0.80721954668E+03  0.80400600699E+02 0.  0.
          6    2    1    2  501    0  0.14842519942E+03 -0.91702956607E+02 -0.14146640465E+03  0.29111543418E+03  0.18519173929E+03 0.  0.
         24    2    5    5    0    0  0.16285655736E+03 -0.92270486611E+02 -0.16592928104E+03  0.26232118990E+03  0.79017589134E+02 0.  0.
          5    1    5    5  501    0 -0.14431357940E+02  0.56753000384E+00  0.24462876388E+02  0.28794244277E+02  0.47000000000E+01 0. -1.
        -13    1    6    6    0    0  0.93499506438E+02 -0.95584400428E+02 -0.11126120163E+03  0.17394709051E+03  0.00000000000E+00 0.  1.
         14    1    6    6    0    0  0.69357050919E+02  0.33139138177E+01 -0.54668079408E+02  0.88374099390E+02  0.00000000000E+00 0. -1.
         -5    1    3    3    0  503 -0.11205104154E+03  0.13690113157E+02 -0.36477864587E+03  0.38187485593E+03  0.47000000000E+01 0.  1.
         11    1    4    4    0    0 -0.88803252441E+00  0.58074948635E+02 -0.23129539459E+03  0.23847651418E+03  0.00000000000E+00 0. -1.
        -12    1    4    4    0    0 -0.35486125351E+02  0.19937894815E+02 -0.56728463073E+03  0.56874303249E+03  0.00000000000E+00 0.  1.
</event>
<event>
12    1  0.8251070E-002  0.2053215E+03  0.7818608E-02  0.1145346E+00
         21   -1    0    0  503  502  0.00000000000E+00  0.00000000000E+00  0.12281078958E+04  0.12281078958E+04  0.00000000000E+00 0. -1.
         21   -1    0    0  501  503 -0.00000000000E+00 -0.00000000000E+00 -0.37401382761E+02  0.37401382761E+02  0.00000000000E+00 0.  1.
          6    2    1    2  501    0  0.93543156604E+02  0.54478030306E+02  0.77714283672E+03  0.80378228232E+03  0.17434675441E+03 0.  0.
         24    2    3    3    0    0  0.24585349294E+02 -0.35968247901E+02  0.40345453966E+03  0.41314083317E+03  0.77534690347E+02 0.  0.
         -6    2    1    2    0  502 -0.93543156604E+02 -0.54478030306E+02  0.41356367631E+03  0.46172699624E+03  0.17446697898E+03 0.  0.
        -24    2    5    5    0    0 -0.34874141567E+02  0.90997526691E+01  0.33050008565E+03  0.34170267409E+03  0.78939214680E+02 0.  0.
          5    1    3    3  501    0  0.68957807310E+02  0.90446278207E+02  0.37368829706E+03  0.39064144914E+03  0.47000000000E+01 0. -1.
        -13    1    4    4    0    0 -0.13694349327E+02 -0.31074295656E+02  0.73832113542E+02  0.81267016951E+02  0.00000000000E+00 0.  1.
         14    1    4    4    0    0  0.38279698621E+02 -0.48939522447E+01  0.32962242611E+03  0.33187381622E+03  0.00000000000E+00 0. -1.
         -5    1    5    5    0  502 -0.58669015037E+02 -0.63577782975E+02  0.83063590659E+02  0.12002432215E+03  0.47000000000E+01 0.  1.
         11    1    6    6    0    0 -0.24394520461E+01  0.13300499750E+02  0.28680312213E+03  0.28712172520E+03  0.00000000000E+00 0. -1.
        -12    1    6    6    0    0 -0.32434689521E+02 -0.42007470809E+01  0.43696963530E+02  0.54580948893E+02  0.00000000000E+00 0.  1.
</event>
<event>
12    1  0.8251070E-002  0.2916798E+03  0.7818608E-02  0.1089551E+00
         21   -1    0    0  501  502  0.00000000000E+00  0.00000000000E+00  0.68445185874E+03  0.68445185874E+03  0.00000000000E+00 0.  1.
         21   -1    0    0  502  503 -0.00000000000E+00 -0.00000000000E+00 -0.25346814532E+03  0.25346814532E+03  0.00000000000E+00 0. -1.
         -6    2    1    2    0  503 -0.13291610983E+03 -0.19469770010E+03  0.55048289717E+03  0.62271030783E+03  0.17077125263E+03 0.  0.
        -24    2    3    3    0    0 -0.41293721814E+02 -0.11869390155E+03  0.17963368580E+03  0.23319462528E+03  0.79486215525E+02 0.  0.
          6    2    1    2  501    0  0.13291610983E+03  0.19469770010E+03 -0.11949918375E+03  0.31520969623E+03  0.17176498772E+03 0.  0.
         24    2    5    5    0    0  0.93285434781E+02  0.13729264008E+03 -0.88282968222E+01  0.18430489672E+03  0.79617301952E+02 0.  0.
          5    1    5    5  501    0  0.39630675044E+02  0.57405060023E+02 -0.11067088693E+03  0.13090479951E+03  0.47000000000E+01 0. -1.
        -11    1    6    6    0    0  0.14641602926E+02  0.90833071325E+02  0.38568732777E+01  0.92086366276E+02  0.00000000000E+00 0.  1.
         12    1    6    6    0    0  0.78643831855E+02  0.46459568753E+02 -0.12685170100E+02  0.92218530448E+02  0.00000000000E+00 0. -1.
         -5    1    3    3    0  503 -0.91622388012E+02 -0.76003798547E+02  0.37084921137E+03  0.38951568255E+03  0.47000000000E+01 0.  1.
         11    1    4    4    0    0 -0.56522375939E+01 -0.24629327773E+02 -0.22278418632E+01  0.25367594599E+02  0.00000000000E+00 0. -1.
        -12    1    4    4    0    0 -0.35641484220E+02 -0.94064573780E+02  0.18186152766E+03  0.20782703068E+03  0.00000000000E+00 0.  1.
</event>
<event>
12    1  0.8251070E-002  0.2146235E+03  0.7818608E-02  0.1138127E+00
         21   -1    0    0  501  502  0.00000000000E+00  0.00000000000E+00  0.16484966456E+03  0.16484966456E+03  0.00000000000E+00 0. -1.
         21   -1    0    0  502  503 -0.00000000000E+00 -0.00000000000E+00 -0.28112363957E+03  0.28112363957E+03  0.00000000000E+00 0.  1.
         -6    2    1    2    0  503  0.80412873441E+02  0.96717180390E+02 -0.80721262705E+02  0.22930143639E+03  0.17390452347E+03 0.  0.
        -24    2    3    3    0    0  0.38670455895E+01  0.62722546327E+02 -0.10124584082E+03  0.14294029228E+03  0.78943872544E+02 0.  0.
          6    2    1    2  501    0 -0.80412873441E+02 -0.96717180390E+02 -0.35552712303E+02  0.21667186774E+03  0.17280700136E+03 0.  0.
         24    2    5    5    0    0 -0.28820239352E+02 -0.12678054460E+03 -0.13885631532E+02  0.15297604253E+03  0.79403690987E+02 0.  0.
          5    1    5    5  501    0 -0.51592634089E+02  0.30063364205E+02 -0.21667080771E+02  0.63695825206E+02  0.47000000000E+01 0. -1.
        -13    1    6    6    0    0  0.92856451432E+01 -0.33169087650E+01 -0.21384429896E+02  0.23548225654E+02  0.00000000000E+00 0.  1.
         14    1    6    6    0    0 -0.38105884495E+02 -0.12346363583E+03  0.74987983643E+01  0.12942781688E+03  0.00000000000E+00 0. -1.
         -5    1    3    3    0  503  0.76545827852E+02  0.33994634063E+02  0.20524578120E+02  0.86361144119E+02  0.47000000000E+01 0.  1.
         13    1    4    4    0    0  0.23765638162E+02 -0.71631399118E+01 -0.11196449979E+02  0.27230068358E+02  0.00000000000E+00 0. -1.
        -14    1    4    4    0    0 -0.19898592573E+02  0.69885686238E+02 -0.90049390845E+02  0.11571022392E+03  0.00000000000E+00 0.  1.
</event>
<event>
12    1  0.8251070E-002  0.1781009E+03  0.7818608E-02  0.1169798E+00
         21   -1    0    0  503  502  0.00000000000E+00  0.00000000000E+00  0.41898578301E+03  0.41898578301E+03  0.00000000000E+00 0. -1.
         21   -1    0    0  501  503 -0.00000000000E+00 -0.00000000000E+00 -0.45944214014E+03  0.45944214014E+03  0.00000000000E+00 0. -1.
          6    2    1    2  501    0  0.43264928346E+02 -0.12911272644E+02 -0.42175264138E+03  0.45758736115E+03  0.17167512222E+03 0.  0.
         24    2    3    3    0    0  0.24173949991E+02 -0.71636449926E+02 -0.32464958650E+03  0.34241703004E+03  0.78332034522E+02 0.  0.
         -6    2    1    2    0  502 -0.43264928346E+02  0.12911272644E+02  0.38129628425E+03  0.42084056200E+03  0.17228281184E+03 0.  0.
        -24    2    5    5    0    0 -0.90355653745E+02  0.82899405440E+01  0.32750473237E+03  0.34904561662E+03  0.79628044534E+02 0.  0.
          5    1    3    3  501    0  0.19090978355E+02  0.58725177282E+02 -0.97103054884E+02  0.11517033112E+03  0.47000000000E+01 0. -1.
        -13    1    4    4    0    0  0.10156051625E+02 -0.74146676713E+02 -0.15448997557E+03  0.17166253990E+03  0.00000000000E+00 0.  1.
         14    1    4    4    0    0  0.14017898366E+02  0.25102267874E+01 -0.17015961093E+03  0.17075449014E+03  0.00000000000E+00 0. -1.
         -5    1    5    5    0  502  0.47090725399E+02  0.46213321000E+01  0.53791551880E+02  0.71794945384E+02  0.47000000000E+01 0.  1.
         13    1    6    6    0    0 -0.43752093959E+02 -0.35315047152E+02  0.13515223658E+03  0.14638143781E+03  0.00000000000E+00 0. -1.
        -14    1    6    6    0    0 -0.46603559786E+02  0.43604987696E+02  0.19235249579E+03  0.20266417881E+03  0.00000000000E+00 0.  1.
</event>
<event>
12    1  0.8251070E-002  0.2422804E+03  0.7818608E-02  0.1118306E+00
         21   -1    0    0  501  502  0.00000000000E+00  0.00000000000E+00  0.34470858057E+03  0.34470858057E+03  0.00000000000E+00 0.  1.
         21   -1    0    0  502  503 -0.00000000000E+00 -0.00000000000E+00 -0.36555232493E+03  0.36555232493E+03  0.00000000000E+00 0.  1.
         -6    2    1    2    0  503 -0.49533235196E+02  0.16240090498E+03 -0.27003897751E+03  0.36270077446E+03  0.17263605385E+03 0.  0.
        -24    2    3    3    0    0 -0.77501813380E+02  0.44055250138E+02 -0.11719458388E+03  0.16732566333E+03  0.79472705846E+02 0.  0.
          6    2    1    2  501    0  0.49533235196E+02 -0.16240090498E+03  0.24919523315E+03  0.34756013104E+03  0.17283571719E+03 0.  0.
         24    2    5    5    0    0  0.10723149284E+01 -0.13030887717E+03  0.89037515853E+02  0.17711675789E+03  0.80381051047E+02 0.  0.
          5    1    5    5  501    0  0.48460920268E+02 -0.32092027816E+02  0.16015771730E+03  0.17044337316E+03  0.47000000000E+01 0. -1.
        -13    1    6    6    0    0  0.12001869644E+02 -0.70262502868E+02  0.91556138825E+02  0.11603185227E+03  0.00000000000E+00 0.  1.
         14    1    6    6    0    0 -0.10929554715E+02 -0.60046374300E+02 -0.25186229726E+01  0.61084905619E+02  0.00000000000E+00 0. -1.
         -5    1    3    3    0  503  0.27968578184E+02  0.11834565485E+03 -0.15284439363E+03  0.19537511113E+03  0.47000000000E+01 0.  1.
         13    1    4    4    0    0  0.36039492061E+01 -0.89546782230E+01  0.54029444175E+01  0.11061940171E+02  0.00000000000E+00 0. -1.
        -14    1    4    4    0    0 -0.81105762586E+02  0.53009928361E+02 -0.12259752830E+03  0.15626372316E+03  0.00000000000E+00 0.  1.
</event>
<event>
12    1  0.8251070E-002  0.1972313E+03  0.7818608E-02  0.1152246E+00
         21   -1    0    0  501  502  0.00000000000E+00  0.00000000000E+00  0.10688641448E+04  0.10688641448E+04  0.00000000000E+00 0. -1.
         21   -1    0    0  502  503 -0.00000000000E+00 -0.00000000000E+00 -0.40488984321E+02  0.40488984321E+02  0.00000000000E+00 0. -1.
         -6    2    1    2    0  503  0.20608469345E+02 -0.93171491106E+02  0.69415636179E+03  0.72163235285E+03  0.17261101444E+03 0.  0.
        -24    2    3    3    0    0  0.34447967435E+02 -0.12135913890E+03  0.65123249753E+03  0.66824112400E+03  0.80794374257E+02 0.  0.
          6    2    1    2  501    0 -0.20608469345E+02  0.93171491106E+02  0.33421879871E+03  0.38772077629E+03  0.17181256994E+03 0.  0.
         24    2    5    5    0    0 -0.29285145363E+02 -0.41354203002E+01  0.22445176039E+03  0.24070100750E+03  0.81753659411E+02 0.  0.
          5    1    5    5  501    0  0.86766760172E+01  0.97306911407E+02  0.10976703832E+03  0.14701976879E+03  0.47000000000E+01 0. -1.
        -13    1    6    6    0    0  0.17882045758E+02  0.16008007010E+02  0.13886106427E+03  0.14091990285E+03  0.00000000000E+00 0.  1.
         14    1    6    6    0    0 -0.47167191121E+02 -0.20143427310E+02  0.85590696120E+02  0.99781104646E+02  0.00000000000E+00 0. -1.
         -5    1    3    3    0  503 -0.13839498090E+02  0.28187647790E+02  0.42923864253E+02  0.53391228846E+02  0.47000000000E+01 0.  1.
         13    1    4    4    0    0 -0.75360266683E+01 -0.38033921095E+02  0.36797421972E+03  0.37001134743E+03  0.00000000000E+00 0. -1.
        -14    1    4    4    0    0  0.41983994103E+02 -0.83325217801E+02  0.28325827782E+03  0.29822977657E+03  0.00000000000E+00 0.  1.
</event>
<event>
12    1  0.8251070E-002  0.1763338E+03  0.7818608E-02  0.1171671E+00
         21   -1    0    0  503  502  0.00000000000E+00  0.00000000000E+00  0.27654439575E+02  0.27654439575E+02  0.00000000000E+00 0. -1.
         21   -1    0    0  501  503 -0.00000000000E+00 -0.00000000000E+00 -0.13825348746E+04  0.13825348746E+04  0.00000000000E+00 0. -1.
          6    2    1    2  501    0  0.36172410209E+02  0.14825188254E+02 -0.98450843690E+03  0.99998322367E+03  0.17082551281E+03 0.  0.
         24    2    3    3    0    0 -0.98059300522E+01 -0.49581727557E+02 -0.59181524414E+03  0.59936833101E+03  0.80265864818E+02 0.  0.
         -6    2    1    2    0  502 -0.36172410209E+02 -0.14825188254E+02 -0.37037199814E+03  0.41020609052E+03  0.17194589331E+03 0.  0.
        -24    2    5    5    0    0  0.14115349895E+02 -0.37825330678E+02 -0.33188527049E+03  0.34266955542E+03  0.75130504468E+02 0.  0.
          5    1    3    3  501    0  0.45978340261E+02  0.64406915811E+02 -0.39269319276E+03  0.40061489266E+03  0.47000000000E+01 0. -1.
        -13    1    4    4    0    0  0.16287574353E+02 -0.62166956223E+02 -0.45529581635E+03  0.45980897763E+03  0.00000000000E+00 0.  1.
         14    1    4    4    0    0 -0.26093504405E+02  0.12585228666E+02 -0.13651942779E+03  0.13955935338E+03  0.00000000000E+00 0. -1.
         -5    1    5    5    0  502 -0.50287760104E+02  0.23000142424E+02 -0.38486727652E+02  0.67536535099E+02  0.47000000000E+01 0.  1.
         11    1    6    6    0    0 -0.12073236131E+02 -0.43723596997E+02 -0.10741408037E+03  0.11659888776E+03  0.00000000000E+00 0. -1.
        -12    1    6    6    0    0  0.26188586026E+02  0.58982663186E+01 -0.22447119012E+03  0.22607066766E+03  0.00000000000E+00 0.  1.
</event>
<event>
12    1  0.8251070E-002  0.2191501E+03  0.7818608E-02  0.1134581E+00
         21   -1    0    0  501  502  0.00000000000E+00  0.00000000000E+00  0.20457404249E+02  0.20457404249E+02  0.00000000000E+00 0. -1.
         21   -1    0    0  502  503 -0.00000000000E+00 -0.00000000000E+00 -0.23871579386E+04  0.23871579386E+04  0.00000000000E+00 0.  1.
         -6    2    1    2    0  503 -0.11104139606E+03 -0.76881883496E+02 -0.13441724147E+04  0.13618665631E+04  0.17216282888E+03 0.  0.
        -24    2    3    3    0    0 -0.80798464758E+02 -0.11378358134E+03 -0.11846212791E+04  0.11952681685E+04  0.76572348752E+02 0.  0.
          6    2    1    2  501    0  0.11104139606E+03  0.76881883496E+02 -0.10225281196E+04  0.10457487797E+04  0.17258545473E+03 0.  0.
         24    2    5    5    0    0  0.56200696008E+02  0.20791705616E+01 -0.26879193496E+03  0.28631262418E+03  0.81012179850E+02 0.  0.
          5    1    5    5  501    0  0.54840700049E+02  0.74802712935E+02 -0.75373618468E+03  0.75943615554E+03  0.47000000000E+01 0. -1.
        -13    1    6    6    0    0  0.44690673554E+02 -0.19471093243E+02 -0.25198857436E+03  0.25666051777E+03  0.00000000000E+00 0.  1.
         14    1    6    6    0    0  0.11510022454E+02  0.21550263804E+02 -0.16803360593E+02  0.29652106404E+02  0.00000000000E+00 0. -1.
         -5    1    3    3    0  503 -0.30242931299E+02  0.36901697840E+02 -0.15955113562E+03  0.16659839457E+03  0.47000000000E+01 0.  1.
         11    1    4    4    0    0 -0.93802606585E+02 -0.83542235741E+02 -0.89194111575E+03  0.90074257594E+03  0.00000000000E+00 0. -1.
        -12    1    4    4    0    0  0.13004141828E+02 -0.30241345596E+02 -0.29268016334E+03  0.29452559261E+03  0.00000000000E+00 0.  1.
</event>
<event>
12    1  0.8251070E-002  0.2215918E+03  0.7818608E-02  0.1132951E+00
         21   -1    0    0  501  502  0.00000000000E+00  0.00000000000E+00  0.19366092722E+03  0.19366092722E+03  0.00000000000E+00 0.  1.
         21   -1    0    0  502  503 -0.00000000000E+00 -0.00000000000E+00 -0.28964736107E+03  0.28964736107E+03  0.00000000000E+00 0.  1.
         -6    2    1    2    0  503 -0.10322710117E+03 -0.90710457431E+02 -0.13496751653E+03  0.25831396487E+03  0.17212104005E+03 0.  0.
        -24    2    3    3    0    0  0.14105012770E+02 -0.52304372598E+02 -0.66626397926E+02  0.11712455024E+03  0.79651645242E+02 0.  0.
          6    2    1    2  501    0  0.10322710117E+03  0.90710457431E+02  0.38981082679E+02  0.22499432341E+03  0.17383526471E+03 0.  0.
         24    2    5    5    0    0  0.25112879190E+02  0.11373648600E+03  0.22983035593E+02  0.14186756973E+03  0.77663005788E+02 0.  0.
          5    1    5    5  501    0  0.78114221977E+02 -0.23026028565E+02  0.15998047087E+02  0.83126753678E+02  0.47000000000E+01 0. -1.
        -11    1    6    6    0    0  0.34186519923E+02  0.12257959032E+03  0.22143459086E+02  0.12916968254E+03  0.00000000000E+00 0.  1.
         12    1    6    6    0    0 -0.90736407329E+01 -0.88431043267E+01  0.83957650622E+00  0.12697887186E+02  0.00000000000E+00 0. -1.
         -5    1    3    3    0  503 -0.11733211394E+03 -0.38406084833E+02 -0.68341118605E+02  0.14118941464E+03  0.47000000000E+01 0.  1.
         11    1    4    4    0    0 -0.80591512780E+01  0.57842005270E+00  0.15196186565E+02  0.17210711060E+02  0.00000000000E+00 0. -1.
        -12    1    4    4    0    0  0.22164164049E+02 -0.52882792651E+02 -0.81822584491E+02  0.99913839178E+02  0.00000000000E+00 0.  1.
</event>
<event>
12    1  0.8251070E-002  0.1773810E+03  0.7818608E-02  0.1170389E+00
         21   -1    0    0  501  502  0.00000000000E+00  0.00000000000E+00  0.84462970988E+03  0.84462970988E+03  0.00000000000E+00 0. -1.
         21   -1    0    0  502  503 -0.00000000000E+00 -0.00000000000E+00 -0.41671945241E+02  0.41671945241E+02  0.00000000000E+00 0. -1.
         -6    2    1    2    0  503  0.30441912063E+02 -0.32647840502E+02  0.25688733220E+03  0.31217804340E+03  0.17167247256E+03 0.  0.
        -24    2    3    3    0    0 -0.13800536752E+02  0.42025623239E+02  0.13002164179E+03  0.15839080769E+03  0.78901285181E+02 0.  0.
          6    2    1    2  501    0 -0.30441912063E+02  0.32647840502E+02  0.54607043244E+03  0.57412361172E+03  0.17155877376E+03 0.  0.
         24    2    5    5    0    0 -0.13720845183E+02  0.38389624363E+01  0.53152754999E+03  0.53747486055E+03  0.78451832954E+02 0.  0.
          5    1    5    5  501    0 -0.16721066880E+02  0.28808878066E+02  0.14542882451E+02  0.36648751179E+02  0.47000000000E+01 0. -1.
        -11    1    6    6    0    0 -0.22679361253E+02 -0.23321940099E+02  0.10348050464E+03  0.10847341221E+03  0.00000000000E+00 0.  1.
         12    1    6    6    0    0  0.89585160698E+01  0.27160902535E+02  0.42804704535E+03  0.42900144833E+03  0.00000000000E+00 0. -1.
         -5    1    3    3    0  503  0.44242448815E+02 -0.74673463741E+02  0.12686569041E+03  0.15378723571E+03  0.47000000000E+01 0.  1.
         13    1    4    4    0    0  0.33220872000E+01 -0.20928953111E+02  0.14362392714E+02  0.25599524725E+02  0.00000000000E+00 0. -1.
        -14    1    4    4    0    0 -0.17122623952E+02  0.62954576350E+02  0.11565924907E+03  0.13279128296E+03  0.00000000000E+00 0.  1.
</event>
<event>
12    1  0.8251070E-002  0.2233120E+03  0.7818608E-02  0.1131742E+00
         21   -1    0    0  503  502  0.00000000000E+00  0.00000000000E+00  0.18268720898E+03  0.18268720898E+03  0.00000000000E+00 0. -1.
         21   -1    0    0  501  503 -0.00000000000E+00 -0.00000000000E+00 -0.28971773270E+03  0.28971773270E+03  0.00000000000E+00 0. -1.
          6    2    1    2  501    0  0.11517354969E+03 -0.84267415242E+02  0.67913897077E+01  0.22175846133E+03  0.16960173460E+03 0.  0.
         24    2    3    3    0    0  0.14008346778E+03 -0.95357716470E+02 -0.14044386381E+02  0.18712151046E+03  0.78107252233E+02 0.  0.
         -6    2    1    2    0  502 -0.11517354969E+03  0.84267415242E+02 -0.11382191343E+03  0.25064648035E+03  0.17176229597E+03 0.  0.
        -24    2    5    5    0    0 -0.12179802293E+03  0.69437894577E+02 -0.14381110172E+03  0.21621916935E+03  0.80079439447E+02 0.  0.
          5    1    3    3  501    0 -0.24909918090E+02  0.11090301228E+02  0.20835776088E+02  0.34636950873E+02  0.47000000000E+01 0. -1.
        -13    1    4    4    0    0  0.78468756687E+01 -0.42458622016E+02  0.48487479546E+01  0.43449032187E+02  0.00000000000E+00 0.  1.
         14    1    4    4    0    0  0.13223659211E+03 -0.52899094454E+02 -0.18893134335E+02  0.14367247827E+03  0.00000000000E+00 0. -1.
         -5    1    5    5    0  502  0.66244732348E+01  0.14829520665E+02  0.29989188290E+02  0.34427311006E+02  0.47000000000E+01 0.  1.
         11    1    6    6    0    0 -0.34829229812E+02  0.61874065354E+02 -0.43619536828E+02  0.83331501882E+02  0.00000000000E+00 0. -1.
        -12    1    6    6    0    0 -0.86968793114E+02  0.75638292231E+01 -0.10019156489E+03  0.13288766746E+03  0.00000000000E+00 0.  1.
</event>
<event>
12    1  0.8251070E-002  0.2972441E+03  0.7818608E-02  0.1086665E+00
         21   -1    0    0  501  502  0.00000000000E+00  0.00000000000E+00  0.10418898090E+03  0.10418898090E+03  0.00000000000E+00 0. -1.
         21   -1    0    0  502  503 -0.00000000000E+00 -0.00000000000E+00 -0.13700594347E+04  0.13700594347E+04  0.00000000000E+00 0.  1.
         -6    2    1    2    0  503  0.14451545397E+03  0.19540066920E+03 -0.10881274784E+04  0.11279153051E+04  0.17060301382E+03 0.  0.
        -24    2    3    3    0    0  0.10363718747E+03  0.10712428498E+03 -0.90615622797E+03  0.92151913591E+03  0.76564543365E+02 0.  0.
          6    2    1    2  501    0 -0.14451545397E+03 -0.19540066920E+03 -0.17774297543E+03  0.34633311050E+03  0.17113713846E+03 0.  0.
         24    2    5    5    0    0 -0.49809147069E+02 -0.31540060952E+02 -0.10037126780E+03  0.14181402914E+03  0.81000622740E+02 0.  0.
          5    1    5    5  501    0 -0.94706306898E+02 -0.16386060825E+03 -0.77371707629E+02  0.20451908136E+03  0.47000000000E+01 0. -1.
        -11    1    6    6    0    0  0.20786556084E+02 -0.12507534498E+02 -0.40951737956E+02  0.47597942967E+02  0.00000000000E+00 0.  1.
         12    1    6    6    0    0 -0.70595703152E+02 -0.19032526454E+02 -0.59419529844E+02  0.94216086173E+02  0.00000000000E+00 0. -1.
         -5    1    3    3    0  503  0.40878266498E+02  0.88276384219E+02 -0.18197125042E+03  0.20639616920E+03  0.47000000000E+01 0.  1.
         13    1    4    4    0    0  0.39289080604E+02  0.66815762066E+02 -0.27184673410E+03  0.28268113619E+03  0.00000000000E+00 0. -1.
        -14    1    4    4    0    0  0.64348106864E+02  0.40308522913E+02 -0.63430949387E+03  0.63883799972E+03  0.00000000000E+00 0.  1.
</event>
<event>
12    1  0.8251070E-002  0.1844215E+03  0.7818608E-02  0.1163780E+00
         21   -1    0    0  503  502  0.00000000000E+00  0.00000000000E+00  0.10139007028E+04  0.10139007028E+04  0.00000000000E+00 0.  1.
         21   -1    0    0  501  503 -0.00000000000E+00 -0.00000000000E+00 -0.78575733185E+02  0.78575733185E+02  0.00000000000E+00 0.  1.
          6    2    1    2  501    0 -0.19200064610E+02 -0.58104903182E+02  0.53910580214E+02  0.19213961389E+03  0.17397257919E+03 0.  0.
         24    2    3    3    0    0 -0.60386363948E+02 -0.80986408350E+02  0.63898647629E+02  0.14374823013E+03  0.79844882159E+02 0.  0.
         -6    2    1    2    0  502  0.19200064610E+02  0.58104903182E+02  0.88141438945E+03  0.90033682214E+03  0.17311916452E+03 0.  0.
        -24    2    5    5    0    0  0.14767524763E+02  0.95788387643E+02  0.45007112389E+03  0.46730241802E+03  0.80087691524E+02 0.  0.
          5    1    3    3  501    0  0.41186299338E+02  0.22881505168E+02 -0.99880674157E+01  0.48391383764E+02  0.47000000000E+01 0. -1.
        -13    1    4    4    0    0 -0.34926475201E+02 -0.36825647681E+02 -0.12157503755E+02  0.52189959711E+02  0.00000000000E+00 0.  1.
         14    1    4    4    0    0 -0.25459888746E+02 -0.44160760669E+02  0.76056151384E+02  0.91558270414E+02  0.00000000000E+00 0. -1.
         -5    1    5    5    0  502  0.44325398468E+01 -0.37683484460E+02  0.43134326556E+03  0.43303440412E+03  0.47000000000E+01 0.  1.
         13    1    6    6    0    0  0.25607634505E+02  0.22649401002E+01  0.49061186029E+02  0.55388454331E+02  0.00000000000E+00 0. -1.
        -14    1    6    6    0    0 -0.10840109741E+02  0.93523447542E+02  0.40100993786E+03  0.41191396369E+03  0.00000000000E+00 0.  1.
</event>
<event>
12    1  0.8251070E-002  0.2116922E+03  0.7818608E-02  0.1140321E+00
         21   -1    0    0  501  502  0.00000000000E+00  0.00000000000E+00  0.49968142432E+03  0.49968142432E+03  0.00000000000E+00 0.  1.
         21   -1    0    0  502  503 -0.00000000000E+00 -0.00000000000E+00 -0.15420186948E+03  0.15420186948E+03  0.00000000000E+00 0. -1.
         -6    2    1    2    0  503 -0.14912779876E+02  0.11941872709E+03 -0.39157404209E+02  0.21483982602E+03  0.17360767598E+03 0.  0.
        -24    2    3    3    0    0  0.32287073238E+02  0.13419061344E+03 -0.15973870893E+02  0.16001646442E+03  0.79375868497E+02 0.  0.
          6    2    1    2  501    0  0.14912779876E+02 -0.11941872709E+03  0.38463695904E+03  0.43904346778E+03  0.17415611662E+03 0.  0.
         24    2    5    5    0    0  0.11146256700E+02 -0.10194401317E+03  0.13158847345E+03  0.18532082712E+03  0.80693628990E+02 0.  0.
          5    1    5    5  501    0  0.37665231753E+01 -0.17474713921E+02  0.25304848559E+03  0.25372264066E+03  0.47000000000E+01 0. -1.
        -11    1    6    6    0    0  0.35847985214E+02 -0.98397047193E+02  0.11393911268E+03  0.15475522071E+03  0.00000000000E+00 0.  1.
         12    1    6    6    0    0 -0.24701728513E+02 -0.35469659746E+01  0.17649360769E+02  0.30565606402E+02  0.00000000000E+00 0. -1.
         -5    1    3    3    0  503 -0.47199853114E+02 -0.14771886353E+02 -0.23183533317E+02  0.54823361603E+02  0.47000000000E+01 0.  1.
         11    1    4    4    0    0 -0.22560710494E+02  0.75802496040E+02 -0.66810949037E+01  0.79370278398E+02  0.00000000000E+00 0. -1.
        -12    1    4    4    0    0  0.54847783733E+02  0.58388117403E+02 -0.92927759890E+01  0.80646186022E+02  0.00000000000E+00 0.  1.
</event>
<event>
12    1  0.8251070E-002  0.2097225E+03  0.7818608E-02  0.1142272E+00
         21   -1    0    0  503  502  0.00000000000E+00  0.00000000000E+00  0.84167714892E+02  0.84167714892E+02  0.00000000000E+00 0. -1.
         21   -1    0    0  501  503 -0.00000000000E+00 -0.00000000000E+00 -0.72704117863E+03  0.72704117863E+03  0.00000000000E+00 0. -1.
          6    2    1    2  501    0  0.25733701157E+02  0.11225704436E+03 -0.53836006184E+03  0.57688735567E+03  0.17234731665E+03 0.  0.
         24    2    3    3    0    0 -0.16029004404E+02 -0.48094020792E+01 -0.24612510702E+03  0.25928377370E+03  0.79815084217E+02 0.  0.
         -6    2    1    2    0  502 -0.25733701157E+02 -0.11225704436E+03 -0.10451340190E+03  0.23432153786E+03  0.17527026144E+03 0.  0.
        -24    2    5    5    0    0  0.39591051506E+02 -0.23926541170E+02 -0.17358649088E+02  0.94008879693E+02  0.79977597059E+02 0.  0.
          5    1    3    3  501    0  0.41762705560E+02  0.11706644644E+03 -0.29223495482E+03  0.31760358196E+03  0.47000000000E+01 0. -1.
        -11    1    4    4    0    0  0.17993310810E+02  0.63397241887E+01 -0.12222655088E+02  0.22657110012E+02  0.00000000000E+00 0.  1.
         12    1    4    4    0    0 -0.34022315213E+02 -0.11149126268E+02 -0.23390245193E+03  0.23662666369E+03  0.00000000000E+00 0. -1.
         -5    1    5    5    0  502 -0.65324752663E+02 -0.88330503189E+02 -0.87154752813E+02  0.14031265817E+03  0.47000000000E+01 0.  1.
         11    1    6    6    0    0 -0.30440519646E+01 -0.39508718313E+02  0.10183506359E+02  0.40913431497E+02  0.00000000000E+00 0. -1.
        -12    1    6    6    0    0  0.42635103470E+02  0.15582177143E+02 -0.27542155448E+02  0.53095448196E+02  0.00000000000E+00 0.  1.
</event>
<event>
12    1  0.8251070E-002  0.1806505E+03  0.7818608E-02  0.1167511E+00
         21   -1    0    0  501  502  0.00000000000E+00  0.00000000000E+00  0.73133676633E+03  0.73133676633E+03  0.00000000000E+00 0. -1.
         21   -1    0    0  502  503 -0.00000000000E+00 -0.00000000000E+00 -0.53868038038E+02  0.53868038038E+02  0.00000000000E+00 0. -1.
         -6    2    1    2    0  503  0.34824215940E+02 -0.41969571244E+02  0.17418114681E+03  0.25094555983E+03  0.17222204031E+03 0.  0.
        -24    2    3    3    0    0  0.61012709044E+02 -0.25923210834E+02  0.36897103950E+02  0.11018931209E+03  0.79910729538E+02 0.  0.
          6    2    1    2  501    0 -0.34824215940E+02  0.41969571244E+02  0.50328758148E+03  0.53425924453E+03  0.17076410563E+03 0.  0.
         24    2    5    5    0    0 -0.54950464497E+02  0.35098473436E+02  0.15939254994E+03  0.18967520459E+03  0.79493659329E+02 0.  0.
          5    1    5    5  501    0  0.20126248557E+02  0.68710978081E+01  0.34389503154E+03  0.34458403994E+03  0.47000000000E+01 0. -1.
        -11    1    6    6    0    0 -0.11481429385E+02  0.51889559659E+02  0.61662804921E+02  0.81404245179E+02  0.00000000000E+00 0.  1.
         12    1    6    6    0    0 -0.43469035112E+02 -0.16791086223E+02  0.97729745023E+02  0.10827095941E+03  0.00000000000E+00 0. -1.
         -5    1    3    3    0  503 -0.26188493104E+02 -0.16046360411E+02  0.13728404286E+03  0.14075624774E+03  0.47000000000E+01 0.  1.
         11    1    4    4    0    0  0.59204167602E+02  0.14756466670E+02  0.11188219225E+02  0.62032757632E+02  0.00000000000E+00 0. -1.
        -12    1    4    4    0    0  0.18085414423E+01 -0.40679677504E+02  0.25708884724E+02  0.48156554463E+02  0.00000000000E+00 0.  1.
</event>
<event>
12    1  0.8251070E-002  0.1984201E+03  0.7818608E-02  0.1151085E+00
         21   -1    0    0  501  502  0.00000000000E+00  0.00000000000E+00  0.32878231102E+02  0.32878231102E+02  0.00000000000E+00 0. -1.
         21   -1    0    0  502  503 -0.00000000000E+00 -0.00000000000E+00 -0.17364412666E+04  0.17364412666E+04  0.00000000000E+00 0. -1.
         -6    2    1    2    0  503  0.70172091193E+02  0.69942354307E+02 -0.13446893719E+04  0.13592453175E+04  0.17187865171E+03 0.  0.
        -24    2    3    3    0    0  0.60797599104E+02 -0.38062435769E+02 -0.62348399458E+03  0.62992220525E+03  0.54079534859E+02 0.  0.
          6    2    1    2  501    0 -0.70172091193E+02 -0.69942354307E+02 -0.35887366354E+03  0.41007418015E+03  0.17191414001E+03 0.  0.
         24    2    5    5    0    0  0.53718873790E+01 -0.14582586356E+02 -0.71618388891E+02  0.10789992675E+03  0.79194012186E+02 0.  0.
          5    1    5    5  501    0 -0.75543978572E+02 -0.55359767951E+02 -0.28725527464E+03  0.30217425340E+03  0.47000000000E+01 0. -1.
        -11    1    6    6    0    0  0.14722400271E+01 -0.87951350956E+01 -0.88856455940E+02  0.89302808770E+02  0.00000000000E+00 0.  1.
         12    1    6    6    0    0  0.38996473518E+01 -0.57874512602E+01  0.17238067048E+02  0.18597117979E+02  0.00000000000E+00 0. -1.
         -5    1    3    3    0  503  0.93744920894E+01  0.10800479008E+03 -0.72120537733E+03  0.72932311226E+03  0.47000000000E+01 0.  1.
         11    1    4    4    0    0  0.29497579604E+02  0.80326317210E+01 -0.14384748341E+03  0.14706028988E+03  0.00000000000E+00 0. -1.
        -12    1    4    4    0    0  0.31300019499E+02 -0.46095067490E+02 -0.47963651117E+03  0.48286191537E+03  0.00000000000E+00 0.  1.
</event>
<event>
12    1  0.8251070E-002  0.1859148E+03  0.7818608E-02  0.1162230E+00
         21   -1    0    0  501  502  0.00000000000E+00  0.00000000000E+00  0.82447362510E+03  0.82447362510E+03  0.00000000000E+00 0. -1.
         21   -1    0    0  502  503 -0.00000000000E+00 -0.00000000000E+00 -0.42146421603E+02  0.42146421603E+02  0.00000000000E+00 0. -1.
         -6    2    1    2    0  503 -0.24745990849E+02 -0.65413102730E+02  0.42499074486E+03  0.46387655925E+03  0.17225879059E+03 0.  0.
        -24    2    3    3    0    0 -0.32845586163E+02 -0.66674360001E+02  0.43588642070E+03  0.44945435532E+03  0.80547768141E+02 0.  0.
          6    2    1    2  501    0  0.24745990849E+02  0.65413102730E+02  0.35733645864E+03  0.40274348745E+03  0.17210965673E+03 0.  0.
         24    2    5    5    0    0  0.67464095983E+02  0.72649248477E+01  0.19140828584E+03  0.22174543325E+03  0.89048985949E+02 0.  0.
          5    1    5    5  501    0 -0.42718105134E+02  0.58148177882E+02  0.16592817280E+03  0.18099805421E+03  0.47000000000E+01 0. -1.
        -13    1    6    6    0    0 -0.21974959376E+02  0.10804421673E+01  0.31556816187E+02  0.38469453372E+02  0.00000000000E+00 0.  1.
         14    1    6    6    0    0  0.89439055359E+02  0.61844826804E+01  0.15985146965E+03  0.18327597987E+03  0.00000000000E+00 0. -1.
         -5    1    3    3    0  503  0.80995953134E+01  0.12612572717E+01 -0.10895675842E+02  0.14422203930E+02  0.47000000000E+01 0.  1.
         11    1    4    4    0    0 -0.58087338725E+02 -0.43625818688E+02  0.24545402112E+03  0.25597856837E+03  0.00000000000E+00 0. -1.
        -12    1    4    4    0    0  0.25241752562E+02 -0.23048541314E+02  0.19043239958E+03  0.19347578695E+03  0.00000000000E+00 0.  1.
</event>
<event>
12    1  0.8251070E-002  0.2166360E+03  0.7818608E-02  0.1136505E+00
         21   -1    0    0  501  502  0.00000000000E+00  0.00000000000E+00  0.25477511162E+02  0.25477511162E+02  0.00000000000E+00 0. -1.
         21   -1    0    0  502  503 -0.00000000000E+00 -0.00000000000E+00 -0.18434525591E+04  0.18434525591E+04  0.00000000000E+00 0. -1.
         -6    2    1    2    0  503 -0.90607352413E+02 -0.94770358914E+02 -0.85774685779E+03  0.88456767002E+03  0.17186965281E+03 0.  0.
        -24    2    3    3    0    0  0.12778334408E+02 -0.25233102479E+02 -0.45569158624E+03  0.46362282607E+03  0.80568652631E+02 0.  0.
          6    2    1    2  501    0  0.90607352413E+02  0.94770358914E+02 -0.96022819011E+03  0.98436240020E+03  0.17245302147E+03 0.  0.
         24    2    5    5    0    0  0.27460844694E+02  0.80803901011E+02 -0.83753910279E+03  0.84559192232E+03  0.79187006442E+02 0.  0.
          5    1    5    5  501    0  0.63146507718E+02  0.13966457903E+02 -0.12268908732E+03  0.13877047788E+03  0.47000000000E+01 0. -1.
        -13    1    6    6    0    0  0.21114241654E+02  0.93607739127E+02 -0.60016002808E+03  0.60778308576E+03  0.00000000000E+00 0.  1.
         14    1    6    6    0    0  0.63466030406E+01 -0.12803838115E+02 -0.23737907471E+03  0.23780883657E+03  0.00000000000E+00 0. -1.
         -5    1    3    3    0  503 -0.10338568682E+03 -0.69537256435E+02 -0.40205527154E+03  0.42094484395E+03  0.47000000000E+01 0.  1.
         13    1    4    4    0    0 -0.11664245220E+02 -0.38508188530E+02 -0.39279471701E+03  0.39485012968E+03  0.00000000000E+00 0. -1.
        -14    1    4    4    0    0  0.24442579628E+02  0.13275086051E+02 -0.62896869234E+02  0.68772696384E+02  0.00000000000E+00 0.  1.
</event>
<event>
12    1  0.8251070E-002  0.2734511E+03  0.7818608E-02  0.1099408E+00
         21   -1    0    0  501  502  0.00000000000E+00  0.00000000000E+00  0.15705332213E+04  0.15705332213E+04  0.00000000000E+00 0.  1.
         21   -1    0    0  502  503 -0.00000000000E+00 -0.00000000000E+00 -0.78026207904E+02  0.78026207904E+02  0.00000000000E+00 0.  1.
         -6    2    1    2    0  503 -0.19645554676E+03  0.79143449964E+02  0.23018828287E+03  0.35696193214E+03  0.17197880073E+03 0.  0.
        -24    2    3    3    0    0 -0.21071513677E+03  0.88707832345E+02  0.23578118505E+03  0.33830224639E+03  0.81152290816E+02 0.  0.
          6    2    1    2  501    0  0.19645554676E+03 -0.79143449964E+02  0.12623187305E+04  0.12915974970E+04  0.17296545743E+03 0.  0.
         24    2    5    5    0    0  0.87231270968E+02  0.50839708178E+01  0.39838139890E+03  0.41670664455E+03  0.85449091454E+02 0.  0.
          5    1    5    5  501    0  0.10922427579E+03 -0.84227420782E+02  0.86393733160E+03  0.87489085249E+03  0.47000000000E+01 0. -1.
        -11    1    6    6    0    0  0.61419635507E+02 -0.37226935195E+02  0.21135046124E+03  0.22322014648E+03  0.00000000000E+00 0.  1.
         12    1    6    6    0    0  0.25811635460E+02  0.42310906012E+02  0.18703093766E+03  0.19348649807E+03  0.00000000000E+00 0. -1.
         -5    1    3    3    0  503  0.14259590013E+02 -0.95643823806E+01 -0.55929021759E+01  0.18659685753E+02  0.47000000000E+01 0.  1.
         11    1    4    4    0    0 -0.84207328044E+02 -0.52890127251E+00  0.11178019203E+03  0.13994986661E+03  0.00000000000E+00 0. -1.
        -12    1    4    4    0    0 -0.12650780873E+03  0.89236733617E+02  0.12400099302E+03  0.19835237978E+03  0.00000000000E+00 0.  1.
</event>
<event>
12    1  0.8251070E-002  0.1924026E+03  0.7818608E-02  0.1156787E+00
         21   -1    0    0  501  502  0.00000000000E+00  0.00000000000E+00  0.61065822194E+02  0.61065822194E+02  0.00000000000E+00 0.  1.
         21   -1    0    0  502  503 -0.00000000000E+00 -0.00000000000E+00 -0.75358605120E+03  0.75358605120E+03  0.00000000000E+00 0.  1.
         -6    2    1    2    0  503  0.77975857953E+02  0.22552304462E+02 -0.52889569671E+03  0.56208157840E+03  0.17209358479E+03 0.  0.
        -24    2    3    3    0    0 -0.19432844011E+02  0.17566733890E+02 -0.32883310093E+03  0.33945982888E+03  0.80097076040E+02 0.  0.
          6    2    1    2  501    0 -0.77975857953E+02 -0.22552304462E+02 -0.16362453231E+03  0.25257029500E+03  0.17444175384E+03 0.  0.
         24    2    5    5    0    0 -0.43151462159E+02  0.55027711338E+02 -0.88109077826E+02  0.13874555577E+03  0.81222053347E+02 0.  0.
          5    1    5    5  501    0 -0.34824395795E+02 -0.77580015800E+02 -0.75515454479E+02  0.11382473922E+03  0.47000000000E+01 0. -1.
        -11    1    6    6    0    0  0.11780902346E+02  0.27750546930E+02  0.14684257596E+01  0.30183419110E+02  0.00000000000E+00 0.  1.
         12    1    6    6    0    0 -0.54932364504E+02  0.27277164409E+02 -0.89577503586E+02  0.10856213666E+03  0.00000000000E+00 0. -1.
         -5    1    3    3    0  503  0.97408701964E+02  0.49855705720E+01 -0.20006259577E+03  0.22262174952E+03  0.47000000000E+01 0.  1.
         13    1    4    4    0    0 -0.23693942001E+02  0.35036248957E+02 -0.84776908554E+02  0.94742101795E+02  0.00000000000E+00 0. -1.
        -14    1    4    4    0    0  0.42610979905E+01 -0.17469515067E+02 -0.24405619238E+03  0.24471772709E+03  0.00000000000E+00 0.  1.
</event>
<event>
12    1  0.8251070E-002  0.1851571E+03  0.7818608E-02  0.1163192E+00
         21   -1    0    0  501  502  0.00000000000E+00  0.00000000000E+00  0.25047212343E+03  0.25047212343E+03  0.00000000000E+00 0.  1.
         21   -1    0    0  502  503 -0.00000000000E+00 -0.00000000000E+00 -0.18582143612E+03  0.18582143612E+03  0.00000000000E+00 0. -1.
         -6    2    1    2    0  503  0.67480617564E+02  0.13375881748E+02  0.14524324256E+03  0.23435711727E+03  0.17057289042E+03 0.  0.
        -24    2    3    3    0    0  0.11109480863E+03 -0.29579792218E+00  0.13246608805E+03  0.18666583751E+03  0.70389817500E+02 0.  0.
          6    2    1    2  501    0 -0.67480617564E+02 -0.13375881748E+02 -0.80592555247E+02  0.20193644228E+03  0.17190293423E+03 0.  0.
         24    2    5    5    0    0 -0.74210171224E+02 -0.24310610487E+02  0.77905152160E+01  0.11250203989E+03  0.80609314333E+02 0.  0.
          5    1    5    5  501    0  0.67295536597E+01  0.10934728739E+02 -0.88383070463E+02  0.89434402383E+02  0.47000000000E+01 0. -1.
        -13    1    6    6    0    0  0.14141928766E+02  0.10022465557E+02 -0.59378462678E+00  0.17343487113E+02  0.00000000000E+00 0.  1.
         14    1    6    6    0    0 -0.88352099990E+02 -0.34333076044E+02  0.83842998428E+01  0.95158552779E+02  0.00000000000E+00 0. -1.
         -5    1    3    3    0  503 -0.43614191070E+02  0.13671679670E+02  0.12777154509E+02  0.47691279759E+02  0.47000000000E+01 0.  1.
         11    1    4    4    0    0  0.41077582958E+01  0.15373222670E+02  0.31515928497E+00  0.15915683424E+02  0.00000000000E+00 0. -1.
        -12    1    4    4    0    0  0.10698705034E+03 -0.15669020592E+02  0.13215092877E+03  0.17075015409E+03  0.00000000000E+00 0.  1.
</event>
<event>
12    1  0.8251070E-002  0.2691880E+03  0.7818608E-02  0.1101748E+00
         21   -1    0    0  501  502  0.00000000000E+00  0.00000000000E+00  0.93818037635E+02  0.93818037635E+02  0.00000000000E+00 0.  1.
         21   -1    0    0  502  503 -0.00000000000E+00 -0.00000000000E+00 -0.87054369951E+03  0.87054369951E+03  0.00000000000E+00 0.  1.
         -6    2    1    2    0  503 -0.18086235593E+03 -0.10013520976E+03 -0.22640727405E+03  0.35174196481E+03  0.17240621809E+03 0.  0.
        -24    2    3    3    0    0 -0.80287382768E+02 -0.10563451891E+03 -0.81035047016E+02  0.17482180761E+03  0.79945419853E+02 0.  0.
          6    2    1    2  501    0  0.18086235593E+03  0.10013520976E+03 -0.55031838783E+03  0.61261977234E+03  0.17237866879E+03 0.  0.
         24    2    5    5    0    0  0.15515027390E+03  0.10073464227E+03 -0.29834057976E+03  0.35928920521E+03  0.76567328591E+02 0.  0.
          5    1    5    5  501    0  0.25712082036E+02 -0.59943251238E+00 -0.25197780807E+03  0.25333056713E+03  0.47000000000E+01 0. -1.
        -13    1    6    6    0    0  0.93108367434E+00  0.30338984247E+02 -0.38291297223E+02  0.48862504284E+02  0.00000000000E+00 0.  1.
         14    1    6    6    0    0  0.15421919022E+03  0.70395658025E+02 -0.26004928254E+03  0.31042670093E+03  0.00000000000E+00 0. -1.
         -5    1    3    3    0  503 -0.10057497316E+03  0.54993091514E+01 -0.14537222703E+03  0.17692015719E+03  0.47000000000E+01 0.  1.
         13    1    4    4    0    0 -0.53929515781E+01 -0.27773021047E+02  0.13424344192E+02  0.31315134389E+02  0.00000000000E+00 0. -1.
        -14    1    4    4    0    0 -0.74894431190E+02 -0.77861497864E+02 -0.94459391209E+02  0.14350667323E+03  0.00000000000E+00 0.  1.
</event>
<event>
12    1  0.8251070E-002  0.2464419E+03  0.7818608E-02  0.1115694E+00
         21   -1    0    0  503  502  0.00000000000E+00  0.00000000000E+00  0.22887639428E+03  0.22887639428E+03  0.00000000000E+00 0. -1.
         21   -1    0    0  501  503 -0.00000000000E+00 -0.00000000000E+00 -0.33071545212E+03  0.33071545212E+03  0.00000000000E+00 0.  1.
          6    2    1    2  501    0  0.15547852018E+03 -0.82511610757E+02 -0.17599895724E+03  0.30223354388E+03  0.17142854472E+03 0.  0.
         24    2    3    3    0    0  0.16885585233E+03 -0.10127785002E+03 -0.12507144258E+03  0.24613696197E+03  0.78555945207E+02 0.  0.
         -6    2    1    2    0  502 -0.15547852018E+03  0.82511610757E+02  0.74159899398E+02  0.25735830252E+03  0.17248730113E+03 0.  0.
        -24    2    5    5    0    0 -0.57884250379E+01  0.32882730917E+02  0.48130358635E+02  0.97452776383E+02  0.77882811617E+02 0.  0.
          5    1    3    3  501    0 -0.13377332153E+02  0.18766239268E+02 -0.50927514659E+02  0.56096581902E+02  0.47000000000E+01 0. -1.
        -11    1    4    4    0    0  0.94257271020E+02 -0.66819065323E+02 -0.11556684082E+03  0.16341638635E+03  0.00000000000E+00 0.  1.
         12    1    4    4    0    0  0.74598581312E+02 -0.34458784701E+02 -0.95046017655E+01  0.82720575624E+02  0.00000000000E+00 0. -1.
         -5    1    5    5    0  502 -0.14969009514E+03  0.49628879840E+02  0.26029540764E+02  0.15990552614E+03  0.47000000000E+01 0.  1.
         11    1    6    6    0    0 -0.19776252350E+02  0.25156094132E+02  0.66080312520E+02  0.73420276026E+02  0.00000000000E+00 0. -1.
        -12    1    6    6    0    0  0.13987827312E+02  0.77266367853E+01 -0.17949953885E+02  0.24032500357E+02  0.00000000000E+00 0.  1.
</event>
<event>
12    1  0.8251070E-002  0.2015009E+03  0.7818608E-02  0.1148706E+00
         21   -1    0    0  503  502  0.00000000000E+00  0.00000000000E+00  0.69249290154E+02  0.69249290154E+02  0.00000000000E+00 0. -1.
         21   -1    0    0  501  503 -0.00000000000E+00 -0.00000000000E+00 -0.11029743900E+04  0.11029743900E+04  0.00000000000E+00 0. -1.
          6    2    1    2  501    0  0.84227014218E+02  0.62001359476E+02 -0.91848499046E+03  0.94009677856E+03  0.17096466553E+03 0.  0.
         24    2    3    3    0    0  0.21099394532E+02  0.92033641717E+02 -0.69404492557E+03  0.70497453999E+03  0.79845899486E+02 0.  0.
         -6    2    1    2    0  502 -0.84227014218E+02 -0.62001359476E+02 -0.11524010941E+03  0.23212690162E+03  0.17223314761E+03 0.  0.
        -24    2    5    5    0    0 -0.16006673073E+02 -0.87654249317E+02 -0.37073476519E+02  0.12514934229E+03  0.79677061988E+02 0.  0.
          5    1    3    3  501    0  0.63127619686E+02 -0.30032282241E+02 -0.22444006489E+03  0.23512223857E+03  0.47000000000E+01 0. -1.
        -13    1    4    4    0    0  0.22325463121E+02  0.47101418861E+02 -0.14484801293E+03  0.15394127715E+03  0.00000000000E+00 0.  1.
         14    1    4    4    0    0 -0.12260685893E+01  0.44932222856E+02 -0.54919691265E+03  0.55103326284E+03  0.00000000000E+00 0. -1.
         -5    1    5    5    0  502 -0.68220341145E+02  0.25652889841E+02 -0.78166632895E+02  0.10697755934E+03  0.47000000000E+01 0.  1.
         11    1    6    6    0    0  0.15195797044E+02  0.91579399993E+01 -0.70866666622E+01  0.19104998226E+02  0.00000000000E+00 0. -1.
        -12    1    6    6    0    0 -0.31202470117E+02 -0.96812189316E+02 -0.29986809857E+02  0.10604434406E+03  0.00000000000E+00 0.  1.
</event>
<event>
12    1  0.8251070E-002  0.1772821E+03  0.7818608E-02  0.1171257E+00
         21   -1    0    0  501  502  0.00000000000E+00  0.00000000000E+00  0.64527852167E+03  0.64527852167E+03  0.00000000000E+00 0.  1.
         21   -1    0    0  502  503 -0.00000000000E+00 -0.00000000000E+00 -0.76438131893E+02  0.76438131893E+02  0.00000000000E+00 0.  1.
         -6    2    1    2    0  503  0.40446812489E+02  0.43075112182E+01  0.65288203194E+02  0.18892194504E+03  0.17255275294E+03 0.  0.
        -24    2    3    3    0    0  0.29518163740E+02  0.68453769686E+02  0.57428039841E+02  0.12321007391E+03  0.79533024455E+02 0.  0.
          6    2    1    2  501    0 -0.40446812489E+02 -0.43075112182E+01  0.50355218658E+03  0.53279470852E+03  0.16926576005E+03 0.  0.
         24    2    5    5    0    0 -0.17199418089E+02 -0.19015316967E+02  0.49711374195E+03  0.50415375069E+03  0.79947042689E+02 0.  0.
          5    1    5    5  501    0 -0.23247394400E+02  0.14707805749E+02  0.64384446292E+01  0.28640957833E+02  0.47000000000E+01 0. -1.
        -11    1    6    6    0    0 -0.44109845047E+02  0.89829356271E+01  0.27962480521E+03  0.28322500463E+03  0.00000000000E+00 0.  1.
         12    1    6    6    0    0  0.26910426958E+02 -0.27998252595E+02  0.21748893674E+03  0.22092874606E+03  0.00000000000E+00 0. -1.
         -5    1    3    3    0  503  0.10928648750E+02 -0.64146258468E+02  0.78601633532E+01  0.65711871126E+02  0.47000000000E+01 0.  1.
         11    1    4    4    0    0 -0.22204634049E+02  0.19104810367E+02  0.40086716542E+02  0.49648609201E+02  0.00000000000E+00 0. -1.
        -12    1    4    4    0    0  0.51722797789E+02  0.49348959318E+02  0.17341323298E+02  0.73561464712E+02  0.00000000000E+00 0.  1.
</event>
<event>
12    1  0.8251070E-002  0.1922300E+03  0.7818608E-02  0.1156527E+00
         21   -1    0    0  503  502  0.00000000000E+00  0.00000000000E+00  0.17748850801E+03  0.17748850801E+03  0.00000000000E+00 0.  1.
         21   -1    0    0  501  503 -0.00000000000E+00 -0.00000000000E+00 -0.38323475293E+03  0.38323475293E+03  0.00000000000E+00 0.  1.
          6    2    1    2  501    0 -0.77072193718E+02 -0.36137289070E+02 -0.29247032585E+03  0.34983597231E+03  0.17204734614E+03 0.  0.
         24    2    3    3    0    0 -0.88700082433E+02  0.29923131443E+02 -0.18033598832E+03  0.21908664494E+03  0.81943827642E+02 0.  0.
         -6    2    1    2    0  502  0.77072193718E+02  0.36137289070E+02  0.86724080931E+02  0.21088728862E+03  0.17235531783E+03 0.  0.
        -24    2    5    5    0    0  0.63662765598E+01 -0.36364924066E+02  0.13965885850E+02  0.86100500129E+02  0.76520016828E+02 0.  0.
          5    1    3    3  501    0  0.11627888715E+02 -0.66060420513E+02 -0.11213433753E+03  0.13074932737E+03  0.47000000000E+01 0. -1.
        -11    1    4    4    0    0 -0.49501641217E+02  0.23280973927E+02 -0.27619881733E+02  0.61280291262E+02  0.00000000000E+00 0.  1.
         12    1    4    4    0    0 -0.39198441215E+02  0.66421575166E+01 -0.15271610658E+03  0.15780635368E+03  0.00000000000E+00 0. -1.
         -5    1    5    5    0  502  0.70705917158E+02  0.72502213136E+02  0.72758195081E+02  0.12478678849E+03  0.47000000000E+01 0.  1.
         13    1    6    6    0    0 -0.28640341697E+02 -0.17687424171E+02  0.28234590618E+02  0.43935250695E+02  0.00000000000E+00 0. -1.
        -14    1    6    6    0    0  0.35006618256E+02 -0.18677499895E+02 -0.14268704768E+02  0.42165249434E+02  0.00000000000E+00 0.  1.
</event>
<event>
12    1  0.8251070E-002  0.1789672E+03  0.7818608E-02  0.1169421E+00
         21   -1    0    0  503  502  0.00000000000E+00  0.00000000000E+00  0.10093251208E+03  0.10093251208E+03  0.00000000000E+00 0.  1.
         21   -1    0    0  501  503 -0.00000000000E+00 -0.00000000000E+00 -0.31811656082E+03  0.31811656082E+03  0.00000000000E+00 0.  1.
          6    2    1    2  501    0  0.27598594999E+02 -0.31685334470E+02 -0.82544328310E+02  0.19708583772E+03  0.17396441713E+03 0.  0.
         24    2    3    3    0    0  0.69939821253E+02 -0.57804177424E+02 -0.32757358970E+02  0.12654644650E+03  0.81902729073E+02 0.  0.
         -6    2    1    2    0  502 -0.27598594999E+02  0.31685334470E+02 -0.13463972042E+03  0.22196323518E+03  0.17138897453E+03 0.  0.
        -24    2    5    5    0    0  0.44057994720E+02  0.33748498199E+02 -0.10775581321E+03  0.14525757723E+03  0.80052360569E+02 0.  0.
          5    1    3    3  501    0 -0.42341226255E+02  0.26118842954E+02 -0.49786969340E+02  0.70539391223E+02  0.47000000000E+01 0. -1.
        -11    1    4    4    0    0  0.31448383904E+02 -0.68825265365E+02 -0.13872323774E+01  0.75682510638E+02  0.00000000000E+00 0.  1.
         12    1    4    4    0    0  0.38491437349E+02  0.11021087941E+02 -0.31370126593E+02  0.50863935859E+02  0.00000000000E+00 0. -1.
         -5    1    5    5    0  502 -0.71656589718E+02 -0.20631637288E+01 -0.26883907206E+02  0.76705657949E+02  0.47000000000E+01 0.  1.
         11    1    6    6    0    0  0.41945624737E+01  0.39474638083E+01 -0.93232812100E+02  0.93410567266E+02  0.00000000000E+00 0. -1.
        -12    1    6    6    0    0  0.39863432246E+02  0.29801034390E+02 -0.14523001115E+02  0.51847009967E+02  0.00000000000E+00 0.  1.
</event>
<event>
12    1  0.8251070E-002  0.2678208E+03  0.7818608E-02  0.1102546E+00
         21   -1    0    0  503  502  0.00000000000E+00  0.00000000000E+00  0.39976376789E+03  0.39976376789E+03  0.00000000000E+00 0. -1.
         21   -1    0    0  501  503 -0.00000000000E+00 -0.00000000000E+00 -0.25650887925E+03  0.25650887925E+03  0.00000000000E+00 0.  1.
          6    2    1    2  501    0 -0.16775966437E+03 -0.11819672282E+03 -0.10833071355E+03  0.28881750536E+03  0.17194835745E+03 0.  0.
         24    2    3    3    0    0 -0.19954646660E+02 -0.73083873622E+02 -0.19900351739E+02  0.11070655310E+03  0.78233473615E+02 0.  0.
         -6    2    1    2    0  502  0.16775966437E+03  0.11819672282E+03  0.25158560219E+03  0.36745514178E+03  0.17208775584E+03 0.  0.
        -24    2    5    5    0    0  0.45320479433E+02  0.11905913124E+02  0.14977272481E+03  0.17594262982E+03  0.79550256234E+02 0.  0.
          5    1    3    3  501    0 -0.14780501771E+03 -0.45112849202E+02 -0.88430361814E+02  0.17811095226E+03  0.47000000000E+01 0. -1.
        -13    1    4    4    0    0 -0.73639703150E+01  0.32186972664E+01 -0.31498230651E+02  0.32507331559E+02  0.00000000000E+00 0.  1.
         14    1    4    4    0    0 -0.12590676345E+02 -0.76302570888E+02  0.11597878912E+02  0.78199221545E+02  0.00000000000E+00 0. -1.
         -5    1    5    5    0  502  0.12243918494E+03  0.10629080970E+03  0.10181287738E+03  0.19151251196E+03  0.47000000000E+01 0.  1.
         13    1    6    6    0    0  0.38801109718E+01  0.31968655030E+02  0.11154235520E+03  0.11609800674E+03  0.00000000000E+00 0. -1.
        -14    1    6    6    0    0  0.41440368461E+02 -0.20062741906E+02  0.38230369617E+02  0.59844623084E+02  0.00000000000E+00 0.  1.
</event>
<event>
12    1  0.8251070E-002  0.2225738E+03  0.7818608E-02  0.1133915E+00
         21   -1    0    0  503  502  0.00000000000E+00  0.00000000000E+00  0.27301223893E+03  0.27301223893E+03  0.00000000000E+00 0.  1.
         21   -1    0    0  501  503 -0.00000000000E+00 -0.00000000000E+00 -0.18936136829E+03  0.18936136829E+03  0.00000000000E+00 0.  1.
          6    2    1    2  501    0 -0.12372893955E+03  0.67934749053E+02 -0.26668057360E+02  0.21395994919E+03  0.15856763214E+03 0.  0.
         24    2    3    3    0    0 -0.59311878262E+02 -0.12550360397E+02 -0.44051860059E+02  0.10930959217E+03  0.79577698617E+02 0.  0.
         -6    2    1    2    0  502  0.12372893955E+03 -0.67934749053E+02  0.11031892799E+03  0.24841365803E+03  0.17209038036E+03 0.  0.
        -24    2    5    5    0    0  0.55506180304E+02 -0.10700256787E+03  0.68083243512E+02  0.15904597713E+03  0.78293098109E+02 0.  0.
          5    1    3    3  501    0 -0.64417061285E+02  0.80485109450E+02  0.17383802699E+02  0.10465035702E+03  0.47000000000E+01 0. -1.
        -13    1    4    4    0    0 -0.33529573071E+02  0.75825085256E+01  0.18266113212E+02  0.38927851184E+02  0.00000000000E+00 0.  1.
         14    1    4    4    0    0 -0.25782305191E+02 -0.20132868922E+02 -0.62317973271E+02  0.70381740989E+02  0.00000000000E+00 0. -1.
         -5    1    5    5    0  502  0.68222759243E+02  0.39067818818E+02  0.42235684479E+02  0.89367680900E+02  0.47000000000E+01 0.  1.
         13    1    6    6    0    0  0.44120601014E+02 -0.10717663613E+03  0.30604102460E+02  0.11987522619E+03  0.00000000000E+00 0. -1.
        -14    1    6    6    0    0  0.11385579290E+02  0.17406825895E+00  0.37479141052E+02  0.39170750944E+02  0.00000000000E+00 0.  1.
</event>
<event>
12    1  0.8251070E-002  0.2713695E+03  0.7818608E-02  0.1100554E+00
         21   -1    0    0  501  502  0.00000000000E+00  0.00000000000E+00  0.55903342194E+03  0.55903342194E+03  0.00000000000E+00 0.  1.
         21   -1    0    0  502  503 -0.00000000000E+00 -0.00000000000E+00 -0.68354660765E+03  0.68354660765E+03  0.00000000000E+00 0.  1.
         -6    2    1    2    0  503  0.78231908437E+02 -0.19461368944E+03 -0.62056674000E+03  0.67715054050E+03  0.17156647716E+03 0.  0.
        -24    2    3    3    0    0 -0.16092720565E+02 -0.50361228323E+02 -0.27093669352E+03  0.28731831046E+03  0.79686201161E+02 0.  0.
          6    2    1    2  501    0 -0.78231908437E+02  0.19461368944E+03  0.49605355428E+03  0.56542948909E+03  0.17218205132E+03 0.  0.
         24    2    5    5    0    0 -0.21600475922E+02  0.28013952184E+02  0.14069752696E+03  0.16886601654E+03  0.86420919763E+02 0.  0.
          5    1    5    5  501    0 -0.56631432515E+02  0.16659973726E+03  0.35535602733E+03  0.39656347255E+03  0.47000000000E+01 0. -1.
        -13    1    6    6    0    0 -0.50950543415E+02  0.33163114017E+02  0.11232315640E+03  0.12771938564E+03  0.00000000000E+00 0.  1.
         14    1    6    6    0    0  0.29350067493E+02 -0.51491618335E+01  0.28374370557E+02  0.41146630894E+02  0.00000000000E+00 0. -1.
         -5    1    3    3    0  503  0.94324629002E+02 -0.14425246112E+03 -0.34963004648E+03  0.38983223004E+03  0.47000000000E+01 0.  1.
         13    1    4    4    0    0  0.12504740327E+02 -0.62126435723E+02 -0.20329261535E+03  0.21294118907E+03  0.00000000000E+00 0. -1.
        -14    1    4    4    0    0 -0.28597460892E+02  0.11765207400E+02 -0.67644078173E+02  0.74377121392E+02  0.00000000000E+00 0.  1.
</event>
<event>
12    1  0.8251070E-002  0.1997323E+03  0.7818608E-02  0.1150453E+00
         21   -1    0    0  503  502  0.00000000000E+00  0.00000000000E+00  0.13337551415E+03  0.13337551415E+03  0.00000000000E+00 0. -1.
         21   -1    0    0  501  503 -0.00000000000E+00 -0.00000000000E+00 -0.30423597883E+03  0.30423597883E+03  0.00000000000E+00 0. -1.
          6    2    1    2  501    0 -0.72272228643E+02  0.69163322722E+02 -0.12165290485E+03  0.23190694037E+03  0.17021915136E+03 0.  0.
         24    2    3    3    0    0 -0.93790697911E+02  0.68980088078E+02 -0.14367233858E+03  0.20076173920E+03  0.78157453183E+02 0.  0.
         -6    2    1    2    0  502  0.72272228643E+02 -0.69163322722E+02 -0.49207559834E+02  0.20570455261E+03  0.17287607925E+03 0.  0.
        -24    2    5    5    0    0 -0.53413903580E+01 -0.67920633372E+02 -0.66314893756E+02  0.12607937440E+03  0.82804593026E+02 0.  0.
          5    1    3    3  501    0  0.21518469268E+02  0.18323464349E+00  0.22019433724E+02  0.31145201172E+02  0.47000000000E+01 0. -1.
        -11    1    4    4    0    0  0.11399944419E+02  0.13669825085E+02 -0.37023529180E+02  0.41079977648E+02  0.00000000000E+00 0.  1.
         12    1    4    4    0    0 -0.10519064233E+03  0.55310262993E+02 -0.10664880940E+03  0.15968176155E+03  0.00000000000E+00 0. -1.
         -5    1    5    5    0  502  0.77613619001E+02 -0.12426893498E+01  0.17107333922E+02  0.79625178212E+02  0.47000000000E+01 0.  1.
         11    1    6    6    0    0 -0.12316197604E+01 -0.60211449461E+02 -0.10508502043E+01  0.60233211931E+02  0.00000000000E+00 0. -1.
        -12    1    6    6    0    0 -0.41097705976E+01 -0.77091839112E+01 -0.65264043551E+02  0.65846162467E+02  0.00000000000E+00 0.  1.
</event>
<event>
12    1  0.8251070E-002  0.2144529E+03  0.7818608E-02  0.1139901E+00
         21   -1    0    0  501  502  0.00000000000E+00  0.00000000000E+00  0.45867929681E+02  0.45867929681E+02  0.00000000000E+00 0.  1.
         21   -1    0    0  502  503 -0.00000000000E+00 -0.00000000000E+00 -0.19354240290E+04  0.19354240290E+04  0.00000000000E+00 0. -1.
         -6    2    1    2    0  503 -0.65929633021E+02 -0.90618208125E+02 -0.16581876727E+04  0.16719977276E+04  0.18284328587E+03 0.  0.
        -24    2    3    3    0    0 -0.97283609584E+02 -0.35873702919E+02 -0.71990063517E+03  0.73158043330E+03  0.78752667362E+02 0.  0.
          6    2    1    2  501    0  0.65929633021E+02  0.90618208125E+02 -0.23136842665E+03  0.30929423107E+03  0.17196859123E+03 0.  0.
         24    2    5    5    0    0  0.79973696251E+02  0.12410174778E+03 -0.17786305728E+03  0.24446138684E+03  0.79555431099E+02 0.  0.
          5    1    5    5  501    0 -0.14044063229E+02 -0.33483539652E+02 -0.53505369370E+02  0.64832844230E+02  0.47000000000E+01 0. -1.
        -11    1    6    6    0    0 -0.10147823705E+02  0.20645762419E+02 -0.46140049606E+01  0.23463053373E+02  0.00000000000E+00 0.  1.
         12    1    6    6    0    0  0.90121519956E+02  0.10345598536E+03 -0.17324905232E+03  0.22099833347E+03  0.00000000000E+00 0. -1.
         -5    1    3    3    0  503  0.31353976563E+02 -0.54744505206E+02 -0.93828703751E+03  0.94041729432E+03  0.47000000000E+01 0.  1.
         11    1    4    4    0    0 -0.39031235659E+02 -0.12333752169E+01 -0.49878388949E+03  0.50031023075E+03  0.00000000000E+00 0. -1.
        -12    1    4    4    0    0 -0.58252373925E+02 -0.34640327702E+02 -0.22111674568E+03  0.23127020255E+03  0.00000000000E+00 0.  1.
</event>
<event>
12    1  0.8251070E-002  0.2288699E+03  0.7818608E-02  0.1127511E+00
         21   -1    0    0  503  502  0.00000000000E+00  0.00000000000E+00  0.32880946167E+02  0.32880946167E+02  0.00000000000E+00 0. -1.
         21   -1    0    0  501  503 -0.00000000000E+00 -0.00000000000E+00 -0.16578232378E+04  0.16578232378E+04  0.00000000000E+00 0. -1.
          6    2    1    2  501    0 -0.80398518543E+02 -0.12838261725E+03 -0.98252746338E+03  0.10087377346E+04  0.17101339912E+03 0.  0.
         24    2    3    3    0    0 -0.10932850539E+03 -0.83320681916E+02 -0.53939968536E+03  0.56236139134E+03  0.80020346008E+02 0.  0.
         -6    2    1    2    0  502  0.80398518543E+02  0.12838261725E+03 -0.64241482829E+03  0.68196644942E+03  0.17156750371E+03 0.  0.
        -24    2    5    5    0    0  0.87302804983E+02  0.57585718182E+02 -0.24540633142E+03  0.27860841160E+03  0.80377141122E+02 0.  0.
          5    1    3    3  501    0  0.28929986852E+02 -0.45061935339E+02 -0.44312777802E+03  0.44637634325E+03  0.47000000000E+01 0. -1.
        -11    1    4    4    0    0 -0.64260321632E+02 -0.67620514847E+01 -0.15697710147E+03  0.16975548493E+03  0.00000000000E+00 0.  1.
         12    1    4    4    0    0 -0.45068183763E+02 -0.76558630432E+02 -0.38242258389E+03  0.39260590641E+03  0.00000000000E+00 0. -1.
         -5    1    5    5    0  502 -0.69042864401E+01  0.70796899073E+02 -0.39700849687E+03  0.40335803782E+03  0.47000000000E+01 0.  1.
         13    1    6    6    0    0  0.78211267071E+02  0.76278774297E+02 -0.22115400063E+03  0.24666687192E+03  0.00000000000E+00 0. -1.
        -14    1    6    6    0    0  0.90915379129E+01 -0.18693056115E+02 -0.24252330786E+02  0.31941539679E+02  0.00000000000E+00 0.  1.
</event>
<event>
12    1  0.8251070E-002  0.1923872E+03  0.7818608E-02  0.1159355E+00
         21   -1    0    0  503  502  0.00000000000E+00  0.00000000000E+00  0.36859940808E+02  0.36859940808E+02  0.00000000000E+00 0.  1.
         21   -1    0    0  501  503 -0.00000000000E+00 -0.00000000000E+00 -0.14434972664E+04  0.14434972664E+04  0.00000000000E+00 0.  1.
          6    2    1    2  501    0  0.76278887067E+02 -0.25731120038E+02 -0.11578709609E+04  0.11737452923E+04  0.17473491324E+03 0.  0.
         24    2    3    3    0    0  0.76303818875E+02 -0.38532934193E+01 -0.11395649265E+04  0.11448343806E+04  0.78742724390E+02 0.  0.
         -6    2    1    2    0  502 -0.76278887067E+02  0.25731120038E+02 -0.24876636469E+03  0.30661191493E+03  0.16014244604E+03 0.  0.
        -24    2    5    5    0    0 -0.84079217084E+01  0.28640022244E+02 -0.21420705298E+03  0.23024853577E+03  0.78985964934E+02 0.  0.
          5    1    3    3  501    0 -0.24931808310E-01 -0.21877826618E+02 -0.18306034415E+02  0.28910911697E+02  0.47000000000E+01 0. -1.
        -11    1    4    4    0    0  0.61503111461E+02 -0.38030275606E+02 -0.72233137074E+03  0.72594183220E+03  0.00000000000E+00 0.  1.
         12    1    4    4    0    0  0.14800707415E+02  0.34176982187E+02 -0.41723355579E+03  0.41889254843E+03  0.00000000000E+00 0. -1.
         -5    1    5    5    0  502 -0.67870965358E+02 -0.29089022068E+01 -0.34559311716E+02  0.76363379162E+02  0.47000000000E+01 0.  1.
         11    1    6    6    0    0 -0.22220242806E+02 -0.22400067545E+02 -0.78332572770E+02  0.84448174481E+02  0.00000000000E+00 0. -1.
        -12    1    6    6    0    0  0.13812321098E+02  0.51040089790E+02 -0.13587448021E+03  0.14580036129E+03  0.00000000000E+00 0.  1.
</event>
<event>
12    1  0.8251070E-002  0.2246311E+03  0.7818608E-02  0.1131191E+00
         21   -1    0    0  501  502  0.00000000000E+00  0.00000000000E+00  0.17965585089E+04  0.17965585089E+04  0.00000000000E+00 0. -1.
         21   -1    0    0  502  503 -0.00000000000E+00 -0.00000000000E+00 -0.62652724675E+02  0.62652724675E+02  0.00000000000E+00 0. -1.
         -6    2    1    2    0  503  0.13107037509E+03  0.44308734061E+02  0.17499073492E+03  0.28474705486E+03  0.17696446197E+03 0.  0.
        -24    2    3    3    0    0  0.18193724847E+02  0.99569892423E+01  0.87690320239E+01  0.80852658028E+02  0.77653738667E+02 0.  0.
          6    2    1    2  501    0 -0.13107037509E+03 -0.44308734061E+02  0.15589150493E+04  0.15744641788E+04  0.17198433648E+03 0.  0.
         24    2    5    5    0    0 -0.43401699891E+02  0.23858390489E+02  0.40265600913E+03  0.41287491764E+03  0.76687062640E+02 0.  0.
          5    1    5    5  501    0 -0.87668675202E+02 -0.68167124550E+02  0.11562590402E+04  0.11615892611E+04  0.47000000000E+01 0. -1.
        -13    1    6    6    0    0 -0.20829710699E+02 -0.23892907568E+02  0.23413202819E+03  0.23626797181E+03  0.00000000000E+00 0.  1.
         14    1    6    6    0    0 -0.22571989192E+02  0.47751298057E+02  0.16852398094E+03  0.17660694582E+03  0.00000000000E+00 0. -1.
         -5    1    3    3    0  503  0.11287665025E+03  0.34351744818E+02  0.16622170290E+03  0.20389439683E+03  0.47000000000E+01 0.  1.
         11    1    4    4    0    0 -0.17282232246E+01  0.37880351852E+02 -0.13162379214E+02  0.40139208245E+02  0.00000000000E+00 0. -1.
        -12    1    4    4    0    0  0.19921948071E+02 -0.27923362609E+02  0.21931411238E+02  0.40713449783E+02  0.00000000000E+00 0.  1.
</event>
<event>
12    1  0.8251070E-002  0.2765760E+03  0.7818608E-02  0.1099516E+00
         21   -1    0    0  503  502  0.00000000000E+00  0.00000000000E+00  0.24727332310E+04  0.24727332310E+04  0.00000000000E+00 0.  1.
         21   -1    0    0  501  503 -0.00000000000E+00 -0.00000000000E+00 -0.29436093035E+02  0.29436093035E+02  0.00000000000E+00 0. -1.
          6    2    1    2  501    0 -0.42819138701E+01 -0.19864775666E+03  0.11727047718E+04  0.12018235155E+04  0.17223244300E+03 0.  0.
         24    2    3    3    0    0 -0.20241437038E+02 -0.17728314024E+03  0.11497439849E+04  0.11663208261E+04  0.80956846647E+02 0.  0.
         -6    2    1    2    0  502  0.42819138701E+01  0.19864775666E+03  0.12705923661E+04  0.13003458086E+04  0.19239281429E+03 0.  0.
        -24    2    5    5    0    0  0.60832784145E+02  0.18921686998E+03  0.88932762772E+03  0.91476594225E+03  0.79934023905E+02 0.  0.
          5    1    3    3  501    0  0.15959523168E+02 -0.21364616416E+02  0.22960786929E+02  0.35502689345E+02  0.47000000000E+01 0. -1.
        -13    1    4    4    0    0 -0.18334588492E+02  0.30446430708E+00  0.10487457695E+03  0.10646561287E+03  0.00000000000E+00 0.  1.
         14    1    4    4    0    0 -0.19068485463E+01 -0.17758760455E+03  0.10448694080E+04  0.10598552132E+04  0.00000000000E+00 0. -1.
         -5    1    5    5    0  502 -0.56550870275E+02  0.94308866837E+01  0.38126473843E+03  0.38557986633E+03  0.47000000000E+01 0.  1.
         13    1    6    6    0    0  0.21320920202E+01  0.19765590750E+02  0.24550207363E+02  0.31590142064E+02  0.00000000000E+00 0. -1.
        -14    1    6    6    0    0  0.58700692125E+02  0.16945127923E+03  0.86477742035E+03  0.88317580019E+03  0.00000000000E+00 0.  1.
</event>
<event>
12    1  0.8251070E-002  0.2114680E+03  0.7818608E-02  0.1140792E+00
         21   -1    0    0  503  502  0.00000000000E+00  0.00000000000E+00  0.17858744126E+04  0.17858744126E+04  0.00000000000E+00 0.  1.
         21   -1    0    0  501  503 -0.00000000000E+00 -0.00000000000E+00 -0.33191577811E+02  0.33191577811E+02  0.00000000000E+00 0.  1.
          6    2    1    2  501    0 -0.10625204201E+03 -0.53531889950E+02  0.42233123542E+03  0.47231596500E+03  0.17482430813E+03 0.  0.
         24    2    3    3    0    0 -0.74076492524E+02 -0.43441102366E+02  0.12165359585E+03  0.16971685245E+03  0.81423316708E+02 0.  0.
         -6    2    1    2    0  502  0.10625204201E+03  0.53531889950E+02  0.13303515993E+04  0.13467500254E+04  0.17246765877E+03 0.  0.
        -24    2    5    5    0    0  0.11327008046E+03  0.51358204665E+01  0.61540582857E+03  0.63011833647E+03  0.73947929931E+02 0.  0.
          5    1    3    3  501    0 -0.32175549486E+02 -0.10090787583E+02  0.30067763957E+03  0.30259911255E+03  0.47000000000E+01 0. -1.
        -13    1    4    4    0    0 -0.78293584400E+02 -0.49346729144E+02  0.12940859648E+03  0.15909610265E+03  0.00000000000E+00 0.  1.
         14    1    4    4    0    0  0.42170918764E+01  0.59056267776E+01 -0.77550006320E+01  0.10620749801E+02  0.00000000000E+00 0. -1.
         -5    1    5    5    0  502 -0.70180384530E+01  0.48396069483E+02  0.71494577075E+03  0.71663168889E+03  0.47000000000E+01 0.  1.
         13    1    6    6    0    0  0.10622339093E+03 -0.19025840588E+02  0.44697101532E+03  0.45981352734E+03  0.00000000000E+00 0. -1.
        -14    1    6    6    0    0  0.70466895321E+01  0.24161661054E+02  0.16843481325E+03  0.17030480913E+03  0.00000000000E+00 0.  1.
</event>
<event>
12    1  0.8251070E-002  0.2032627E+03  0.7818608E-02  0.1147852E+00
         21   -1    0    0  503  502  0.00000000000E+00  0.00000000000E+00  0.86774793513E+02  0.86774793513E+02  0.00000000000E+00 0.  1.
         21   -1    0    0  501  503 -0.00000000000E+00 -0.00000000000E+00 -0.57828596685E+03  0.57828596685E+03  0.00000000000E+00 0.  1.
          6    2    1    2  501    0  0.44677698721E+02  0.98744814353E+02 -0.97766897743E+02  0.22194647028E+03  0.16719818853E+03 0.  0.
         24    2    3    3    0    0  0.94011895935E+01 -0.95268299529E+01 -0.13679570217E+02  0.80313318410E+02  0.77999715500E+02 0.  0.
         -6    2    1    2    0  502 -0.44677698721E+02 -0.98744814353E+02 -0.39374427559E+03  0.44311429008E+03  0.17195663521E+03 0.  0.
        -24    2    5    5    0    0 -0.83489160503E+02 -0.84918300213E+02 -0.20613175889E+03  0.25097359038E+03  0.79472532450E+02 0.  0.
          5    1    3    3  501    0  0.35276509128E+02  0.10827164431E+03 -0.84087327527E+02  0.14163315187E+03  0.47000000000E+01 0. -1.
        -13    1    4    4    0    0  0.15342251473E+02 -0.20748796576E+02  0.27208323568E+02  0.37499201471E+02  0.00000000000E+00 0.  1.
         14    1    4    4    0    0 -0.59410618790E+01  0.11221966623E+02 -0.40887893785E+02  0.42814116939E+02  0.00000000000E+00 0. -1.
         -5    1    5    5    0  502  0.38811461781E+02 -0.13826514140E+02 -0.18761251671E+03  0.19214069971E+03  0.47000000000E+01 0.  1.
         13    1    6    6    0    0 -0.12490058799E+02  0.10726939769E+02 -0.49845708278E+01  0.17202172884E+02  0.00000000000E+00 0. -1.
        -14    1    6    6    0    0 -0.70999101703E+02 -0.95645239982E+02 -0.20114718806E+03  0.23377141749E+03  0.00000000000E+00 0.  1.
</event>
<event>
12    1  0.8251070E-002  0.2415220E+03  0.7818608E-02  0.1120313E+00
         21   -1    0    0  503  502  0.00000000000E+00  0.00000000000E+00  0.89754439404E+02  0.89754439404E+02  0.00000000000E+00 0.  1.
         21   -1    0    0  501  503 -0.00000000000E+00 -0.00000000000E+00 -0.62613957648E+03  0.62613957648E+03  0.00000000000E+00 0.  1.
          6    2    1    2  501    0  0.16702965971E+03 -0.26685494898E+02 -0.27229699104E+03  0.35801773958E+03  0.15943659450E+03 0.  0.
         24    2    3    3    0    0  0.48917741955E+02 -0.57378028075E+02 -0.13777294797E+03  0.17632771544E+03  0.80155439344E+02 0.  0.
         -6    2    1    2    0  502 -0.16702965971E+03  0.26685494898E+02 -0.26408814604E+03  0.35787627631E+03  0.17240028250E+03 0.  0.
        -24    2    5    5    0    0 -0.66442031797E+02  0.29168073422E+02 -0.22912108180E+03  0.25125160906E+03  0.73250125146E+02 0.  0.
          5    1    3    3  501    0  0.11811191775E+03  0.30692533177E+02 -0.13452404307E+03  0.18169002414E+03  0.47000000000E+01 0. -1.
        -11    1    4    4    0    0  0.38905913462E+02 -0.26905310412E+02 -0.15287169130E+02  0.49711803133E+02  0.00000000000E+00 0.  1.
         12    1    4    4    0    0  0.10011828493E+02 -0.30472717663E+02 -0.12248577884E+03  0.12661591231E+03  0.00000000000E+00 0. -1.
         -5    1    5    5    0  502 -0.10058762791E+03 -0.24825785240E+01 -0.34967064241E+02  0.10662466725E+03  0.47000000000E+01 0.  1.
         13    1    6    6    0    0  0.63711313606E+01  0.19755883283E+02 -0.10508225450E+03  0.10711286781E+03  0.00000000000E+00 0. -1.
        -14    1    6    6    0    0 -0.72813163158E+02  0.94121901388E+01 -0.12403882730E+03  0.14413874126E+03  0.00000000000E+00 0.  1.
</event>
<event>
12    1  0.8251070E-002  0.3426856E+03  0.7818608E-02  0.1065770E+00
         21   -1    0    0  503  502  0.00000000000E+00  0.00000000000E+00  0.19112294223E+04  0.19112294223E+04  0.00000000000E+00 0.  1.
         21   -1    0    0  501  503 -0.00000000000E+00 -0.00000000000E+00 -0.62186142771E+02  0.62186142771E+02  0.00000000000E+00 0.  1.
          6    2    1    2  501    0 -0.29432988847E+03  0.32511175088E+02  0.80231217762E+03  0.87201671394E+03  0.17035627162E+03 0.  0.
         24    2    3    3    0    0 -0.29063288274E+03  0.50834444590E+02  0.79454616070E+03  0.85123664957E+03  0.79048205519E+02 0.  0.
         -6    2    1    2    0  502  0.29432988847E+03 -0.32511175088E+02  0.10467311019E+04  0.11013988512E+04  0.17247135941E+03 0.  0.
        -24    2    5    5    0    0  0.13617676455E+03 -0.18238423523E+02  0.72935340939E+03  0.74648081588E+03  0.80002883600E+02 0.  0.
          5    1    3    3  501    0 -0.36970057302E+01 -0.18323269503E+02  0.77660169243E+01  0.20780064377E+02  0.47000000000E+01 0. -1.
        -13    1    4    4    0    0 -0.13399950772E+03  0.60625324101E+02  0.34330500503E+03  0.37348309798E+03  0.00000000000E+00 0.  1.
         14    1    4    4    0    0 -0.15663337502E+03 -0.97908795102E+01  0.45124115566E+03  0.47775355159E+03  0.00000000000E+00 0. -1.
         -5    1    5    5    0  502  0.15815312392E+03 -0.14272751564E+02  0.31737769255E+03  0.35491803528E+03  0.47000000000E+01 0.  1.
         11    1    6    6    0    0 -0.10135604033E+02  0.14218340570E+01  0.29454093062E+02  0.31181656135E+02  0.00000000000E+00 0. -1.
        -12    1    6    6    0    0  0.14631236859E+03 -0.19660257580E+02  0.69989931633E+03  0.71529915975E+03  0.00000000000E+00 0.  1.
</event>
<event>
12    1  0.8251070E-002  0.2557534E+03  0.7818608E-02  0.1109778E+00
         21   -1    0    0  501  502  0.00000000000E+00  0.00000000000E+00  0.87331892842E+03  0.87331892842E+03  0.00000000000E+00 0.  1.
         21   -1    0    0  502  503 -0.00000000000E+00 -0.00000000000E+00 -0.75353700979E+02  0.75353700979E+02  0.00000000000E+00 0. -1.
         -6    2    1    2    0  503  0.84182405398E+02  0.16850604314E+03  0.35826096476E+03  0.44018260413E+03  0.17299954379E+03 0.  0.
        -24    2    3    3    0    0  0.13716470363E+02  0.13162625569E+03  0.14268884855E+03  0.21035877157E+03  0.79856699971E+02 0.  0.
          6    2    1    2  501    0 -0.84182405398E+02 -0.16850604314E+03  0.43970426267E+03  0.50849002526E+03  0.17245667058E+03 0.  0.
         24    2    5    5    0    0 -0.29111983458E+01 -0.14603165624E+03  0.33357977165E+03  0.37286331419E+03  0.80111592879E+02 0.  0.
          5    1    5    5  501    0 -0.81271207052E+02 -0.22474386904E+02  0.10612449102E+03  0.13562671107E+03  0.47000000000E+01 0. -1.
        -11    1    6    6    0    0 -0.23205809871E+02 -0.68710848649E+02  0.23504631461E+03  0.24598060970E+03  0.00000000000E+00 0.  1.
         12    1    6    6    0    0  0.20294611525E+02 -0.77320807590E+02  0.98533457040E+02  0.12688270449E+03  0.00000000000E+00 0. -1.
         -5    1    3    3    0  503  0.70465935034E+02  0.36879787453E+02  0.21557211622E+03  0.22982383256E+03  0.47000000000E+01 0.  1.
         11    1    4    4    0    0 -0.24307365334E+02  0.72450651671E+02  0.41028655712E+02  0.86736932886E+02  0.00000000000E+00 0. -1.
        -12    1    4    4    0    0  0.38023835697E+02  0.59175604020E+02  0.10166019283E+03  0.12362183868E+03  0.00000000000E+00 0.  1.
</event>
<event>
12    1  0.8251070E-002  0.1806603E+03  0.7818608E-02  0.1167584E+00
         21   -1    0    0  503  502  0.00000000000E+00  0.00000000000E+00  0.46217347299E+03  0.46217347299E+03  0.00000000000E+00 0. -1.
         21   -1    0    0  501  503 -0.00000000000E+00 -0.00000000000E+00 -0.10758637054E+03  0.10758637054E+03  0.00000000000E+00 0. -1.
          6    2    1    2  501    0 -0.17433284332E+02  0.48640609837E+02  0.93425933300E+01  0.18090168934E+03  0.17311357205E+03 0.  0.
         24    2    3    3    0    0 -0.33179614361E+02  0.54596491139E+02  0.67318422445E+02  0.12034835588E+03  0.76617838063E+02 0.  0.
         -6    2    1    2    0  502  0.17433284332E+02 -0.48640609837E+02  0.34524450912E+03  0.38885815418E+03  0.17130984988E+03 0.  0.
        -24    2    5    5    0    0  0.22164907549E+02 -0.92364008909E+02  0.21398099046E+03  0.25034344299E+03  0.88665562099E+02 0.  0.
          5    1    3    3  501    0  0.15746330028E+02 -0.59558813018E+01 -0.57975829115E+02  0.60553333459E+02  0.47000000000E+01 0. -1.
        -11    1    4    4    0    0 -0.56284489579E+02  0.25081658512E+02  0.35061719866E+02  0.70896809243E+02  0.00000000000E+00 0.  1.
         12    1    4    4    0    0  0.23104875218E+02  0.29514832627E+02  0.32256702579E+02  0.49451546640E+02  0.00000000000E+00 0. -1.
         -5    1    5    5    0  502 -0.47316232168E+01  0.43723399071E+02  0.13126351866E+03  0.13851471119E+03  0.47000000000E+01 0.  1.
         13    1    6    6    0    0 -0.36845217717E+01 -0.19326578307E+01  0.11022304626E+03  0.11030154483E+03  0.00000000000E+00 0. -1.
        -14    1    6    6    0    0  0.25849429321E+02 -0.90431351078E+02  0.10375794421E+03  0.14004189816E+03  0.00000000000E+00 0.  1.
</event>
<event>
12    1  0.8251070E-002  0.1822216E+03  0.7818608E-02  0.1166481E+00
         21   -1    0    0  501  502  0.00000000000E+00  0.00000000000E+00  0.68865438612E+02  0.68865438612E+02  0.00000000000E+00 0. -1.
         21   -1    0    0  502  503 -0.00000000000E+00 -0.00000000000E+00 -0.48226925784E+03  0.48226925784E+03  0.00000000000E+00 0. -1.
         -6    2    1    2    0  503 -0.49213611899E+02 -0.35978462823E+02 -0.16719661300E+03  0.24482977656E+03  0.16813828449E+03 0.  0.
        -24    2    3    3    0    0 -0.36850616650E+02 -0.39894531521E+02 -0.22980789512E+02  0.99955786528E+02  0.80706263580E+02 0.  0.
          6    2    1    2  501    0  0.49213611899E+02  0.35978462823E+02 -0.24620720623E+03  0.30630491989E+03  0.17172153669E+03 0.  0.
         24    2    5    5    0    0  0.79140143658E+02 -0.88924096566E+01 -0.21998228212E+03  0.24614821498E+03  0.76514717578E+02 0.  0.
          5    1    5    5  501    0 -0.29926531759E+02  0.44870872480E+02 -0.26224924113E+02  0.60156704904E+02  0.47000000000E+01 0. -1.
        -11    1    6    6    0    0  0.55319286338E+02  0.14480312763E+02 -0.19822905240E+03  0.20631204549E+03  0.00000000000E+00 0.  1.
         12    1    6    6    0    0  0.23820857320E+02 -0.23372722420E+02 -0.21753229717E+02  0.39836169493E+02  0.00000000000E+00 0. -1.
         -5    1    3    3    0  503 -0.12362995249E+02  0.39160686975E+01 -0.14421582348E+03  0.14487399003E+03  0.47000000000E+01 0.  1.
         11    1    4    4    0    0  0.11301007126E+01 -0.14902060151E+02 -0.46446291929E+02  0.48791459891E+02  0.00000000000E+00 0. -1.
        -12    1    4    4    0    0 -0.37980717363E+02 -0.24992471370E+02  0.23465502416E+02  0.51164326637E+02  0.00000000000E+00 0.  1.
</event>
<event>
12    1  0.8251070E-002  0.2728468E+03  0.7818608E-02  0.1100436E+00
         21   -1    0    0  501  502  0.00000000000E+00  0.00000000000E+00  0.10310338743E+03  0.10310338743E+03  0.00000000000E+00 0.  1.
         21   -1    0    0  502  503 -0.00000000000E+00 -0.00000000000E+00 -0.10929394739E+04  0.10929394739E+04  0.00000000000E+00 0.  1.
         -6    2    1    2    0  503 -0.13292899318E+03  0.15555620351E+03 -0.84670718055E+03  0.88793367667E+03  0.17217814865E+03 0.  0.
        -24    2    3    3    0    0 -0.78139319221E+01  0.21919460293E+02 -0.28235710239E+03  0.29461617447E+03  0.80818541899E+02 0.  0.
          6    2    1    2  501    0  0.13292899318E+03 -0.15555620351E+03 -0.14312890588E+03  0.30810918462E+03  0.18049248258E+03 0.  0.
         24    2    5    5    0    0  0.13213165377E+03 -0.15118495526E+03 -0.60222374254E+02  0.22495074219E+03  0.81611503013E+02 0.  0.
          5    1    5    5  501    0  0.79733940872E+00 -0.43712482520E+01 -0.82906531625E+02  0.83158442431E+02  0.47000000000E+01 0. -1.
        -11    1    6    6    0    0  0.26703979403E+02 -0.52089128655E+02  0.16986524254E+02  0.60950158705E+02  0.00000000000E+00 0.  1.
         12    1    6    6    0    0  0.10542767437E+03 -0.99095826608E+02 -0.77208898508E+02  0.16400058348E+03  0.00000000000E+00 0. -1.
         -5    1    3    3    0  503 -0.12511506126E+03  0.13363674322E+03 -0.56435007816E+03  0.59331750220E+03  0.47000000000E+01 0.  1.
         13    1    4    4    0    0 -0.96240502750E+01  0.12693520630E+02 -0.28452260533E+03  0.28496817498E+03  0.00000000000E+00 0. -1.
        -14    1    4    4    0    0  0.18101183529E+01  0.92259396630E+01  0.21655029354E+01  0.96479994859E+01  0.00000000000E+00 0.  1.
</event>
<event>
12    1  0.8251070E-002  0.2589410E+03  0.7818608E-02  0.1107809E+00
         21   -1    0    0  501  502  0.00000000000E+00  0.00000000000E+00  0.16819854275E+03  0.16819854275E+03  0.00000000000E+00 0.  1.
         21   -1    0    0  502  503 -0.00000000000E+00 -0.00000000000E+00 -0.41570788420E+03  0.41570788420E+03  0.00000000000E+00 0.  1.
         -6    2    1    2    0  503  0.36957897599E+02 -0.18907883532E+03 -0.18345129724E+03  0.31734025670E+03  0.17301377951E+03 0.  0.
        -24    2    3    3    0    0  0.15426856154E+02 -0.45918419095E+02 -0.24426982744E+02  0.10223722761E+03  0.86656125696E+02 0.  0.
          6    2    1    2  501    0 -0.36957897599E+02  0.18907883532E+03 -0.64058044203E+02  0.26656617025E+03  0.17273505126E+03 0.  0.
         24    2    5    5    0    0 -0.29931509239E+02  0.57130509894E+02 -0.84892117991E+02  0.13271595790E+03  0.79038366495E+02 0.  0.
          5    1    5    5  501    0 -0.70263883598E+01  0.13194832543E+03  0.20834073789E+02  0.13385021235E+03  0.47000000000E+01 0. -1.
        -13    1    6    6    0    0 -0.42291037238E+02  0.23816579665E+02 -0.96225582744E+01  0.49480854129E+02  0.00000000000E+00 0.  1.
         14    1    6    6    0    0  0.12359527999E+02  0.33313930229E+02 -0.75269559717E+02  0.83235103771E+02  0.00000000000E+00 0. -1.
         -5    1    3    3    0  503  0.21531041444E+02 -0.14316041623E+03 -0.15902431450E+03  0.21510302909E+03  0.47000000000E+01 0.  1.
         13    1    4    4    0    0  0.38964924918E+02 -0.60107822213E+02 -0.15041212577E+02  0.73194629180E+02  0.00000000000E+00 0. -1.
        -14    1    4    4    0    0 -0.23538068764E+02  0.14189403118E+02 -0.93857701668E+01  0.29042598431E+02  0.00000000000E+00 0.  1.
</event>
<event>
12    1  0.8251070E-002  0.1802460E+03  0.7818608E-02  0.1167914E+00
         21   -1    0    0  501  502  0.00000000000E+00  0.00000000000E+00  0.20296013246E+04  0.20296013246E+04  0.00000000000E+00 0.  1.
         21   -1    0    0  502  503 -0.00000000000E+00 -0.00000000000E+00 -0.19458844848E+02  0.19458844848E+02  0.00000000000E+00 0.  1.
         -6    2    1    2    0  503  0.48682258006E+02 -0.11274715148E+02  0.14411664231E+04  0.14522165037E+04  0.17168294353E+03 0.  0.
        -24    2    3    3    0    0  0.93407448852E+02 -0.24231045000E+02  0.85277762989E+03  0.86196937651E+03  0.80308311890E+02 0.  0.
          6    2    1    2  501    0 -0.48682258006E+02  0.11274715148E+02  0.56897605657E+03  0.59684366567E+03  0.17318061915E+03 0.  0.
         24    2    5    5    0    0  0.21845576162E+01 -0.25128699424E+02  0.13697066231E+03  0.16030799451E+03  0.79381779666E+02 0.  0.
          5    1    5    5  501    0 -0.50866815622E+02  0.36403414572E+02  0.43200539426E+03  0.43653567116E+03  0.47000000000E+01 0. -1.
        -11    1    6    6    0    0 -0.88450462316E+00  0.82731802304E+01 -0.79790191708E+01  0.11527905555E+02  0.00000000000E+00 0.  1.
         12    1    6    6    0    0  0.30690622394E+01 -0.33401879654E+02  0.14494968148E+03  0.14878008896E+03  0.00000000000E+00 0. -1.
         -5    1    3    3    0  503 -0.44725190846E+02  0.12956329852E+02  0.58838879326E+03  0.59024712724E+03  0.47000000000E+01 0.  1.
         11    1    4    4    0    0  0.23638517825E+01 -0.16676998600E+02  0.32362251543E+02  0.36483220834E+02  0.00000000000E+00 0. -1.
        -12    1    4    4    0    0  0.91043597069E+02 -0.75540464005E+01  0.82041537835E+03  0.82548615568E+03  0.00000000000E+00 0.  1.
</event>
<event>
12    1  0.8251070E-002  0.2551186E+03  0.7818608E-02  0.1110486E+00
         21   -1    0    0  501  502  0.00000000000E+00  0.00000000000E+00  0.64495882567E+03  0.64495882567E+03  0.00000000000E+00 0.  1.
         21   -1    0    0  502  503 -0.00000000000E+00 -0.00000000000E+00 -0.84798692390E+03  0.84798692390E+03  0.00000000000E+00 0.  1.
         -6    2    1    2    0  503 -0.91679123661E+02  0.16045642325E+03 -0.80255313890E+03  0.84139698202E+03  0.17235433015E+03 0.  0.
        -24    2    3    3    0    0 -0.39391847745E+02  0.13532770665E+03 -0.35516255274E+03  0.39023643609E+03  0.79238446030E+02 0.  0.
          6    2    1    2  501    0  0.91679123661E+02 -0.16045642325E+03  0.59952504068E+03  0.65154876755E+03  0.17588120030E+03 0.  0.
         24    2    5    5    0    0  0.66434337501E+02 -0.17945241013E+03  0.57525319545E+03  0.61143194793E+03  0.79473891111E+02 0.  0.
          5    1    5    5  501    0  0.25244786160E+02  0.18995986880E+02  0.24271845226E+02  0.40116819621E+02  0.47000000000E+01 0. -1.
        -13    1    6    6    0    0  0.41411405720E+02 -0.20420349538E+02  0.13335119659E+03  0.14111852051E+03  0.00000000000E+00 0.  1.
         14    1    6    6    0    0  0.25022931781E+02 -0.15903206060E+03  0.44190199885E+03  0.47031342741E+03  0.00000000000E+00 0. -1.
         -5    1    3    3    0  503 -0.52287275916E+02  0.25128716605E+02 -0.44739058616E+03  0.45116054593E+03  0.47000000000E+01 0.  1.
         13    1    4    4    0    0 -0.33886965644E+02  0.28828371532E+02 -0.49753429890E+02  0.66744327335E+02  0.00000000000E+00 0. -1.
        -14    1    4    4    0    0 -0.55048821019E+01  0.10649933512E+03 -0.30540912285E+03  0.32349210876E+03  0.00000000000E+00 0.  1.
</event>
<event>
12    1  0.8251070E-002  0.2239221E+03  0.7818608E-02  0.1131522E+00
         21   -1    0    0  501  502  0.00000000000E+00  0.00000000000E+00  0.33645974551E+03  0.33645974551E+03  0.00000000000E+00 0. -1.
         21   -1    0    0  502  503 -0.00000000000E+00 -0.00000000000E+00 -0.61217633704E+03  0.61217633704E+03  0.00000000000E+00 0. -1.
         -6    2    1    2    0  503 -0.13428696717E+03 -0.49197997331E+02 -0.55148947207E+03  0.59521572153E+03  0.17230114584E+03 0.  0.
        -24    2    3    3    0    0 -0.81492771042E+02  0.69612061521E+01 -0.46636508818E+03  0.48028385469E+03  0.80539775807E+02 0.  0.
          6    2    1    2  501    0  0.13428696717E+03  0.49197997331E+02  0.27577288055E+03  0.35342036102E+03  0.16852844698E+03 0.  0.
         24    2    5    5    0    0  0.30791946611E+02  0.14155048109E+02  0.42601155428E+02  0.95873528447E+02  0.78919995249E+02 0.  0.
          5    1    5    5  501    0  0.10349502056E+03  0.35042949222E+02  0.23317172512E+03  0.25754683257E+03  0.47000000000E+01 0. -1.
        -11    1    6    6    0    0  0.17686821925E+02  0.41713304271E+02  0.46719842445E+02  0.65081234631E+02  0.00000000000E+00 0.  1.
         12    1    6    6    0    0  0.13105124686E+02 -0.27558256162E+02 -0.41186870177E+01  0.30792293816E+02  0.00000000000E+00 0. -1.
         -5    1    3    3    0  503 -0.52794196132E+02 -0.56159203483E+02 -0.85124383896E+02  0.11493186684E+03  0.47000000000E+01 0.  1.
         13    1    4    4    0    0 -0.12472847055E+02  0.33716808944E+02 -0.22399508374E+03  0.22686161566E+03  0.00000000000E+00 0. -1.
        -14    1    4    4    0    0 -0.69019923988E+02 -0.26755602792E+02 -0.24237000443E+03  0.25342223903E+03  0.00000000000E+00 0.  1.
</event>
<event>
12    1  0.8251070E-002  0.1833944E+03  0.7818608E-02  0.1165048E+00
         21   -1    0    0  503  502  0.00000000000E+00  0.00000000000E+00  0.33189993039E+02  0.33189993039E+02  0.00000000000E+00 0.  1.
         21   -1    0    0  501  503 -0.00000000000E+00 -0.00000000000E+00 -0.11043891660E+04  0.11043891660E+04  0.00000000000E+00 0.  1.
          6    2    1    2  501    0  0.17898808732E+02  0.58394089636E+02 -0.71153658069E+03  0.73479098628E+03  0.17292556431E+03 0.  0.
         24    2    3    3    0    0  0.55917423480E+02 -0.15946841712E+02 -0.41655923030E+03  0.42818746969E+03  0.80261178910E+02 0.  0.
         -6    2    1    2    0  502 -0.17898808732E+02 -0.58394089636E+02 -0.35966259231E+03  0.40278817280E+03  0.17073633118E+03 0.  0.
        -24    2    5    5    0    0 -0.62934932724E+02 -0.36862824031E+01 -0.23257904862E+03  0.25720825072E+03  0.89937066592E+02 0.  0.
          5    1    3    3  501    0 -0.38018614748E+02  0.74340931348E+02 -0.29497735039E+03  0.30660351659E+03  0.47000000000E+01 0. -1.
        -11    1    4    4    0    0  0.48265272935E+02  0.22032018324E+02 -0.31600497968E+03  0.32042798502E+03  0.00000000000E+00 0.  1.
         12    1    4    4    0    0  0.76521505456E+01 -0.37978860036E+02 -0.10055425062E+03  0.10775948467E+03  0.00000000000E+00 0. -1.
         -5    1    5    5    0  502  0.45036123992E+02 -0.54707807233E+02 -0.12708354369E+03  0.14557992208E+03  0.47000000000E+01 0.  1.
         11    1    6    6    0    0 -0.70311692390E+02 -0.29864123092E+02 -0.20363007510E+03  0.21748748796E+03  0.00000000000E+00 0. -1.
        -12    1    6    6    0    0  0.73767596666E+01  0.26177840689E+02 -0.28948973522E+02  0.39720762761E+02  0.00000000000E+00 0.  1.
</event>
<event>
12    1  0.8251070E-002  0.2460866E+03  0.7818608E-02  0.1115829E+00
         21   -1    0    0  503  502  0.00000000000E+00  0.00000000000E+00  0.36487520773E+03  0.36487520773E+03  0.00000000000E+00 0.  1.
         21   -1    0    0  501  503 -0.00000000000E+00 -0.00000000000E+00 -0.18115582872E+03  0.18115582872E+03  0.00000000000E+00 0. -1.
          6    2    1    2  501    0 -0.11859432581E+02 -0.17489548113E+03  0.17115750282E+03  0.29962399556E+03  0.17248354265E+03 0.  0.
         24    2    3    3    0    0 -0.47351871086E+02 -0.26908724959E+02  0.69427519300E+02  0.11650962491E+03  0.76079123856E+02 0.  0.
         -6    2    1    2    0  502  0.11859432581E+02  0.17489548113E+03  0.12561876190E+02  0.24640704088E+03  0.17271234352E+03 0.  0.
        -24    2    5    5    0    0  0.60848526647E+02  0.11896855905E+03 -0.28923585714E+02  0.16113755338E+03  0.85279986278E+02 0.  0.
          5    1    3    3  501    0  0.35492438505E+02 -0.14798675617E+03  0.10172998352E+03  0.18311437065E+03  0.47000000000E+01 0. -1.
        -13    1    4    4    0    0 -0.56269024385E+02 -0.24988126027E+02  0.81019944312E+02  0.10175873881E+03  0.00000000000E+00 0.  1.
         14    1    4    4    0    0  0.89171532990E+01 -0.19205989325E+01 -0.11592425011E+02  0.14750886104E+02  0.00000000000E+00 0. -1.
         -5    1    5    5    0  502 -0.48989094066E+02  0.55926922075E+02  0.41485461905E+02  0.85269487507E+02  0.47000000000E+01 0.  1.
         13    1    6    6    0    0  0.47753523759E+02  0.10522957169E+02 -0.37620189171E+01  0.49043699344E+02  0.00000000000E+00 0. -1.
        -14    1    6    6    0    0  0.13095002888E+02  0.10844560188E+03 -0.25161566797E+02  0.11209385403E+03  0.00000000000E+00 0.  1.
</event>
<event>
12    1  0.8251070E-002  0.2290630E+03  0.7818608E-02  0.1127457E+00
         21   -1    0    0  501  502  0.00000000000E+00  0.00000000000E+00  0.41684604234E+03  0.41684604234E+03  0.00000000000E+00 0. -1.
         21   -1    0    0  502  503 -0.00000000000E+00 -0.00000000000E+00 -0.13302706608E+03  0.13302706608E+03  0.00000000000E+00 0. -1.
         -6    2    1    2    0  503 -0.14869461531E+03  0.27503361559E+02  0.76292883282E+02  0.24143419270E+03  0.17205621711E+03 0.  0.
        -24    2    3    3    0    0 -0.14718177752E+03  0.17545152446E+02  0.38727983533E+01  0.16816610068E+03  0.79338079401E+02 0.  0.
          6    2    1    2  501    0  0.14869461531E+03 -0.27503361559E+02  0.20752609298E+03  0.30843891573E+03  0.17088288957E+03 0.  0.
         24    2    5    5    0    0  0.63796692561E+01 -0.26153426361E+02  0.95828766413E+02  0.12745894734E+03  0.79611110372E+02 0.  0.
          5    1    5    5  501    0  0.14231494605E+03 -0.13499351979E+01  0.11169732656E+03  0.18097996839E+03  0.47000000000E+01 0. -1.
        -11    1    6    6    0    0 -0.44736696650E+01 -0.53921169311E+02  0.64998309496E+02  0.84571191653E+02  0.00000000000E+00 0.  1.
         12    1    6    6    0    0  0.10853338921E+02  0.27767742950E+02  0.30830456916E+02  0.42887755688E+02  0.00000000000E+00 0. -1.
         -5    1    3    3    0  503 -0.15128377895E+01  0.99582091130E+01  0.72420084929E+02  0.73268092018E+02  0.47000000000E+01 0.  1.
         11    1    4    4    0    0 -0.53212486002E+02 -0.18026851267E+01  0.38998463201E+02  0.65997715659E+02  0.00000000000E+00 0. -1.
        -12    1    4    4    0    0 -0.93969291519E+02  0.19347837573E+02 -0.35125664848E+02  0.10216838502E+03  0.00000000000E+00 0.  1.
</event>
<event>
12    1  0.8251070E-002  0.1745310E+03  0.7818608E-02  0.1173225E+00
         21   -1    0    0  501  502  0.00000000000E+00  0.00000000000E+00  0.14355566360E+03  0.14355566360E+03  0.00000000000E+00 0.  1.
         21   -1    0    0  502  503 -0.00000000000E+00 -0.00000000000E+00 -0.13199679454E+04  0.13199679454E+04  0.00000000000E+00 0.  1.
         -6    2    1    2    0  503 -0.18259507502E+02 -0.21059886302E+02 -0.12586305008E+04  0.12706737671E+04  0.17229090600E+03 0.  0.
        -24    2    3    3    0    0  0.43997972399E+02 -0.46668558501E+02 -0.89221147793E+03  0.89809251656E+03  0.80094138479E+02 0.  0.
          6    2    1    2  501    0  0.18259507502E+02  0.21059886302E+02  0.82218218983E+02  0.19284984197E+03  0.17220423221E+03 0.  0.
         24    2    5    5    0    0 -0.10629593709E+02  0.19783084249E+02 -0.20259507766E+02  0.86266612184E+02  0.80790606124E+02 0.  0.
          5    1    5    5  501    0  0.28889101211E+02  0.12768020537E+01  0.10247772675E+03  0.10658322979E+03  0.47000000000E+01 0. -1.
        -11    1    6    6    0    0  0.30817225292E+02 -0.10461558450E+02 -0.76838729259E+01  0.33439310445E+02  0.00000000000E+00 0.  1.
         12    1    6    6    0    0 -0.41446819002E+02  0.30244642699E+02 -0.12575634840E+02  0.52827301738E+02  0.00000000000E+00 0. -1.
         -5    1    3    3    0  503 -0.62257479900E+02  0.25608672199E+02 -0.36641902287E+03  0.37258125049E+03  0.47000000000E+01 0.  1.
         11    1    4    4    0    0  0.28981725680E+00  0.18292591155E+02 -0.32346764135E+03  0.32398459513E+03  0.00000000000E+00 0. -1.
        -12    1    4    4    0    0  0.43708155142E+02 -0.64961149656E+02 -0.56874383658E+03  0.57410792142E+03  0.00000000000E+00 0.  1.
</event>
<event>
12    1  0.8251070E-002  0.1993603E+03  0.7818608E-02  0.1150416E+00
         21   -1    0    0  503  502  0.00000000000E+00  0.00000000000E+00  0.20371785927E+02  0.20371785927E+02  0.00000000000E+00 0.  1.
         21   -1    0    0  501  503 -0.00000000000E+00 -0.00000000000E+00 -0.25842426106E+04  0.25842426106E+04  0.00000000000E+00 0.  1.
          6    2    1    2  501    0  0.90320785287E+02  0.44453499664E+02 -0.19313410162E+04  0.19416031087E+04  0.17207717111E+03 0.  0.
         24    2    3    3    0    0  0.77894738967E+02 -0.36042066380E+02 -0.10033185363E+04  0.10100013934E+04  0.78026331245E+02 0.  0.
         -6    2    1    2    0  502 -0.90320785287E+02 -0.44453499664E+02 -0.63252980846E+03  0.66301128786E+03  0.17133607718E+03 0.  0.
        -24    2    5    5    0    0 -0.67185225500E+02 -0.29170943828E+02 -0.62441058618E+03  0.63373975886E+03  0.79829213532E+02 0.  0.
          5    1    3    3  501    0  0.12426046320E+02  0.80495566044E+02 -0.92802247991E+03  0.93160171532E+03  0.47000000000E+01 0. -1.
        -11    1    4    4    0    0  0.19604029132E+02 -0.12416146464E+02 -0.69219889557E+03  0.69258774872E+03  0.00000000000E+00 0.  1.
         12    1    4    4    0    0  0.58290709835E+02 -0.23625919916E+02 -0.31111964074E+03  0.31741364464E+03  0.00000000000E+00 0. -1.
         -5    1    5    5    0  502 -0.23135559788E+02 -0.15282555836E+02 -0.81192222857E+01  0.29271529002E+02  0.47000000000E+01 0.  1.
         13    1    6    6    0    0  0.13257647801E+02 -0.24350509791E+02 -0.15374613266E+03  0.15622607292E+03  0.00000000000E+00 0. -1.
        -14    1    6    6    0    0 -0.80442873301E+02 -0.48204340370E+01 -0.47066445352E+03  0.47751368594E+03  0.00000000000E+00 0.  1.
</event>
<event>
12    1  0.8251070E-002  0.1925373E+03  0.7818608E-02  0.1156242E+00
         21   -1    0    0  501  502  0.00000000000E+00  0.00000000000E+00  0.36317305406E+02  0.36317305406E+02  0.00000000000E+00 0. -1.
         21   -1    0    0  502  503 -0.00000000000E+00 -0.00000000000E+00 -0.10401030598E+04  0.10401030598E+04  0.00000000000E+00 0. -1.
         -6    2    1    2    0  503  0.11618155533E+02  0.86019413311E+02 -0.57725035651E+03  0.60844273951E+03  0.17161081601E+03 0.  0.
        -24    2    3    3    0    0 -0.40285417188E+02  0.95790596910E+02 -0.31981408565E+03  0.34560252105E+03  0.79757757483E+02 0.  0.
          6    2    1    2  501    0 -0.11618155533E+02 -0.86019413311E+02 -0.42653539787E+03  0.46797762568E+03  0.17186125653E+03 0.  0.
         24    2    5    5    0    0 -0.93946003034E-01  0.21113918472E+02 -0.21811561232E+03  0.23330497028E+03  0.80068610825E+02 0.  0.
          5    1    5    5  501    0 -0.11524209530E+02 -0.10713333178E+03 -0.20841978555E+03  0.23467265540E+03  0.47000000000E+01 0. -1.
        -11    1    6    6    0    0 -0.32997231111E+02  0.14790995912E+02 -0.48977006399E+02  0.60879700861E+02  0.00000000000E+00 0.  1.
         12    1    6    6    0    0  0.32903285108E+02  0.63229225598E+01 -0.16913860592E+03  0.17242526942E+03  0.00000000000E+00 0. -1.
         -5    1    3    3    0  503  0.51903572721E+02 -0.97711835994E+01 -0.25743627086E+03  0.26284021847E+03  0.47000000000E+01 0.  1.
         13    1    4    4    0    0 -0.24266598214E+02  0.65211813602E+02 -0.29498503031E+03  0.30308021467E+03  0.00000000000E+00 0. -1.
        -14    1    4    4    0    0 -0.16018818974E+02  0.30578783309E+02 -0.24829055345E+02  0.42522306373E+02  0.00000000000E+00 0.  1.
</event>
<event>
12    1  0.8251070E-002  0.2112987E+03  0.7818608E-02  0.1141067E+00
         21   -1    0    0  503  502  0.00000000000E+00  0.00000000000E+00  0.60277279446E+03  0.60277279446E+03  0.00000000000E+00 0. -1.
         21   -1    0    0  501  503 -0.00000000000E+00 -0.00000000000E+00 -0.90613063476E+02  0.90613063476E+02  0.00000000000E+00 0. -1.
          6    2    1    2  501    0  0.94801722530E+02 -0.72052711002E+02  0.40700811780E+03  0.45736887910E+03  0.17132344805E+03 0.  0.
         24    2    3    3    0    0  0.62098206073E+02 -0.42986000131E+02  0.10320715262E+03  0.15039736557E+03  0.79143337147E+02 0.  0.
         -6    2    1    2    0  502 -0.94801722530E+02  0.72052711002E+02  0.10515161318E+03  0.23601697883E+03  0.17455140443E+03 0.  0.
        -24    2    5    5    0    0 -0.30004166536E+02  0.58575764249E+02 -0.90241739664E+01  0.10396187016E+03  0.79970398053E+02 0.  0.
          5    1    3    3  501    0  0.32703516457E+02 -0.29066710871E+02  0.30380096518E+03  0.30697151352E+03  0.47000000000E+01 0. -1.
        -11    1    4    4    0    0  0.51391718661E+02 -0.65819402105E+02  0.85969806939E+02  0.11985036565E+03  0.00000000000E+00 0.  1.
         12    1    4    4    0    0  0.10706487412E+02  0.22833401974E+02  0.17237345682E+02  0.30546999928E+02  0.00000000000E+00 0. -1.
         -5    1    5    5    0  502 -0.64797555994E+02  0.13476946753E+02  0.11417578715E+03  0.13205510867E+03  0.47000000000E+01 0.  1.
         11    1    6    6    0    0 -0.55143987532E+02  0.46933997156E+02  0.56093954291E+01  0.72630054159E+02  0.00000000000E+00 0. -1.
        -12    1    6    6    0    0  0.25139820996E+02  0.11641767093E+02 -0.14633569396E+02  0.31331816003E+02  0.00000000000E+00 0.  1.
</event>
<event>
12    1  0.8251070E-002  0.2122838E+03  0.7818608E-02  0.1139907E+00
         21   -1    0    0  503  502  0.00000000000E+00  0.00000000000E+00  0.41571284218E+03  0.41571284218E+03  0.00000000000E+00 0.  1.
         21   -1    0    0  501  503 -0.00000000000E+00 -0.00000000000E+00 -0.11005072601E+03  0.11005072601E+03  0.00000000000E+00 0.  1.
          6    2    1    2  501    0  0.18682972245E+02 -0.12352693896E+03  0.18807432306E+03  0.28308824241E+03  0.17076019412E+03 0.  0.
         24    2    3    3    0    0  0.44620752201E+01 -0.57583866939E+02  0.26489857263E+02  0.10792445550E+03  0.87236252267E+02 0.  0.
         -6    2    1    2    0  502 -0.18682972245E+02  0.12352693896E+03  0.11758779311E+03  0.24267532577E+03  0.17162886281E+03 0.  0.
        -24    2    5    5    0    0 -0.94182873458E+01  0.19586135150E+02 -0.37912731562E+01  0.82536346099E+02  0.79533350543E+02 0.  0.
          5    1    3    3  501    0  0.14220897025E+02 -0.65943072021E+02  0.16158446580E+03  0.17516378692E+03  0.47000000000E+01 0. -1.
        -13    1    4    4    0    0  0.51072362331E+01 -0.80438202248E+02  0.27154132925E+02  0.85051367877E+02  0.00000000000E+00 0.  1.
         14    1    4    4    0    0 -0.64516101302E+00  0.22854335309E+02 -0.66427566281E+00  0.22873087620E+02  0.00000000000E+00 0. -1.
         -5    1    5    5    0  502 -0.92646848995E+01  0.10394080381E+03  0.12137906627E+03  0.16013897967E+03  0.47000000000E+01 0.  1.
         13    1    6    6    0    0  0.12841531038E+02 -0.10915765877E+02  0.28328273904E+02  0.32962857377E+02  0.00000000000E+00 0. -1.
        -14    1    6    6    0    0 -0.22259818384E+02  0.30501901027E+02 -0.32119547060E+02  0.49573488722E+02  0.00000000000E+00 0.  1.
</event>
<event>
12    1  0.8251070E-002  0.2146003E+03  0.7818608E-02  0.1138285E+00
         21   -1    0    0  503  502  0.00000000000E+00  0.00000000000E+00  0.23451156965E+04  0.23451156965E+04  0.00000000000E+00 0.  1.
         21   -1    0    0  501  503 -0.00000000000E+00 -0.00000000000E+00 -0.19703183715E+02  0.19703183715E+02  0.00000000000E+00 0.  1.
          6    2    1    2  501    0  0.59469572185E+02  0.11165894698E+03  0.10357102030E+04  0.10573842449E+04  0.17135187850E+03 0.  0.
         24    2    3    3    0    0  0.21447305630E+02  0.12380132035E+03  0.96217605416E+03  0.97358394040E+03  0.79348446562E+02 0.  0.
         -6    2    1    2    0  502 -0.59469572185E+02 -0.11165894698E+03  0.12897023098E+04  0.13074346354E+04  0.17334626432E+03 0.  0.
        -24    2    5    5    0    0  0.26870131600E+01 -0.46098222638E+02  0.10171557403E+04  0.10202667886E+04  0.64855637068E+02 0.  0.
          5    1    3    3  501    0  0.38022266555E+02 -0.12142373367E+02  0.73534148839E+02  0.83800304477E+02  0.47000000000E+01 0. -1.
        -11    1    4    4    0    0  0.40201746781E+02  0.42422759958E+02  0.54545742292E+03  0.54857968539E+03  0.00000000000E+00 0.  1.
         12    1    4    4    0    0 -0.18754441151E+02  0.81378560391E+02  0.41671863124E+03  0.42500425501E+03  0.00000000000E+00 0. -1.
         -5    1    5    5    0  502 -0.62156585345E+02 -0.65560724344E+02  0.27254656947E+03  0.28716784675E+03  0.47000000000E+01 0.  1.
         11    1    6    6    0    0  0.30970832024E+02 -0.11877288315E+02  0.55252729005E+03  0.55352205797E+03  0.00000000000E+00 0. -1.
        -12    1    6    6    0    0 -0.28283818864E+02 -0.34220934323E+02  0.46462845029E+03  0.46674473063E+03  0.00000000000E+00 0.  1.
</event>
<event>
12    1  0.8251070E-002  0.1749292E+03  0.7818608E-02  0.1172851E+00
         21   -1    0    0  503  502  0.00000000000E+00  0.00000000000E+00  0.15161075105E+03  0.15161075105E+03  0.00000000000E+00 0. -1.
         21   -1    0    0  501  503 -0.00000000000E+00 -0.00000000000E+00 -0.47572103414E+03  0.47572103414E+03  0.00000000000E+00 0. -1.
          6    2    1    2  501    0  0.33785397190E+02 -0.59235781255E+01 -0.40018866253E+03  0.43675071346E+03  0.17153331527E+03 0.  0.
         24    2    3    3    0    0  0.61860039754E+02 -0.57636722437E+01 -0.10936060727E+03  0.14453288571E+03  0.71204832659E+02 0.  0.
         -6    2    1    2    0  502 -0.33785397190E+02  0.59235781255E+01  0.76078379439E+02  0.19058107173E+03  0.17133792121E+03 0.  0.
        -24    2    5    5    0    0 -0.78779470701E+01 -0.12228330247E+02  0.11423970295E+03  0.14079086826E+03  0.80992374618E+02 0.  0.
          5    1    3    3  501    0 -0.28074642564E+02 -0.15990588181E+00 -0.29082805526E+03  0.29221782775E+03  0.47000000000E+01 0. -1.
        -13    1    4    4    0    0  0.14873764132E+02 -0.21996078972E+02 -0.85237892452E+02  0.89277962898E+02  0.00000000000E+00 0.  1.
         14    1    4    4    0    0  0.46986275622E+02  0.16232406728E+02 -0.24122714815E+02  0.55254922813E+02  0.00000000000E+00 0. -1.
         -5    1    5    5    0  502 -0.25907450120E+02  0.18151908373E+02 -0.38161323510E+02  0.49790203467E+02  0.47000000000E+01 0.  1.
         11    1    6    6    0    0 -0.86061622458E+01  0.34424641848E+02  0.53522474817E+02  0.64216643524E+02  0.00000000000E+00 0. -1.
        -12    1    6    6    0    0  0.72821517567E+00 -0.46652972095E+02  0.60717228131E+02  0.76574224740E+02  0.00000000000E+00 0.  1.
</event>
<event>
12    1  0.8251070E-002  0.2019202E+03  0.7818608E-02  0.1148416E+00
         21   -1    0    0  501  502  0.00000000000E+00  0.00000000000E+00  0.60344333194E+02  0.60344333194E+02  0.00000000000E+00 0. -1.
         21   -1    0    0  502  503 -0.00000000000E+00 -0.00000000000E+00 -0.13275480262E+04  0.13275480262E+04  0.00000000000E+00 0. -1.
         -6    2    1    2    0  503  0.10212723872E+03  0.12666068672E+02 -0.11204990617E+04  0.11383046326E+04  0.17213043657E+03 0.  0.
        -24    2    3    3    0    0  0.13923420023E+02 -0.44624190898E+02 -0.43286357222E+03  0.44265619852E+03  0.79927829294E+02 0.  0.
          6    2    1    2  501    0 -0.10212723872E+03 -0.12666068672E+02 -0.14670463126E+03  0.24958772673E+03  0.17372789734E+03 0.  0.
         24    2    5    5    0    0  0.59838938671E-01  0.24817828909E+02 -0.10139348510E+03  0.13159437359E+03  0.80128098239E+02 0.  0.
          5    1    5    5  501    0 -0.10218707765E+03 -0.37483897582E+02 -0.45311146155E+02  0.11799335313E+03  0.47000000000E+01 0. -1.
        -11    1    6    6    0    0  0.41782099705E+01  0.45657997818E+02 -0.24834313560E+02  0.52142624917E+02  0.00000000000E+00 0.  1.
         12    1    6    6    0    0 -0.41183710318E+01 -0.20840168908E+02 -0.76559171545E+02  0.79451748676E+02  0.00000000000E+00 0. -1.
         -5    1    3    3    0  503  0.88203818692E+02  0.57290259570E+02 -0.68763548949E+03  0.69564843411E+03  0.47000000000E+01 0.  1.
         13    1    4    4    0    0  0.20636769379E+01 -0.34244151908E+01 -0.34367489747E+03  0.34369815323E+03  0.00000000000E+00 0. -1.
        -14    1    4    4    0    0  0.11859743085E+02 -0.41199775707E+02 -0.89188674748E+02  0.98958045290E+02  0.00000000000E+00 0.  1.
</event>
<event>
12    1  0.8251070E-002  0.1848485E+03  0.7818608E-02  0.1164455E+00
         21   -1    0    0  503  502  0.00000000000E+00  0.00000000000E+00  0.51040691868E+03  0.51040691868E+03  0.00000000000E+00 0.  1.
         21   -1    0    0  501  503 -0.00000000000E+00 -0.00000000000E+00 -0.10770617002E+03  0.10770617002E+03  0.00000000000E+00 0.  1.
          6    2    1    2  501    0  0.32416498941E+02 -0.30335599399E+02  0.85993124934E+01  0.18504837341E+03  0.17943766141E+03 0.  0.
         24    2    3    3    0    0  0.61160968500E+02 -0.29011878992E+02 -0.52556745331E+02  0.11729772637E+03  0.80088650509E+02 0.  0.
         -6    2    1    2    0  502 -0.32416498941E+02  0.30335599399E+02  0.39410143616E+03  0.43306471529E+03  0.17394834764E+03 0.  0.
        -24    2    5    5    0    0  0.37763252966E+01 -0.33548111133E+02  0.11099854186E+03  0.14055764228E+03  0.79347577874E+02 0.  0.
          5    1    3    3  501    0 -0.28744469559E+02 -0.13237204062E+01  0.61156057824E+02  0.67750647042E+02  0.47000000000E+01 0. -1.
        -13    1    4    4    0    0  0.43664570688E+02  0.23082597195E+02 -0.19065971811E+02  0.52942537791E+02  0.00000000000E+00 0.  1.
         14    1    4    4    0    0  0.17496397812E+02 -0.52094476187E+02 -0.33490773520E+02  0.64355188575E+02  0.00000000000E+00 0. -1.
         -5    1    5    5    0  502 -0.36192824238E+02  0.63883710531E+02  0.28310289431E+03  0.29250707301E+03  0.47000000000E+01 0.  1.
         13    1    6    6    0    0 -0.29847431677E+02 -0.41408563777E+02  0.74540115411E+02  0.90342499065E+02  0.00000000000E+00 0. -1.
        -14    1    6    6    0    0  0.33623756974E+02  0.78604526438E+01  0.36458426447E+02  0.50215143212E+02  0.00000000000E+00 0.  1.
</event>
<event>
12    1  0.8251070E-002  0.3027372E+03  0.7818608E-02  0.1083904E+00
         21   -1    0    0  501  502  0.00000000000E+00  0.00000000000E+00  0.13011724689E+04  0.13011724689E+04  0.00000000000E+00 0.  1.
         21   -1    0    0  502  503 -0.00000000000E+00 -0.00000000000E+00 -0.82999688853E+02  0.82999688853E+02  0.00000000000E+00 0. -1.
         -6    2    1    2    0  503 -0.24412272073E+03 -0.11579525486E+02  0.87899625302E+03  0.92966887359E+03  0.17866116957E+03 0.  0.
        -24    2    3    3    0    0 -0.13193016092E+03 -0.27369417020E+02  0.70147631301E+03  0.71902246310E+03  0.82277775746E+02 0.  0.
          6    2    1    2  501    0  0.24412272073E+03  0.11579525486E+02  0.33917652706E+03  0.45450328420E+03  0.17833264045E+03 0.  0.
         24    2    5    5    0    0  0.15704445258E+03  0.19439089407E+02  0.10766728721E+03  0.20698961657E+03  0.78813820790E+02 0.  0.
          5    1    5    5  501    0  0.87078268154E+02 -0.78595639214E+01  0.23150923985E+03  0.24751366763E+03  0.47000000000E+01 0. -1.
        -13    1    6    6    0    0  0.29607135813E+02 -0.31159029311E+01  0.63689070859E+02  0.70303549619E+02  0.00000000000E+00 0.  1.
         14    1    6    6    0    0  0.12743731676E+03  0.22554992338E+02  0.43978216355E+02  0.13668606695E+03  0.00000000000E+00 0. -1.
         -5    1    3    3    0  503 -0.11219255981E+03  0.15789891534E+02  0.17751994002E+03  0.21064641049E+03  0.47000000000E+01 0.  1.
         11    1    4    4    0    0 -0.11233939537E+02  0.12779203780E+02  0.23189873124E+03  0.23252210862E+03  0.00000000000E+00 0. -1.
        -12    1    4    4    0    0 -0.12069622139E+03 -0.40148620799E+02  0.46957758177E+03  0.48650035448E+03  0.00000000000E+00 0.  1.
</event>
<event>
12    1  0.8251070E-002  0.1781886E+03  0.7818608E-02  0.1170969E+00
         21   -1    0    0  501  502  0.00000000000E+00  0.00000000000E+00  0.21326818252E+03  0.21326818252E+03  0.00000000000E+00 0.  1.
         21   -1    0    0  502  503 -0.00000000000E+00 -0.00000000000E+00 -0.25012709459E+03  0.25012709459E+03  0.00000000000E+00 0.  1.
         -6    2    1    2    0  503 -0.14506226714E+02 -0.17020732163E+02 -0.16935215091E+03  0.24582784084E+03  0.17677963790E+03 0.  0.
        -24    2    3    3    0    0  0.29678271995E+02  0.47817781979E+02 -0.74251110075E+02  0.12244793644E+03  0.79453946964E+02 0.  0.
          6    2    1    2  501    0  0.14506226714E+02  0.17020732163E+02  0.13249323883E+03  0.21756743627E+03  0.17111690463E+03 0.  0.
         24    2    5    5    0    0  0.69590888731E+02  0.52783544540E+01  0.49163203999E+02  0.11687886626E+03  0.79830419840E+02 0.  0.
          5    1    5    5  501    0 -0.55084662017E+02  0.11742377709E+02  0.83330034835E+02  0.10068857000E+03  0.47000000000E+01 0. -1.
        -13    1    6    6    0    0  0.55979780017E+01  0.21818250696E+02  0.45394369714E+02  0.50675657104E+02  0.00000000000E+00 0.  1.
         14    1    6    6    0    0  0.63992910730E+02 -0.16539896242E+02  0.37688342845E+01  0.66203209161E+02  0.00000000000E+00 0. -1.
         -5    1    3    3    0  503 -0.44184498709E+02 -0.64838514142E+02 -0.95101040835E+02  0.12337990440E+03  0.47000000000E+01 0.  1.
         13    1    4    4    0    0  0.19587092970E+02 -0.15291853130E+02 -0.49582634026E+00  0.24854392508E+02  0.00000000000E+00 0. -1.
        -14    1    4    4    0    0  0.10091179025E+02  0.63109635109E+02 -0.73755283735E+02  0.97593543929E+02  0.00000000000E+00 0.  1.
</event>
<event>
12    1  0.8251070E-002  0.2105328E+03  0.7818608E-02  0.1141314E+00
         21   -1    0    0  501  502  0.00000000000E+00  0.00000000000E+00  0.14070364048E+04  0.14070364048E+04  0.00000000000E+00 0. -1.
         21   -1    0    0  502  503 -0.00000000000E+00 -0.00000000000E+00 -0.10420878490E+03  0.10420878490E+03  0.00000000000E+00 0.  1.
         -6    2    1    2    0  503 -0.91386796973E+02  0.78170108815E+02  0.19300067510E+02  0.21056573641E+03  0.17176531713E+03 0.  0.
        -24    2    3    3    0    0 -0.59764510750E+02 -0.10512816450E+02 -0.25166623534E+02  0.10633518987E+03  0.83615175711E+02 0.  0.
          6    2    1    2  501    0  0.91386796973E+02 -0.78170108815E+02  0.12835275524E+04  0.13006794533E+04  0.17280610499E+03 0.  0.
         24    2    5    5    0    0  0.63436400126E+02  0.55703250851E+01  0.91180527183E+03  0.91858885041E+03  0.91440783989E+02 0.  0.
          5    1    5    5  501    0  0.27950396846E+02 -0.83740433900E+02  0.37172228060E+03  0.38209060293E+03  0.47000000000E+01 0. -1.
        -13    1    6    6    0    0  0.70397866699E+02  0.21481730960E+02  0.87272495814E+03  0.87582314251E+03  0.00000000000E+00 0.  1.
         14    1    6    6    0    0 -0.69614665723E+01 -0.15911405875E+02  0.39080313691E+02  0.42765707897E+02  0.00000000000E+00 0. -1.
         -5    1    3    3    0  503 -0.31622286223E+02  0.88682925264E+02  0.44466691044E+02  0.10423054654E+03  0.47000000000E+01 0.  1.
         11    1    4    4    0    0  0.35747565363E+00 -0.26196865001E+02  0.17011466504E+02  0.31237693855E+02  0.00000000000E+00 0. -1.
        -12    1    4    4    0    0 -0.60121986403E+02  0.15684048552E+02 -0.42178090038E+02  0.75097496012E+02  0.00000000000E+00 0.  1.
</event>
<event>
12    1  0.8251070E-002  0.2882548E+03  0.7818608E-02  0.1091281E+00
         21   -1    0    0  501  502  0.00000000000E+00  0.00000000000E+00  0.13525156436E+04  0.13525156436E+04  0.00000000000E+00 0. -1.
         21   -1    0    0  502  503 -0.00000000000E+00 -0.00000000000E+00 -0.94258937281E+02  0.94258937281E+02  0.00000000000E+00 0.  1.
         -6    2    1    2    0  503 -0.79210467067E+02 -0.21678084383E+03  0.10562884011E+04  0.10949137108E+04  0.17269225619E+03 0.  0.
        -24    2    3    3    0    0 -0.43535814968E+02 -0.31794519898E+02  0.44532718508E+03  0.45554815152E+03  0.79382352610E+02 0.  0.
          6    2    1    2  501    0  0.79210467067E+02  0.21678084383E+03  0.20196830524E+03  0.35186087015E+03  0.17247215218E+03 0.  0.
         24    2    5    5    0    0  0.22458102811E+02  0.13794274864E+03  0.44127576909E+02  0.16646383236E+03  0.78932858534E+02 0.  0.
          5    1    5    5  501    0  0.56752364256E+02  0.78838095183E+02  0.15784072833E+03  0.18539703778E+03  0.47000000000E+01 0. -1.
        -11    1    6    6    0    0 -0.19640727705E+01  0.39764956926E+02  0.51419832587E+02  0.65031596662E+02  0.00000000000E+00 0.  1.
         12    1    6    6    0    0  0.24422175582E+02  0.98177791716E+02 -0.72922556778E+01  0.10143223570E+03  0.00000000000E+00 0. -1.
         -5    1    3    3    0  503 -0.35674652099E+02 -0.18498632393E+03  0.61096121604E+03  0.63936555925E+03  0.47000000000E+01 0.  1.
         11    1    4    4    0    0 -0.28076225726E+02 -0.16144674288E+02  0.42288204914E+03  0.42412044568E+03  0.00000000000E+00 0. -1.
        -12    1    4    4    0    0 -0.15459589242E+02 -0.15649845610E+02  0.22445135932E+02  0.31427705837E+02  0.00000000000E+00 0.  1.
</event>
<event>
12    1  0.8251070E-002  0.2949502E+03  0.7818608E-02  0.1087798E+00
         21   -1    0    0  503  502  0.00000000000E+00  0.00000000000E+00  0.53897565626E+03  0.53897565626E+03  0.00000000000E+00 0.  1.
         21   -1    0    0  501  503 -0.00000000000E+00 -0.00000000000E+00 -0.19009068055E+03  0.19009068055E+03  0.00000000000E+00 0. -1.
          6    2    1    2  501    0  0.23791755513E+03 -0.36607488909E+02  0.32798281007E+02  0.29676817514E+03  0.17044280935E+03 0.  0.
         24    2    3    3    0    0  0.52158254983E+02 -0.50996993906E+02  0.31192975522E+02  0.11038619520E+03  0.76752416363E+02 0.  0.
         -6    2    1    2    0  502 -0.23791755513E+03  0.36607488909E+02  0.31608669471E+03  0.43229816166E+03  0.17037027536E+03 0.  0.
        -24    2    5    5    0    0 -0.50937799485E+02 -0.60747276724E+01  0.59809988037E+02  0.11216843637E+03  0.79830831869E+02 0.  0.
          5    1    3    3  501    0  0.18575930014E+03  0.14389504996E+02  0.16053054850E+01  0.18638197995E+03  0.47000000000E+01 0. -1.
        -13    1    4    4    0    0 -0.62212251368E+01  0.77397223359E+01  0.25513266745E+02  0.27377613557E+02  0.00000000000E+00 0.  1.
         14    1    4    4    0    0  0.58379480120E+02 -0.58736716241E+02  0.56797087770E+01  0.83008581639E+02  0.00000000000E+00 0. -1.
         -5    1    5    5    0  502 -0.18697975564E+03  0.42682216582E+02  0.25627670667E+03  0.32012972529E+03  0.47000000000E+01 0.  1.
         13    1    6    6    0    0 -0.20152509762E+02 -0.36238076611E+02  0.40049069583E+01  0.41657665872E+02  0.00000000000E+00 0. -1.
        -14    1    6    6    0    0 -0.30785289723E+02  0.30163348939E+02  0.55805081079E+02  0.70510770502E+02  0.00000000000E+00 0.  1.
</event>
<event>
12    1  0.8251070E-002  0.2707050E+03  0.7818608E-02  0.1102002E+00
         21   -1    0    0  503  502  0.00000000000E+00  0.00000000000E+00  0.62304851843E+02  0.62304851843E+02  0.00000000000E+00 0.  1.
         21   -1    0    0  501  503 -0.00000000000E+00 -0.00000000000E+00 -0.11477278533E+04  0.11477278533E+04  0.00000000000E+00 0.  1.
          6    2    1    2  501    0 -0.14634430287E+03  0.14745253518E+03 -0.59073627697E+03  0.64980810441E+03  0.17355782471E+03 0.  0.
         24    2    3    3    0    0 -0.27298651689E+02  0.21458023229E+02 -0.28513073962E+03  0.29843462994E+03  0.80981643122E+02 0.  0.
         -6    2    1    2    0  502  0.14634430287E+03 -0.14745253518E+03 -0.49468672445E+03  0.56022460069E+03  0.16117612342E+03 0.  0.
        -24    2    5    5    0    0  0.30808102589E+02 -0.10058680456E+03 -0.34509009770E+03  0.36542662581E+03  0.58160114219E+02 0.  0.
          5    1    3    3  501    0 -0.11904565118E+03  0.12599451195E+03 -0.30560553735E+03  0.35137347447E+03  0.47000000000E+01 0. -1.
        -13    1    4    4    0    0  0.14361415618E+01  0.47596178532E+02 -0.12790009921E+03  0.13647671629E+03  0.00000000000E+00 0.  1.
         14    1    4    4    0    0 -0.28734793251E+02 -0.26138155302E+02 -0.15723064042E+03  0.16195791364E+03  0.00000000000E+00 0. -1.
         -5    1    5    5    0  502  0.11553620028E+03 -0.46865730614E+02 -0.14959662675E+03  0.19479797488E+03  0.47000000000E+01 0.  1.
         13    1    6    6    0    0 -0.12122336178E+02 -0.24182723370E+01 -0.25177502125E+02  0.28048274256E+02  0.00000000000E+00 0. -1.
        -14    1    6    6    0    0  0.42930438767E+02 -0.98168532228E+02 -0.31991259557E+03  0.33737835156E+03  0.00000000000E+00 0.  1.
</event>
<event>
12    1  0.8251070E-002  0.1870915E+03  0.7818608E-02  0.1162128E+00
         21   -1    0    0  501  502  0.00000000000E+00  0.00000000000E+00  0.34094619619E+02  0.34094619619E+02  0.00000000000E+00 0. -1.
         21   -1    0    0  502  503 -0.00000000000E+00 -0.00000000000E+00 -0.10036059875E+04  0.10036059875E+04  0.00000000000E+00 0. -1.
         -6    2    1    2    0  503 -0.67694044030E+02  0.33028408329E+02 -0.47614640398E+03  0.51158444400E+03  0.17125970328E+03 0.  0.
        -24    2    3    3    0    0 -0.87390479124E+02  0.58314116709E+02 -0.24582143972E+03  0.27899253579E+03  0.79818686734E+02 0.  0.
          6    2    1    2  501    0  0.67694044030E+02 -0.33028408329E+02 -0.49336496387E+03  0.52611616308E+03  0.16648084014E+03 0.  0.
         24    2    5    5    0    0 -0.77355885003E+01 -0.11896853218E+02 -0.12245564086E+03  0.14699614518E+03  0.80069396604E+02 0.  0.
          5    1    5    5  501    0  0.75429632531E+02 -0.21131555111E+02 -0.37090932300E+03  0.37912001790E+03  0.47000000000E+01 0. -1.
        -13    1    6    6    0    0 -0.34989948458E+02  0.19092613300E+02 -0.55176291814E+02  0.68067962758E+02  0.00000000000E+00 0.  1.
         14    1    6    6    0    0  0.27254359958E+02 -0.30989466518E+02 -0.67279349051E+02  0.78928182422E+02  0.00000000000E+00 0. -1.
         -5    1    3    3    0  503  0.19696435094E+02 -0.25285708380E+02 -0.23032496426E+03  0.23259190821E+03  0.47000000000E+01 0.  1.
         13    1    4    4    0    0 -0.34466526368E+02 -0.13017103207E+01 -0.20823430182E+02  0.40289590891E+02  0.00000000000E+00 0. -1.
        -14    1    4    4    0    0 -0.52923952757E+02  0.59615827030E+02 -0.22499800954E+03  0.23870294490E+03  0.00000000000E+00 0.  1.
</event>
<event>
12    1  0.8251070E-002  0.1825094E+03  0.7818608E-02  0.1165447E+00
         21   -1    0    0  503  502  0.00000000000E+00  0.00000000000E+00  0.12510062547E+03  0.12510062547E+03  0.00000000000E+00 0. -1.
         21   -1    0    0  501  503 -0.00000000000E+00 -0.00000000000E+00 -0.32137773887E+03  0.32137773887E+03  0.00000000000E+00 0. -1.
          6    2    1    2  501    0 -0.38474626453E+02  0.50971248240E+02 -0.19089509492E+03  0.26410339947E+03  0.17097164478E+03 0.  0.
         24    2    3    3    0    0 -0.62919905889E+02  0.21310453023E+02 -0.45149905618E+02  0.11330192512E+03  0.79910964793E+02 0.  0.
         -6    2    1    2    0  502  0.38474626453E+02 -0.50971248240E+02 -0.53820184824E+01  0.18237496487E+03  0.17074336491E+03 0.  0.
        -24    2    5    5    0    0 -0.25405583740E+02  0.13507879229E+02 -0.25326659478E+02  0.89325957149E+02  0.80683210483E+02 0.  0.
          5    1    3    3  501    0  0.24445279436E+02  0.29660795218E+02 -0.14574518931E+03  0.15080147435E+03  0.47000000000E+01 0. -1.
        -11    1    4    4    0    0  0.83106076077E+01 -0.99145692514E+01 -0.31878806800E+02  0.34403825444E+02  0.00000000000E+00 0.  1.
         12    1    4    4    0    0 -0.71230513497E+02  0.31225022274E+02 -0.13271098818E+02  0.78898099678E+02  0.00000000000E+00 0. -1.
         -5    1    5    5    0  502  0.63880210193E+02 -0.64479127469E+02  0.19944640995E+02  0.93049007721E+02  0.47000000000E+01 0.  1.
         13    1    6    6    0    0 -0.13153993482E+02 -0.16072406668E+02  0.23231987383E+02  0.31162076927E+02  0.00000000000E+00 0. -1.
        -14    1    6    6    0    0 -0.12251590258E+02  0.29580285897E+02 -0.48558646860E+02  0.58163880223E+02  0.00000000000E+00 0.  1.
</event>
<event>
12    1  0.8251070E-002  0.2436665E+03  0.7818608E-02  0.1117437E+00
         21   -1    0    0  503  502  0.00000000000E+00  0.00000000000E+00  0.28471066155E+03  0.28471066155E+03  0.00000000000E+00 0. -1.
         21   -1    0    0  501  503 -0.00000000000E+00 -0.00000000000E+00 -0.63403549849E+03  0.63403549849E+03  0.00000000000E+00 0.  1.
          6    2    1    2  501    0  0.14657215432E+03 -0.91900491667E+02 -0.55108128428E+03  0.60239345631E+03  0.17105027779E+03 0.  0.
         24    2    3    3    0    0  0.87925057334E+02 -0.77930049571E+02 -0.50906769033E+03  0.52875999032E+03  0.81445108445E+02 0.  0.
         -6    2    1    2    0  502 -0.14657215432E+03  0.91900491667E+02  0.20175644733E+03  0.31635270373E+03  0.17159333416E+03 0.  0.
        -24    2    5    5    0    0 -0.12678347952E+03  0.72549552003E+01  0.16334007772E+03  0.22119827163E+03  0.78243270191E+02 0.  0.
          5    1    3    3  501    0  0.58647096984E+02 -0.13970442096E+02 -0.42013593944E+02  0.73633465986E+02  0.47000000000E+01 0. -1.
        -11    1    4    4    0    0  0.24571989202E+02  0.15809495052E+02 -0.12532987194E+03  0.12869071291E+03  0.00000000000E+00 0.  1.
         12    1    4    4    0    0  0.63353068132E+02 -0.93739544623E+02 -0.38373781839E+03  0.40006927741E+03  0.00000000000E+00 0. -1.
         -5    1    5    5    0  502 -0.19788674800E+02  0.84645536466E+02  0.38416369616E+02  0.95154432101E+02  0.47000000000E+01 0.  1.
         11    1    6    6    0    0 -0.55443731979E+02  0.10517569215E+02  0.17954300967E+02  0.59219790621E+02  0.00000000000E+00 0. -1.
        -12    1    6    6    0    0 -0.71339747539E+02 -0.32626140152E+01  0.14538577675E+03  0.16197848101E+03  0.00000000000E+00 0.  1.
</event>
<event>
12    1  0.8251070E-002  0.2179979E+03  0.7818608E-02  0.1136294E+00
         21   -1    0    0  503  502  0.00000000000E+00  0.00000000000E+00  0.83626440068E+02  0.83626440068E+02  0.00000000000E+00 0. -1.
         21   -1    0    0  501  503 -0.00000000000E+00 -0.00000000000E+00 -0.12390966412E+04  0.12390966412E+04  0.00000000000E+00 0. -1.
          6    2    1    2  501    0 -0.93613828675E+02  0.94761475952E+02 -0.10716681545E+04  0.10936158903E+04  0.17256823546E+03 0.  0.
         24    2    3    3    0    0 -0.45657712385E+02  0.12383148963E+03 -0.55824050506E+03  0.57711332884E+03  0.63312465625E+02 0.  0.
         -6    2    1    2    0  502  0.93613828675E+02 -0.94761475952E+02 -0.83802046688E+02  0.22910719103E+03  0.16650536240E+03 0.  0.
        -24    2    5    5    0    0  0.61525397041E+02  0.10923456744E+02 -0.50186288157E+02  0.11356031022E+03  0.80452371933E+02 0.  0.
          5    1    3    3  501    0 -0.47956116291E+02 -0.29070013680E+02 -0.51342764940E+03  0.51650256142E+03  0.47000000000E+01 0. -1.
        -13    1    4    4    0    0 -0.18275285628E+02  0.65509269357E+02 -0.16243791838E+03  0.17610090222E+03  0.00000000000E+00 0.  1.
         14    1    4    4    0    0 -0.27382426757E+02  0.58322220275E+02 -0.39580258669E+03  0.40101242662E+03  0.00000000000E+00 0. -1.
         -5    1    5    5    0  502  0.32088431635E+02 -0.10568493270E+03 -0.33615758531E+02  0.11554688081E+03  0.47000000000E+01 0.  1.
         11    1    6    6    0    0  0.41552709327E+02 -0.13386086765E+02  0.10769040488E+02  0.44964288100E+02  0.00000000000E+00 0. -1.
        -12    1    6    6    0    0  0.19972687714E+02  0.24309543509E+02 -0.60955328646E+02  0.68596022118E+02  0.00000000000E+00 0.  1.
</event>
<event>
12    1  0.8251070E-002  0.1945995E+03  0.7818608E-02  0.1154471E+00
         21   -1    0    0  503  502  0.00000000000E+00  0.00000000000E+00  0.27185032659E+03  0.27185032659E+03  0.00000000000E+00 0. -1.
         21   -1    0    0  501  503 -0.00000000000E+00 -0.00000000000E+00 -0.30168781208E+03  0.30168781208E+03  0.00000000000E+00 0.  1.
          6    2    1    2  501    0  0.51828264203E+02 -0.72866960224E+02 -0.22551598351E+03  0.29786982211E+03  0.17283867982E+03 0.  0.
         24    2    3    3    0    0  0.31340924278E+02 -0.70087506235E+01 -0.20870907824E+03  0.22672492114E+03  0.82542924640E+02 0.  0.
         -6    2    1    2    0  502 -0.51828264203E+02  0.72866960224E+02  0.19567849803E+03  0.27566831656E+03  0.17235771900E+03 0.  0.
        -24    2    5    5    0    0  0.35263952855E+02  0.53515543453E+02  0.79618590942E+02  0.12920492988E+03  0.79040079201E+02 0.  0.
          5    1    3    3  501    0  0.20487339925E+02 -0.65858209600E+02 -0.16806905279E+02  0.71144900970E+02  0.47000000000E+01 0. -1.
        -13    1    4    4    0    0  0.24256435613E+02  0.34547482800E+02 -0.13892108205E+03  0.14519287267E+03  0.00000000000E+00 0.  1.
         14    1    4    4    0    0  0.70844886653E+01 -0.41556233423E+02 -0.69787996181E+02  0.81532048465E+02  0.00000000000E+00 0. -1.
         -5    1    5    5    0  502 -0.87092217058E+02  0.19351416771E+02  0.11605990709E+03  0.14646338668E+03  0.47000000000E+01 0.  1.
         13    1    6    6    0    0 -0.11130470067E+02  0.46255412108E+02  0.63939253309E+02  0.79697419199E+02  0.00000000000E+00 0. -1.
        -14    1    6    6    0    0  0.46394422922E+02  0.72601313453E+01  0.15679337632E+02  0.49507510683E+02  0.00000000000E+00 0.  1.
</event>
<event>
12    1  0.8251070E-002  0.2012251E+03  0.7818608E-02  0.1148892E+00
         21   -1    0    0  501  502  0.00000000000E+00  0.00000000000E+00  0.23777061260E+03  0.23777061260E+03  0.00000000000E+00 0.  1.
         21   -1    0    0  502  503 -0.00000000000E+00 -0.00000000000E+00 -0.44668338874E+03  0.44668338874E+03  0.00000000000E+00 0. -1.
         -6    2    1    2    0  503 -0.27074792993E+02 -0.10006818222E+03 -0.37392638056E+03  0.42422138686E+03  0.17145308829E+03 0.  0.
        -24    2    3    3    0    0 -0.38412214665E+02  0.83185258099E+01 -0.13767297008E+03  0.16400228770E+03  0.79988796541E+02 0.  0.
          6    2    1    2  501    0  0.27074792993E+02  0.10006818222E+03  0.16501360442E+03  0.26023261448E+03  0.17246691998E+03 0.  0.
         24    2    5    5    0    0  0.41765322069E+02  0.10980121303E+03  0.18339204812E+03  0.23434051672E+03  0.86499629795E+02 0.  0.
          5    1    5    5  501    0 -0.14690529076E+02 -0.97330308167E+01 -0.18378443696E+02  0.25892097754E+02  0.47000000000E+01 0. -1.
        -11    1    6    6    0    0  0.21468653606E+01  0.92031069726E+02  0.79105247663E+02  0.12137531476E+03  0.00000000000E+00 0.  1.
         12    1    6    6    0    0  0.39618456709E+02  0.17770143306E+02  0.10428680045E+03  0.11296520196E+03  0.00000000000E+00 0. -1.
         -5    1    3    3    0  503  0.11337421672E+02 -0.10838670803E+03 -0.23625341047E+03  0.26021909916E+03  0.47000000000E+01 0.  1.
         11    1    4    4    0    0  0.77806550344E+01  0.10698820380E+02 -0.10852883812E+03  0.10933211813E+03  0.00000000000E+00 0. -1.
        -12    1    4    4    0    0 -0.46192869700E+02 -0.23802945702E+01 -0.29144131963E+02  0.54670169574E+02  0.00000000000E+00 0.  1.
</event>
<event>
12    1  0.8251070E-002  0.1790670E+03  0.7818608E-02  0.1169017E+00
         21   -1    0    0  503  502  0.00000000000E+00  0.00000000000E+00  0.36723433772E+03  0.36723433772E+03  0.00000000000E+00 0.  1.
         21   -1    0    0  501  503 -0.00000000000E+00 -0.00000000000E+00 -0.10027138389E+03  0.10027138389E+03  0.00000000000E+00 0.  1.
          6    2    1    2  501    0  0.29854695358E+02 -0.38299192301E+02  0.47085976976E+02  0.18393763644E+03  0.17104921486E+03 0.  0.
         24    2    3    3    0    0  0.75759240785E+02  0.23024870904E+01  0.52945981695E+02  0.12219499869E+03  0.79897288543E+02 0.  0.
         -6    2    1    2    0  502 -0.29854695358E+02  0.38299192301E+02  0.21987697686E+03  0.28356808517E+03  0.17235673183E+03 0.  0.
        -24    2    5    5    0    0 -0.31892533421E+02  0.76476235551E+01  0.31275753472E+02  0.92423681868E+02  0.80550259967E+02 0.  0.
          5    1    3    3  501    0 -0.45904545427E+02 -0.40601679392E+02 -0.58600047183E+01  0.61742637744E+02  0.47000000000E+01 0. -1.
        -13    1    4    4    0    0  0.28269324517E+02 -0.20921958423E+01 -0.20246846775E+02  0.34834850314E+02  0.00000000000E+00 0.  1.
         14    1    4    4    0    0  0.47489916268E+02  0.43946829327E+01  0.73192828469E+02  0.87360148378E+02  0.00000000000E+00 0. -1.
         -5    1    5    5    0  502  0.20378380627E+01  0.30651568746E+02  0.18860122339E+03  0.19114440330E+03  0.47000000000E+01 0.  1.
         13    1    6    6    0    0 -0.46635078014E+02  0.31915516646E+02  0.30047424344E+02  0.64002175071E+02  0.00000000000E+00 0. -1.
        -14    1    6    6    0    0  0.14742544593E+02 -0.24267893091E+02  0.12283291276E+01  0.28421506797E+02  0.00000000000E+00 0.  1.
</event>
<event>
12    1  0.8251070E-002  0.3291481E+03  0.7818608E-02  0.1071537E+00
         21   -1    0    0  501  502  0.00000000000E+00  0.00000000000E+00  0.70968911088E+02  0.70968911088E+02  0.00000000000E+00 0. -1.
         21   -1    0    0  502  503 -0.00000000000E+00 -0.00000000000E+00 -0.15316968865E+04  0.15316968865E+04  0.00000000000E+00 0. -1.
         -6    2    1    2    0  503  0.26866805537E+03  0.80207174817E+02 -0.78065340363E+03  0.84712632205E+03  0.17201033120E+03 0.  0.
        -24    2    3    3    0    0  0.17881606521E+03  0.10349731331E+03 -0.47684410377E+03  0.52941892307E+03  0.10108025406E+03 0.  0.
          6    2    1    2  501    0 -0.26866805537E+03 -0.80207174817E+02 -0.68007457174E+03  0.75553947550E+03  0.17240290321E+03 0.  0.
         24    2    5    5    0    0 -0.10205739996E+03  0.21802737868E+02 -0.23543556410E+03  0.26985329091E+03  0.80621470506E+02 0.  0.
          5    1    5    5  501    0 -0.16661065541E+03 -0.10200991269E+03 -0.44463900765E+03  0.48568618459E+03  0.47000000000E+01 0. -1.
        -13    1    6    6    0    0 -0.88140568281E+01  0.31144080121E+02 -0.30343079032E+02  0.44366020437E+02  0.00000000000E+00 0.  1.
         14    1    6    6    0    0 -0.93243343137E+02 -0.93413422527E+01 -0.20509248506E+03  0.22548727047E+03  0.00000000000E+00 0. -1.
         -5    1    3    3    0  503  0.89851990162E+02 -0.23290138491E+02 -0.30380929986E+03  0.31770739899E+03  0.47000000000E+01 0.  1.
         11    1    4    4    0    0  0.82730402042E+02 -0.45661779575E+01 -0.13726782630E+03  0.16033597706E+03  0.00000000000E+00 0. -1.
        -12    1    4    4    0    0  0.96085663170E+02  0.10806349127E+03 -0.33957627747E+03  0.36908294600E+03  0.00000000000E+00 0.  1.
</event>
<event>
12    1  0.8251070E-002  0.1895582E+03  0.7818608E-02  0.1161182E+00
         21   -1    0    0  503  502  0.00000000000E+00  0.00000000000E+00  0.90320659350E+03  0.90320659350E+03  0.00000000000E+00 0. -1.
         21   -1    0    0  501  503 -0.00000000000E+00 -0.00000000000E+00 -0.64539879380E+02  0.64539879380E+02  0.00000000000E+00 0.  1.
          6    2    1    2  501    0 -0.71390862015E+02  0.31397395639E+02  0.10084200596E+03  0.20596066612E+03  0.16176598588E+03 0.  0.
         24    2    3    3    0    0 -0.57113620488E+02  0.58177507585E+02  0.15350855571E+02  0.11512102270E+03  0.79816120337E+02 0.  0.
         -6    2    1    2    0  502  0.71390862015E+02 -0.31397395639E+02  0.73782470816E+03  0.76178580677E+03  0.17277113123E+03 0.  0.
        -24    2    5    5    0    0  0.72972002270E+02 -0.77816743281E+01  0.24043230235E+03  0.26380839999E+03  0.80010701305E+02 0.  0.
          5    1    3    3  501    0 -0.14277241527E+02 -0.26780111947E+02  0.85491150393E+02  0.90839643422E+02  0.47000000000E+01 0. -1.
        -11    1    4    4    0    0 -0.19758614279E+02  0.62412565048E+01 -0.30172623048E+02  0.36602504048E+02  0.00000000000E+00 0.  1.
         12    1    4    4    0    0 -0.37355006209E+02  0.51936251081E+02  0.45523478619E+02  0.78518518648E+02  0.00000000000E+00 0. -1.
         -5    1    5    5    0  502 -0.15811402545E+01 -0.23615721310E+02  0.49739240581E+03  0.49797740677E+03  0.47000000000E+01 0.  1.
         11    1    6    6    0    0 -0.12204420101E+01  0.10641778407E+02  0.12438067753E+03  0.12484105842E+03  0.00000000000E+00 0. -1.
        -12    1    6    6    0    0  0.74192444280E+02 -0.18423452735E+02  0.11605162482E+03  0.13896734157E+03  0.00000000000E+00 0.  1.
</event>
<event>
12    1  0.8251070E-002  0.1880736E+03  0.7818608E-02  0.1160451E+00
         21   -1    0    0  501  502  0.00000000000E+00  0.00000000000E+00  0.21855078434E+03  0.21855078434E+03  0.00000000000E+00 0.  1.
         21   -1    0    0  502  503 -0.00000000000E+00 -0.00000000000E+00 -0.24896564207E+03  0.24896564207E+03  0.00000000000E+00 0.  1.
         -6    2    1    2    0  503  0.74783595649E+02  0.11347899272E+02 -0.15422584505E+03  0.24322273838E+03  0.17219270654E+03 0.  0.
        -24    2    3    3    0    0  0.79890535231E+02  0.67076254109E+02 -0.89740747910E+02  0.15771163899E+03  0.77057366632E+02 0.  0.
          6    2    1    2  501    0 -0.74783595649E+02 -0.11347899272E+02  0.12381098733E+03  0.22429368804E+03  0.17104717746E+03 0.  0.
         24    2    5    5    0    0 -0.63866213483E+02 -0.55998588940E+02  0.13742067063E+03  0.17612537064E+03  0.70149627800E+02 0.  0.
          5    1    5    5  501    0 -0.10917382166E+02  0.44650689669E+02 -0.13609683303E+02  0.48168317397E+02  0.47000000000E+01 0. -1.
        -13    1    6    6    0    0 -0.23358696869E+02 -0.14813903957E+02  0.10763325560E+03  0.11113054567E+03  0.00000000000E+00 0.  1.
         14    1    6    6    0    0 -0.40507516614E+02 -0.41184684983E+02  0.29787415030E+02  0.64994824976E+02  0.00000000000E+00 0. -1.
         -5    1    3    3    0  503 -0.51069395815E+01 -0.55728354837E+02 -0.64485097144E+02  0.85511099387E+02  0.47000000000E+01 0.  1.
         11    1    4    4    0    0 -0.10451117852E+02  0.18682559967E+02  0.12175355518E+00  0.21407445788E+02  0.00000000000E+00 0. -1.
        -12    1    4    4    0    0  0.90341653082E+02  0.48393694143E+02 -0.89862501465E+02  0.13630419320E+03  0.00000000000E+00 0.  1.
</event>
<event>
12    1  0.8251070E-002  0.2419841E+03  0.7818608E-02  0.1118600E+00
         21   -1    0    0  501  502  0.00000000000E+00  0.00000000000E+00  0.32025326129E+03  0.32025326129E+03  0.00000000000E+00 0. -1.
         21   -1    0    0  502  503 -0.00000000000E+00 -0.00000000000E+00 -0.20731565470E+03  0.20731565470E+03  0.00000000000E+00 0. -1.
         -6    2    1    2    0  503  0.16439383644E+03 -0.43303930293E+02  0.14804847461E+03  0.28305089039E+03  0.17116919080E+03 0.  0.
        -24    2    3    3    0    0  0.15813773499E+02  0.18086922564E+02  0.69836283888E+02  0.10420987526E+03  0.73521285036E+02 0.  0.
          6    2    1    2  501    0 -0.16439383644E+03  0.43303930293E+02 -0.35110868021E+02  0.24451802560E+03  0.17220838525E+03 0.  0.
         24    2    5    5    0    0 -0.11227584509E+03  0.69531469577E+02 -0.77777773636E+02  0.17208375419E+03  0.78249253878E+02 0.  0.
          5    1    5    5  501    0 -0.52117991344E+02 -0.26227539284E+02  0.42666905616E+02  0.72434271401E+02  0.47000000000E+01 0. -1.
        -13    1    6    6    0    0  0.38919130513E+01  0.28893421514E+02 -0.24060881807E+02  0.37800831040E+02  0.00000000000E+00 0.  1.
         14    1    6    6    0    0 -0.11616775815E+03  0.40638048063E+02 -0.53716891829E+02  0.13428292315E+03  0.00000000000E+00 0. -1.
         -5    1    3    3    0  503  0.14858006294E+03 -0.61390852856E+02  0.78212190720E+02  0.17884101514E+03  0.47000000000E+01 0.  1.
         11    1    4    4    0    0  0.22788309021E+02  0.44441761105E+02  0.42128432103E+02  0.65338977262E+02  0.00000000000E+00 0. -1.
        -12    1    4    4    0    0 -0.69745355216E+01 -0.26354838542E+02  0.27707851785E+02  0.38870897994E+02  0.00000000000E+00 0.  1.
</event>
<event>
12    1  0.8251070E-002  0.1735596E+03  0.7818608E-02  0.1174327E+00
         21   -1    0    0  503  502  0.00000000000E+00  0.00000000000E+00  0.15217403183E+03  0.15217403183E+03  0.00000000000E+00 0. -1.
         21   -1    0    0  501  503 -0.00000000000E+00 -0.00000000000E+00 -0.27972626391E+03  0.27972626391E+03  0.00000000000E+00 0. -1.
          6    2    1    2  501    0 -0.20210425287E+02 -0.73373320862E+01 -0.18106055690E+03  0.25081037636E+03  0.17222259403E+03 0.  0.
         24    2    3    3    0    0  0.24046269865E+02 -0.59893915835E+02 -0.90101035262E+02  0.13672017460E+03  0.80054389882E+02 0.  0.
         -6    2    1    2    0  502  0.20210425287E+02  0.73373320862E+01  0.53508324822E+02  0.18108991938E+03  0.17166281002E+03 0.  0.
        -24    2    5    5    0    0  0.48086440535E+02 -0.45242670593E+02  0.26798867392E+01  0.10268488749E+03  0.78598977857E+02 0.  0.
          5    1    3    3  501    0 -0.44256695152E+02  0.52556583749E+02 -0.90959521639E+02  0.11409020176E+03  0.47000000000E+01 0. -1.
        -13    1    4    4    0    0 -0.18108806263E+02 -0.27722846472E+02 -0.74368014780E+02  0.81406920486E+02  0.00000000000E+00 0.  1.
         14    1    4    4    0    0  0.42155076128E+02 -0.32171069363E+02 -0.15733020482E+02  0.55313254115E+02  0.00000000000E+00 0. -1.
         -5    1    5    5    0  502 -0.27876015248E+02  0.52580002679E+02  0.50828438083E+02  0.78405031891E+02  0.47000000000E+01 0.  1.
         13    1    6    6    0    0  0.21974294415E+02 -0.20110442165E+02  0.40518673361E+02  0.50289784152E+02  0.00000000000E+00 0. -1.
        -14    1    6    6    0    0  0.26112146120E+02 -0.25132228428E+02 -0.37838786622E+02  0.52395103338E+02  0.00000000000E+00 0.  1.
</event>
<event>
12    1  0.8251070E-002  0.1799573E+03  0.7818608E-02  0.1169315E+00
         21   -1    0    0  503  502  0.00000000000E+00  0.00000000000E+00  0.13328356736E+03  0.13328356736E+03  0.00000000000E+00 0. -1.
         21   -1    0    0  501  503 -0.00000000000E+00 -0.00000000000E+00 -0.27872656381E+03  0.27872656381E+03  0.00000000000E+00 0. -1.
          6    2    1    2  501    0 -0.20699441606E+02 -0.15720768755E+02 -0.15535600866E+03  0.23773959579E+03  0.17807025727E+03 0.  0.
         24    2    3    3    0    0 -0.31211642276E+02  0.56180402460E+02 -0.12026914800E+03  0.15690975862E+03  0.77624739328E+02 0.  0.
         -6    2    1    2    0  502  0.20699441606E+02  0.15720768755E+02  0.99130122135E+01  0.17427053538E+03  0.17203587486E+03 0.  0.
        -24    2    5    5    0    0 -0.87529848961E+01 -0.29176876711E+02 -0.46361707627E+02  0.96346353715E+02  0.78773771402E+02 0.  0.
          5    1    3    3  501    0  0.10512200670E+02 -0.71901171215E+02 -0.35086860659E+02  0.80829837164E+02  0.47000000000E+01 0. -1.
        -11    1    4    4    0    0  0.22494377455E+02  0.27865026519E+02 -0.67752766398E+02  0.76634809810E+02  0.00000000000E+00 0.  1.
         12    1    4    4    0    0 -0.53706019731E+02  0.28315375941E+02 -0.52516381604E+02  0.80274948812E+02  0.00000000000E+00 0. -1.
         -5    1    5    5    0  502  0.29452426502E+02  0.44897645466E+02  0.56274719840E+02  0.77924181666E+02  0.47000000000E+01 0.  1.
         11    1    6    6    0    0  0.19711032776E+02  0.13581542422E+02  0.41627703346E+01  0.24296332327E+02  0.00000000000E+00 0. -1.
        -12    1    6    6    0    0 -0.28464017672E+02 -0.42758419133E+02 -0.50524477962E+02  0.72050021388E+02  0.00000000000E+00 0.  1.
</event>
<event>
12    1  0.8251070E-002  0.1955528E+03  0.7818608E-02  0.1155286E+00
         21   -1    0    0  503  502  0.00000000000E+00  0.00000000000E+00  0.13575903977E+04  0.13575903977E+04  0.00000000000E+00 0. -1.
         21   -1    0    0  501  503 -0.00000000000E+00 -0.00000000000E+00 -0.31085637952E+02  0.31085637952E+02  0.00000000000E+00 0. -1.
          6    2    1    2  501    0  0.51312450350E+02 -0.54603561243E+02  0.40133516376E+03  0.44306530040E+03  0.17211167971E+03 0.  0.
         24    2    3    3    0    0 -0.33067622817E+01 -0.42881376100E+02  0.36479632238E+03  0.37614859888E+03  0.81004101926E+02 0.  0.
         -6    2    1    2    0  502 -0.51312450350E+02  0.54603561243E+02  0.92516959599E+03  0.94561073525E+03  0.18062769669E+03 0.  0.
        -24    2    5    5    0    0 -0.21014766795E+02  0.76047338632E+02  0.30574909993E+03  0.32506128020E+03  0.77184879625E+02 0.  0.
          5    1    3    3  501    0  0.54619212632E+02 -0.11722185143E+02  0.36538841380E+02  0.66916701521E+02  0.47000000000E+01 0. -1.
        -13    1    4    4    0    0  0.29913119067E+02 -0.43403749339E+02  0.15452469258E+03  0.16326837037E+03  0.00000000000E+00 0.  1.
         14    1    4    4    0    0 -0.33219881349E+02  0.52237323939E+00  0.21027162980E+03  0.21288022851E+03  0.00000000000E+00 0. -1.
         -5    1    5    5    0  502 -0.30297683555E+02 -0.21443777389E+02  0.61942049607E+03  0.62054945505E+03  0.47000000000E+01 0.  1.
         11    1    6    6    0    0 -0.19786976059E+02  0.23934573536E+02  0.23574256051E+03  0.23777918973E+03  0.00000000000E+00 0. -1.
        -12    1    6    6    0    0 -0.12277907361E+01  0.52112765096E+02  0.70006539417E+02  0.87282090472E+02  0.00000000000E+00 0.  1.
</event>
<event>
12    1  0.8251070E-002  0.2079604E+03  0.7818608E-02  0.1144081E+00
         21   -1    0    0  503  502  0.00000000000E+00  0.00000000000E+00  0.27819185536E+03  0.27819185536E+03  0.00000000000E+00 0.  1.
         21   -1    0    0  501  503 -0.00000000000E+00 -0.00000000000E+00 -0.20729280107E+03  0.20729280107E+03  0.00000000000E+00 0.  1.
          6    2    1    2  501    0  0.10395235701E+03 -0.29988037985E+02  0.16086447642E+03  0.26291616026E+03  0.17760110529E+03 0.  0.
         24    2    3    3    0    0  0.24748384777E+02 -0.72899852285E+02  0.61277221795E+02  0.12854948170E+03  0.82723638227E+02 0.  0.
         -6    2    1    2    0  502 -0.10395235701E+03  0.29988037985E+02 -0.89965422125E+02  0.22256849616E+03  0.17244588530E+03 0.  0.
        -24    2    5    5    0    0 -0.88341654233E+02  0.87622904336E+01 -0.12860467115E+03  0.17556522005E+03  0.80018494371E+02 0.  0.
          5    1    3    3  501    0  0.79203972237E+02  0.42911814300E+02  0.99587254622E+02  0.13436667856E+03  0.47000000000E+01 0. -1.
        -11    1    4    4    0    0  0.49915060951E+02 -0.19690511131E+02  0.35179304446E+02  0.64162395526E+02  0.00000000000E+00 0.  1.
         12    1    4    4    0    0 -0.25166676174E+02 -0.53209341154E+02  0.26097917349E+02  0.64387086171E+02  0.00000000000E+00 0. -1.
         -5    1    5    5    0  502 -0.15610702781E+02  0.21225747551E+02  0.38639249028E+02  0.47003276118E+02  0.47000000000E+01 0.  1.
         13    1    6    6    0    0 -0.29458321798E+02 -0.26511917561E+02 -0.14104242992E+02  0.42066663361E+02  0.00000000000E+00 0. -1.
        -14    1    6    6    0    0 -0.58883332435E+02  0.35274207995E+02 -0.11450042816E+03  0.13349855669E+03  0.00000000000E+00 0.  1.
</event>
<event>
12    1  0.8251070E-002  0.1922947E+03  0.7818608E-02  0.1156487E+00
         21   -1    0    0  503  502  0.00000000000E+00  0.00000000000E+00  0.47481991153E+03  0.47481991153E+03  0.00000000000E+00 0. -1.
         21   -1    0    0  501  503 -0.00000000000E+00 -0.00000000000E+00 -0.10059253213E+03  0.10059253213E+03  0.00000000000E+00 0.  1.
          6    2    1    2  501    0  0.21929124021E+01 -0.85082379328E+02  0.50092084902E+02  0.19871205059E+03  0.17243387702E+03 0.  0.
         24    2    3    3    0    0 -0.26049320135E+01  0.16199542403E+02 -0.23654564793E+01  0.84453875268E+02  0.82810934173E+02 0.  0.
         -6    2    1    2    0  502 -0.21929124021E+01  0.85082379328E+02  0.32413529450E+03  0.37670039307E+03  0.17203394101E+03 0.  0.
        -24    2    5    5    0    0  0.22721594527E+02  0.98530327868E+02  0.14164503550E+03  0.19196716756E+03  0.81015930369E+02 0.  0.
          5    1    3    3  501    0  0.47978444156E+01 -0.10128192173E+03  0.52457541382E+02  0.11425817532E+03  0.47000000000E+01 0. -1.
        -13    1    4    4    0    0  0.28648814362E+02 -0.13219193486E+01  0.26034342023E+02  0.38733564252E+02  0.00000000000E+00 0.  1.
         14    1    4    4    0    0 -0.31253746376E+02  0.17521461751E+02 -0.28399798502E+02  0.45720311016E+02  0.00000000000E+00 0. -1.
         -5    1    5    5    0  502 -0.24914506929E+02 -0.13447948540E+02  0.18249025900E+03  0.18473322550E+03  0.47000000000E+01 0.  1.
         13    1    6    6    0    0  0.41792747792E+02  0.68185779444E+02  0.13284868548E+03  0.15506355962E+03  0.00000000000E+00 0. -1.
        -14    1    6    6    0    0 -0.19071153265E+02  0.30344548424E+02  0.87963500153E+01  0.36903607947E+02  0.00000000000E+00 0.  1.
</event>
<event>
12    1  0.8251070E-002  0.2367448E+03  0.7818608E-02  0.1122067E+00
         21   -1    0    0  501  502  0.00000000000E+00  0.00000000000E+00  0.50708270900E+03  0.50708270900E+03  0.00000000000E+00 0. -1.
         21   -1    0    0  502  503 -0.00000000000E+00 -0.00000000000E+00 -0.31320658311E+03  0.31320658311E+03  0.00000000000E+00 0. -1.
         -6    2    1    2    0  503 -0.75340489897E+01  0.16252153163E+03 -0.23322171582E+03  0.33196492538E+03  0.17128436244E+03 0.  0.
        -24    2    3    3    0    0  0.92569245006E+01  0.88938957521E+02 -0.22272647123E+03  0.25561983934E+03  0.87969270006E+02 0.  0.
          6    2    1    2  501    0  0.75340489897E+01 -0.16252153163E+03  0.42709784172E+03  0.48832436672E+03  0.17198287879E+03 0.  0.
         24    2    5    5    0    0 -0.99416725150E+01 -0.10568668312E+03  0.13011157208E+03  0.18540765341E+03  0.78603211859E+02 0.  0.
          5    1    5    5  501    0  0.17475721505E+02 -0.56834848511E+02  0.29698626964E+03  0.30291671331E+03  0.47000000000E+01 0. -1.
        -11    1    6    6    0    0  0.26138237798E+02 -0.11460104964E+02  0.45586653673E+02  0.53783682228E+02  0.00000000000E+00 0.  1.
         12    1    6    6    0    0 -0.36079910313E+02 -0.94226578156E+02  0.84524918407E+02  0.13162397119E+03  0.00000000000E+00 0. -1.
         -5    1    3    3    0  503 -0.16790973490E+02  0.73582574110E+02 -0.10495244596E+02  0.76345086040E+02  0.47000000000E+01 0.  1.
         13    1    4    4    0    0  0.27897792004E+02  0.74718665314E+02 -0.87578269659E+02  0.11845302470E+03  0.00000000000E+00 0. -1.
        -14    1    4    4    0    0 -0.18640867503E+02  0.14220292207E+02 -0.13514820157E+03  0.13716681464E+03  0.00000000000E+00 0.  1.
</event>
<event>
12    1  0.8251070E-002  0.2207425E+03  0.7818608E-02  0.1133461E+00
         21   -1    0    0  503  502  0.00000000000E+00  0.00000000000E+00  0.16443588217E+04  0.16443588217E+04  0.00000000000E+00 0. -1.
         21   -1    0    0  501  503 -0.00000000000E+00 -0.00000000000E+00 -0.34258230692E+02  0.34258230692E+02  0.00000000000E+00 0. -1.
          6    2    1    2  501    0 -0.11024045206E+03  0.80697813909E+02  0.49464739336E+03  0.54166715060E+03  0.17338443944E+03 0.  0.
         24    2    3    3    0    0 -0.10958702559E+03  0.47920174969E+01  0.23752495530E+03  0.27353256677E+03  0.79810281793E+02 0.  0.
         -6    2    1    2    0  502  0.11024045206E+03 -0.80697813909E+02  0.11154531976E+04  0.11369499018E+04  0.17249390888E+03 0.  0.
        -24    2    5    5    0    0  0.97657659740E+02 -0.76634798709E+02  0.51127358632E+03  0.53260734372E+03  0.82825066464E+02 0.  0.
          5    1    3    3  501    0 -0.65342646611E+00  0.75905796412E+02  0.25712243805E+03  0.26813458383E+03  0.47000000000E+01 0. -1.
        -11    1    4    4    0    0 -0.72488104807E+02 -0.34342294145E+02  0.16153463347E+03  0.18035342058E+03  0.00000000000E+00 0.  1.
         12    1    4    4    0    0 -0.37098920787E+02  0.39134311642E+02  0.75990321836E+02  0.93179146187E+02  0.00000000000E+00 0. -1.
         -5    1    5    5    0  502  0.12582792320E+02 -0.40630152005E+01  0.60417961131E+03  0.60434255805E+03  0.47000000000E+01 0.  1.
         11    1    6    6    0    0  0.39549307176E+02 -0.81761644764E+02  0.30317615458E+03  0.31648838045E+03  0.00000000000E+00 0. -1.
        -12    1    6    6    0    0  0.58108352564E+02  0.51268460550E+01  0.20809743174E+03  0.21611896327E+03  0.00000000000E+00 0.  1.
</event>
<event>
12    1  0.8251070E-002  0.1793453E+03  0.7818608E-02  0.1168751E+00
         21   -1    0    0  503  502  0.00000000000E+00  0.00000000000E+00  0.22180115417E+03  0.22180115417E+03  0.00000000000E+00 0.  1.
         21   -1    0    0  501  503 -0.00000000000E+00 -0.00000000000E+00 -0.21449861042E+03  0.21449861042E+03  0.00000000000E+00 0.  1.
          6    2    1    2  501    0  0.11120384592E+02  0.47607573111E+02 -0.12142142343E+03  0.21658234662E+03  0.17255320000E+03 0.  0.
         24    2    3    3    0    0  0.51028231724E+02  0.10223496909E+02 -0.13023165580E+03  0.16099533725E+03  0.79062090304E+02 0.  0.
         -6    2    1    2    0  502 -0.11120384592E+02 -0.47607573111E+02  0.12872396718E+03  0.21971741797E+03  0.17121839872E+03 0.  0.
        -24    2    5    5    0    0 -0.12674947089E+02 -0.84989336262E+00  0.68668106580E+00  0.83319713018E+02  0.82342737653E+02 0.  0.
          5    1    3    3  501    0 -0.39907847132E+02  0.37384076203E+02  0.88102323684E+01  0.55587009369E+02  0.47000000000E+01 0. -1.
        -13    1    4    4    0    0 -0.20664647898E+02  0.93751335912E+01 -0.36630188798E+02  0.43089343625E+02  0.00000000000E+00 0.  1.
         14    1    4    4    0    0  0.71692879622E+02  0.84836331757E+00 -0.93601467003E+02  0.11790599363E+03  0.00000000000E+00 0. -1.
         -5    1    5    5    0  502  0.15545624968E+01 -0.46757679749E+02  0.12803728612E+03  0.13639770495E+03  0.47000000000E+01 0.  1.
         11    1    6    6    0    0  0.19383206957E+02  0.21772512859E+02 -0.23312220851E+02  0.37325737355E+02  0.00000000000E+00 0. -1.
        -12    1    6    6    0    0 -0.32058154046E+02 -0.22622406221E+02  0.23998901917E+02  0.45993975663E+02  0.00000000000E+00 0.  1.
</event>
<event>
12    1  0.8251070E-002  0.1974335E+03  0.7818608E-02  0.1153707E+00
         21   -1    0    0  503  502  0.00000000000E+00  0.00000000000E+00  0.94857851397E+02  0.94857851397E+02  0.00000000000E+00 0. -1.
         21   -1    0    0  501  503 -0.00000000000E+00 -0.00000000000E+00 -0.80957572527E+03  0.80957572527E+03  0.00000000000E+00 0. -1.
          6    2    1    2  501    0  0.17237355925E+02  0.78495202815E+02 -0.68491462040E+03  0.71280293600E+03  0.18033680997E+03 0.  0.
         24    2    3    3    0    0  0.67212765219E+02  0.82156203728E+00 -0.36055688263E+03  0.37551853367E+03  0.80589532467E+02 0.  0.
         -6    2    1    2    0  502 -0.17237355925E+02 -0.78495202815E+02 -0.29803253473E+02  0.19163064067E+03  0.17139266385E+03 0.  0.
        -24    2    5    5    0    0 -0.55029656872E+02 -0.73143842716E+02  0.26483417736E+02  0.12346045348E+03  0.78503676953E+02 0.  0.
          5    1    3    3  501    0 -0.49975409293E+02  0.77673640778E+02 -0.32435773776E+03  0.33728440233E+03  0.47000000000E+01 0. -1.
        -11    1    4    4    0    0  0.47346625552E+02 -0.94960266065E+01 -0.75747308153E+02  0.89830574778E+02  0.00000000000E+00 0.  1.
         12    1    4    4    0    0  0.19866139667E+02  0.10317588644E+02 -0.28480957448E+03  0.28568795889E+03  0.00000000000E+00 0. -1.
         -5    1    5    5    0  502  0.37792300947E+02 -0.53513600994E+01 -0.56286671209E+02  0.68170187190E+02  0.47000000000E+01 0.  1.
         13    1    6    6    0    0 -0.19509942311E+01 -0.56781095288E+02 -0.90391216658E+01  0.57529165482E+02  0.00000000000E+00 0. -1.
        -14    1    6    6    0    0 -0.53078662641E+02 -0.16362747428E+02  0.35522539402E+02  0.65931287995E+02  0.00000000000E+00 0.  1.
</event>
<event>
12    1  0.8251070E-002  0.2190570E+03  0.7818608E-02  0.1137043E+00
         21   -1    0    0  501  502  0.00000000000E+00  0.00000000000E+00  0.54165025916E+02  0.54165025916E+02  0.00000000000E+00 0.  1.
         21   -1    0    0  502  503 -0.00000000000E+00 -0.00000000000E+00 -0.86497927055E+03  0.86497927055E+03  0.00000000000E+00 0.  1.
         -6    2    1    2    0  503 -0.11594683262E+02 -0.13626383171E+03 -0.30871212044E+03  0.37133731007E+03  0.15455082023E+03 0.  0.
        -24    2    3    3    0    0  0.38590784830E+01 -0.12775057580E+03 -0.15477842968E+03  0.21632451890E+03  0.80652545382E+02 0.  0.
          6    2    1    2  501    0  0.11594683262E+02  0.13626383171E+03 -0.50210212420E+03  0.54780698640E+03  0.17112475774E+03 0.  0.
         24    2    5    5    0    0 -0.11018089334E+02  0.11943630821E+02 -0.28582827943E+03  0.29728090839E+03  0.80087980128E+02 0.  0.
          5    1    5    5  501    0  0.22612772597E+02  0.12432020088E+03 -0.21627384476E+03  0.25052607801E+03  0.47000000000E+01 0. -1.
        -11    1    6    6    0    0  0.74764721144E+01  0.43915011739E+02 -0.16746471184E+03  0.17328835969E+03  0.00000000000E+00 0.  1.
         12    1    6    6    0    0 -0.18494561449E+02 -0.31971380918E+02 -0.11836356759E+03  0.12399254870E+03  0.00000000000E+00 0. -1.
         -5    1    3    3    0  503 -0.15453761745E+02 -0.85132559075E+01 -0.15393369075E+03  0.15501279117E+03  0.47000000000E+01 0.  1.
         13    1    4    4    0    0  0.41589440868E+02 -0.61929396067E+02 -0.66629070026E+02  0.10002182093E+03  0.00000000000E+00 0. -1.
        -14    1    4    4    0    0 -0.37730362385E+02 -0.65821179731E+02 -0.88149359658E+02  0.11630269797E+03  0.00000000000E+00 0.  1.
</event>
<event>
12    1  0.8251070E-002  0.3444211E+03  0.7818608E-02  0.1064990E+00
         21   -1    0    0  501  502  0.00000000000E+00  0.00000000000E+00  0.10242434501E+04  0.10242434501E+04  0.00000000000E+00 0.  1.
         21   -1    0    0  502  503 -0.00000000000E+00 -0.00000000000E+00 -0.12089874010E+03  0.12089874010E+03  0.00000000000E+00 0. -1.
         -6    2    1    2    0  503  0.29755211917E+03  0.62520739929E+01  0.33240782604E+03  0.47866568358E+03  0.17334797886E+03 0.  0.
        -24    2    3    3    0    0  0.30178061382E+03  0.33826150552E+02  0.31633371604E+03  0.44612836842E+03  0.82144712964E+02 0.  0.
          6    2    1    2  501    0 -0.29755211917E+03 -0.62520739929E+01  0.57093688394E+03  0.66647650659E+03  0.17217914029E+03 0.  0.
         24    2    5    5    0    0 -0.31062032340E+03 -0.12372409479E+02  0.56485610341E+03  0.65012712250E+03  0.83455353492E+02 0.  0.
          5    1    5    5  501    0  0.13068204232E+02  0.61203354863E+01  0.60807805230E+01  0.16349384089E+02  0.47000000000E+01 0. -1.
        -13    1    6    6    0    0 -0.18344574105E+02  0.60024130104E+00  0.94049236729E+02  0.95823497212E+02  0.00000000000E+00 0.  1.
         14    1    6    6    0    0 -0.29227574929E+03 -0.12972650780E+02  0.47080686668E+03  0.55430362529E+03  0.00000000000E+00 0. -1.
         -5    1    3    3    0  503 -0.42284946572E+01 -0.27574076559E+02  0.16074109998E+02  0.32537315153E+02  0.47000000000E+01 0.  1.
         13    1    4    4    0    0  0.23794956613E+03 -0.83126301458E+01  0.23844051820E+03  0.33696138734E+03  0.00000000000E+00 0. -1.
        -14    1    4    4    0    0  0.63831047697E+02  0.42138780698E+02  0.77893197841E+02  0.10916698108E+03  0.00000000000E+00 0.  1.
</event>
<event>
12    1  0.8251070E-002  0.1859773E+03  0.7818608E-02  0.1162664E+00
         21   -1    0    0  501  502  0.00000000000E+00  0.00000000000E+00  0.28860357797E+02  0.28860357797E+02  0.00000000000E+00 0. -1.
         21   -1    0    0  502  503 -0.00000000000E+00 -0.00000000000E+00 -0.14615568698E+04  0.14615568698E+04  0.00000000000E+00 0.  1.
         -6    2    1    2    0  503 -0.66028435207E+02  0.19023047871E+02 -0.10446040209E+04  0.10610302194E+04  0.17281763642E+03 0.  0.
        -24    2    3    3    0    0  0.25618975120E+02  0.30702876167E+02 -0.62655020784E+03  0.63286349160E+03  0.79699671027E+02 0.  0.
          6    2    1    2  501    0  0.66028435207E+02 -0.19023047871E+02 -0.38809249114E+03  0.42938700820E+03  0.17039891587E+03 0.  0.
         24    2    5    5    0    0  0.33353003687E+02  0.14380952047E+02 -0.36816417791E+03  0.37836996493E+03  0.79370862620E+02 0.  0.
          5    1    5    5  501    0  0.32675431520E+02 -0.33403999918E+02 -0.19928313230E+02  0.51017043267E+02  0.47000000000E+01 0. -1.
        -13    1    6    6    0    0 -0.23898855131E+02 -0.35720040191E+01 -0.65486952332E+02  0.69802975689E+02  0.00000000000E+00 0.  1.
         14    1    6    6    0    0  0.57251858818E+02  0.17952956066E+02 -0.30267722558E+03  0.30856698925E+03  0.00000000000E+00 0. -1.
         -5    1    3    3    0  503 -0.91647410326E+02 -0.11679828296E+02 -0.41805381303E+03  0.42816672780E+03  0.47000000000E+01 0.  1.
         11    1    4    4    0    0  0.37751313966E+01 -0.19333584409E+02 -0.37213847411E+03  0.37265947327E+03  0.00000000000E+00 0. -1.
        -12    1    4    4    0    0  0.21843843723E+02  0.50036460576E+02 -0.25441173373E+03  0.26020401833E+03  0.00000000000E+00 0.  1.
</event>
<event>
12    1  0.8251070E-002  0.1738667E+03  0.7818608E-02  0.1174457E+00
         21   -1    0    0  503  502  0.00000000000E+00  0.00000000000E+00  0.28296273075E+03  0.28296273075E+03  0.00000000000E+00 0.  1.
         21   -1    0    0  501  503 -0.00000000000E+00 -0.00000000000E+00 -0.73777000221E+03  0.73777000221E+03  0.00000000000E+00 0.  1.
          6    2    1    2  501    0  0.25620898544E+02 -0.97236484589E+01 -0.70011115212E+03  0.72137734066E+03  0.17169351333E+03 0.  0.
         24    2    3    3    0    0  0.28953612179E+02 -0.84240223765E+01 -0.70713037413E+03  0.71220371074E+03  0.79318873938E+02 0.  0.
         -6    2    1    2    0  502 -0.25620898544E+02  0.97236484589E+01  0.24530388065E+03  0.29935539230E+03  0.16937732214E+03 0.  0.
        -24    2    5    5    0    0 -0.59249210275E-01  0.23941280633E+02  0.25489953279E+03  0.26821529723E+03  0.79953020101E+02 0.  0.
          5    1    3    3  501    0 -0.33327136358E+01 -0.12996260825E+01  0.70192220179E+01  0.91736299178E+01  0.47000000000E+01 0. -1.
        -11    1    4    4    0    0 -0.27172426072E+02  0.64924649809E+00 -0.27745720682E+03  0.27878533655E+03  0.00000000000E+00 0.  1.
         12    1    4    4    0    0  0.56126038251E+02 -0.90732688746E+01 -0.42967316732E+03  0.43341837420E+03  0.00000000000E+00 0. -1.
         -5    1    5    5    0  502 -0.25561649333E+02 -0.14217632175E+02 -0.95956521344E+01  0.31140095073E+02  0.47000000000E+01 0.  1.
         13    1    6    6    0    0 -0.27140843145E+02 -0.11773413179E+02  0.46975849147E+02  0.55515484575E+02  0.00000000000E+00 0. -1.
        -14    1    6    6    0    0  0.27081593935E+02  0.35714693812E+02  0.20792368364E+03  0.21269981265E+03  0.00000000000E+00 0.  1.
</event>
<event>
12    1  0.8251070E-002  0.2405469E+03  0.7818608E-02  0.1119467E+00
         21   -1    0    0  503  502  0.00000000000E+00  0.00000000000E+00  0.59392093369E+03  0.59392093369E+03  0.00000000000E+00 0. -1.
         21   -1    0    0  501  503 -0.00000000000E+00 -0.00000000000E+00 -0.10132205061E+03  0.10132205061E+03  0.00000000000E+00 0.  1.
          6    2    1    2  501    0 -0.74042401972E+02  0.14982273560E+03  0.17742961837E+03  0.29890478273E+03  0.17301349737E+03 0.  0.
         24    2    3    3    0    0 -0.76870669441E+02  0.20201729469E+02  0.84693510443E+02  0.13943165007E+03  0.77142625292E+02 0.  0.
         -6    2    1    2    0  502  0.74042401972E+02 -0.14982273560E+03  0.31516926470E+03  0.39633820157E+03  0.17269387718E+03 0.  0.
        -24    2    5    5    0    0  0.11282859442E+03 -0.10701347490E+03  0.18750337535E+03  0.25613238561E+03  0.79146115878E+02 0.  0.
          5    1    3    3  501    0  0.28282674688E+01  0.12962100613E+03  0.92736107929E+02  0.15947313266E+03  0.47000000000E+01 0. -1.
        -11    1    4    4    0    0 -0.59849432777E+02  0.32666769544E+02  0.94203408040E+02  0.11628995882E+03  0.00000000000E+00 0.  1.
         12    1    4    4    0    0 -0.17021236664E+02 -0.12465040075E+02 -0.95098975978E+01  0.23141691251E+02  0.00000000000E+00 0. -1.
         -5    1    5    5    0  502 -0.38786192448E+02 -0.42809260698E+02  0.12766588935E+03  0.14020581596E+03  0.47000000000E+01 0.  1.
         11    1    6    6    0    0  0.10349903355E+03 -0.52736990265E+02  0.14902694659E+03  0.18895044562E+03  0.00000000000E+00 0. -1.
        -12    1    6    6    0    0  0.93295608672E+01 -0.54276484637E+02  0.38476428762E+02  0.67181939990E+02  0.00000000000E+00 0.  1.
</event>
<event>
12    1  0.8251070E-002  0.2074235E+03  0.7818608E-02  0.1145077E+00
         21   -1    0    0  501  502  0.00000000000E+00  0.00000000000E+00  0.24300597504E+02  0.24300597504E+02  0.00000000000E+00 0.  1.
         21   -1    0    0  502  503 -0.00000000000E+00 -0.00000000000E+00 -0.18285465474E+04  0.18285465474E+04  0.00000000000E+00 0. -1.
         -6    2    1    2    0  503  0.99805907882E+02 -0.25772500233E+02 -0.11228285106E+04  0.11405591115E+04  0.17177247032E+03 0.  0.
        -24    2    3    3    0    0  0.70517303214E+02 -0.47457135073E+02 -0.10690903184E+04  0.10754597332E+04  0.80216327127E+02 0.  0.
          6    2    1    2  501    0 -0.99805907882E+02  0.25772500233E+02 -0.68141743928E+03  0.71228803340E+03  0.17999743042E+03 0.  0.
         24    2    5    5    0    0 -0.26256074126E+02 -0.53521287970E+02 -0.30507878410E+03  0.32068880425E+03  0.78831053318E+02 0.  0.
          5    1    5    5  501    0 -0.73549833756E+02  0.79293788204E+02 -0.37633865517E+03  0.39159922915E+03  0.47000000000E+01 0. -1.
        -11    1    6    6    0    0 -0.71375034418E+01  0.19892284144E+02 -0.44012667035E+02  0.48823782969E+02  0.00000000000E+00 0.  1.
         12    1    6    6    0    0 -0.19118570684E+02 -0.73413572114E+02 -0.26106611707E+03  0.27186502128E+03  0.00000000000E+00 0. -1.
         -5    1    3    3    0  503  0.29288604668E+02  0.21684634840E+02 -0.53738192231E+02  0.65099378306E+02  0.47000000000E+01 0.  1.
         13    1    4    4    0    0  0.39361455087E+02 -0.41515747018E+02 -0.28272518042E+03  0.28845521150E+03  0.00000000000E+00 0. -1.
        -14    1    4    4    0    0  0.31155848126E+02 -0.59413880552E+01 -0.78636513797E+03  0.78700452170E+03  0.00000000000E+00 0.  1.
</event>
<event>
12    1  0.8251070E-002  0.1798759E+03  0.7818608E-02  0.1168169E+00
         21   -1    0    0  501  502  0.00000000000E+00  0.00000000000E+00  0.13616536479E+04  0.13616536479E+04  0.00000000000E+00 0. -1.
         21   -1    0    0  502  503 -0.00000000000E+00 -0.00000000000E+00 -0.91712573323E+02  0.91712573323E+02  0.00000000000E+00 0. -1.
         -6    2    1    2    0  503  0.10116857942E+02 -0.46107990350E+02  0.93177322634E+01  0.18011703286E+03  0.17357139109E+03 0.  0.
        -24    2    3    3    0    0 -0.40169738950E+02 -0.45929303619E+02 -0.42931944591E+02  0.10744728340E+03  0.77321782084E+02 0.  0.
          6    2    1    2  501    0 -0.10116857942E+02  0.46107990350E+02  0.12606233423E+04  0.12732491884E+04  0.17252242430E+03 0.  0.
         24    2    5    5    0    0 -0.68502959249E+02  0.20440147192E+02  0.59920834508E+03  0.60874962963E+03  0.80093793196E+02 0.  0.
          5    1    5    5  501    0  0.58386101307E+02  0.25667843159E+02  0.66141499724E+03  0.66449955875E+03  0.47000000000E+01 0. -1.
        -11    1    6    6    0    0 -0.76499631952E+02  0.10285993436E+02  0.58266718766E+03  0.58775764302E+03  0.00000000000E+00 0.  1.
         12    1    6    6    0    0  0.79966727034E+01  0.10154153756E+02  0.16541157421E+02  0.20991986606E+02  0.00000000000E+00 0. -1.
         -5    1    3    3    0  503  0.50286596892E+02 -0.17868673169E+00  0.52249676854E+02  0.72669749465E+02  0.47000000000E+01 0.  1.
         11    1    4    4    0    0 -0.79828430500E+01  0.23901647394E+01 -0.48418475341E+02  0.49130310654E+02  0.00000000000E+00 0. -1.
        -12    1    4    4    0    0 -0.32186895900E+02 -0.48319468358E+02  0.54865307501E+01  0.58316972742E+02  0.00000000000E+00 0.  1.
</event>
<event>
12    1  0.8251070E-002  0.3563804E+03  0.7818608E-02  0.1060380E+00
         21   -1    0    0  503  502  0.00000000000E+00  0.00000000000E+00  0.92465545458E+03  0.92465545458E+03  0.00000000000E+00 0.  1.
         21   -1    0    0  501  503 -0.00000000000E+00 -0.00000000000E+00 -0.15055389223E+03  0.15055389223E+03  0.00000000000E+00 0. -1.
          6    2    1    2  501    0  0.25266306550E+03 -0.17631325730E+03  0.22167528180E+03  0.41969864544E+03  0.17911458079E+03 0.  0.
         24    2    3    3    0    0  0.69489127318E+02 -0.18455577234E+02  0.10991881728E+03  0.15327166454E+03  0.78998162090E+02 0.  0.
         -6    2    1    2    0  502 -0.25266306550E+03  0.17631325730E+03  0.55242628054E+03  0.65551070138E+03  0.17203050549E+03 0.  0.
        -24    2    5    5    0    0 -0.25339462239E+03  0.14772097373E+03  0.41121941745E+03  0.51135966240E+03  0.79730635889E+02 0.  0.
          5    1    3    3  501    0  0.18317393819E+03 -0.15785768006E+03  0.11175646453E+03  0.26642698089E+03  0.47000000000E+01 0. -1.
        -11    1    4    4    0    0  0.57743689505E+02 -0.40171106048E+01  0.11917225242E+03  0.13248583548E+03  0.00000000000E+00 0.  1.
         12    1    4    4    0    0  0.11745437813E+02 -0.14438466629E+02 -0.92534351422E+01  0.20785829066E+02  0.00000000000E+00 0. -1.
         -5    1    5    5    0  502  0.73155688930E+00  0.28592283563E+02  0.14120686309E+03  0.14415103898E+03  0.47000000000E+01 0.  1.
         11    1    6    6    0    0  0.51563061545E+01  0.76066361414E+01  0.73426789916E+01  0.11762794792E+02  0.00000000000E+00 0. -1.
        -12    1    6    6    0    0 -0.25855092855E+03  0.14011433759E+03  0.40387673846E+03  0.49959686760E+03  0.00000000000E+00 0.  1.
</event>
<event>
12    1  0.8251070E-002  0.2345184E+03  0.7818608E-02  0.1124139E+00
         21   -1    0    0  503  502  0.00000000000E+00  0.00000000000E+00  0.60308853125E+03  0.60308853125E+03  0.00000000000E+00 0. -1.
         21   -1    0    0  501  503 -0.00000000000E+00 -0.00000000000E+00 -0.16991309468E+03  0.16991309468E+03  0.00000000000E+00 0. -1.
          6    2    1    2  501    0  0.15092239616E+03 -0.43593499765E+02 -0.49769536050E+02  0.23612664357E+03  0.16911777613E+03 0.  0.
         24    2    3    3    0    0  0.10636332013E+03 -0.23483389044E+02 -0.10028195126E+03  0.16567437675E+03  0.74343149892E+02 0.  0.
         -6    2    1    2    0  502 -0.15092239616E+03  0.43593499765E+02  0.48294497263E+03  0.53687498236E+03  0.17412908203E+03 0.  0.
        -24    2    5    5    0    0 -0.74772890273E+02  0.33347382760E+02  0.42636924174E+03  0.44134156681E+03  0.79300789639E+02 0.  0.
          5    1    3    3  501    0  0.44559076032E+02 -0.20110110720E+02  0.50512415206E+02  0.70452266819E+02  0.47000000000E+01 0. -1.
        -11    1    4    4    0    0  0.11069192469E+02 -0.26844291322E+02 -0.25764521795E+01  0.29151005202E+02  0.00000000000E+00 0.  1.
         12    1    4    4    0    0  0.95294127656E+02  0.33609022774E+01 -0.97705499077E+02  0.13652337155E+03  0.00000000000E+00 0. -1.
         -5    1    5    5    0  502 -0.76149505884E+02  0.10246117005E+02  0.56575730891E+02  0.95533415546E+02  0.47000000000E+01 0.  1.
         13    1    6    6    0    0 -0.33991042663E+02  0.33821299901E+02  0.85393134449E+02  0.97934971891E+02  0.00000000000E+00 0. -1.
        -14    1    6    6    0    0 -0.40781847611E+02 -0.47391714083E+00  0.34097610729E+03  0.34340659492E+03  0.00000000000E+00 0.  1.
</event>
<event>
12    1  0.8251070E-002  0.1854080E+03  0.7818608E-02  0.1163511E+00
         21   -1    0    0  501  502  0.00000000000E+00  0.00000000000E+00  0.85764383579E+02  0.85764383579E+02  0.00000000000E+00 0.  1.
         21   -1    0    0  502  503 -0.00000000000E+00 -0.00000000000E+00 -0.41648273757E+03  0.41648273757E+03  0.00000000000E+00 0.  1.
         -6    2    1    2    0  503  0.53970203390E+02 -0.52801504422E+02 -0.10740853249E+03  0.21427250000E+03  0.16933791566E+03 0.  0.
        -24    2    3    3    0    0 -0.30545559276E+01 -0.93657305718E+00  0.58634599431E+01  0.77179726481E+02  0.76890327975E+02 0.  0.
          6    2    1    2  501    0 -0.53970203390E+02  0.52801504422E+02 -0.22330982150E+03  0.28797462115E+03  0.16541258817E+03 0.  0.
         24    2    5    5    0    0  0.24117614464E+02  0.73193438875E+01 -0.67338737491E+02  0.10765434145E+03  0.80123152357E+02 0.  0.
          5    1    5    5  501    0 -0.78087817855E+02  0.45482160535E+02 -0.15597108401E+03  0.18032027970E+03  0.47000000000E+01 0. -1.
        -13    1    6    6    0    0 -0.80160135126E+01 -0.23667780322E+02  0.21300422459E+01  0.25079022668E+02  0.00000000000E+00 0.  1.
         14    1    6    6    0    0  0.32133627977E+02  0.30987124209E+02 -0.69468779737E+02  0.82575318781E+02  0.00000000000E+00 0. -1.
         -5    1    3    3    0  503  0.57024759318E+02 -0.51864931365E+02 -0.11327199243E+03  0.13709277351E+03  0.47000000000E+01 0.  1.
         11    1    4    4    0    0 -0.79513719551E+01 -0.25018387276E+02 -0.25995103926E+02  0.36944410214E+02  0.00000000000E+00 0. -1.
        -12    1    4    4    0    0  0.48968160275E+01  0.24081814219E+02  0.31858563869E+02  0.40235316267E+02  0.00000000000E+00 0.  1.
</event>
<event>
12    1  0.8251070E-002  0.1815600E+03  0.7818608E-02  0.1167906E+00
         21   -1    0    0  501  502  0.00000000000E+00  0.00000000000E+00  0.39747829812E+02  0.39747829812E+02  0.00000000000E+00 0.  1.
         21   -1    0    0  502  503 -0.00000000000E+00 -0.00000000000E+00 -0.11157353036E+04  0.11157353036E+04  0.00000000000E+00 0. -1.
         -6    2    1    2    0  503  0.37200991872E+02 -0.44585805453E+02 -0.85261341869E+03  0.87173027371E+03  0.17202389523E+03 0.  0.
        -24    2    3    3    0    0  0.86981535626E+02 -0.21206755535E+02 -0.65850393121E+03  0.66992525484E+03  0.84598496641E+02 0.  0.
          6    2    1    2  501    0 -0.37200991872E+02  0.44585805453E+02 -0.22337405508E+03  0.28375285968E+03  0.16506940677E+03 0.  0.
         24    2    5    5    0    0 -0.14997825371E+01 -0.18482955413E+02 -0.18433013707E+03  0.20129825109E+03  0.78737014617E+02 0.  0.
          5    1    5    5  501    0 -0.35701209335E+02  0.63068760866E+02 -0.39043918015E+02  0.82454608599E+02  0.47000000000E+01 0. -1.
        -13    1    6    6    0    0  0.10813877323E+02  0.60202275116E+01  0.23642781767E+01  0.12600511630E+02  0.00000000000E+00 0.  1.
         14    1    6    6    0    0 -0.12313659860E+02 -0.24503182925E+02 -0.18669441524E+03  0.18869773946E+03  0.00000000000E+00 0. -1.
         -5    1    3    3    0  503 -0.49780543754E+02 -0.23379049918E+02 -0.19410948748E+03  0.20180501887E+03  0.47000000000E+01 0.  1.
         13    1    4    4    0    0  0.18902471978E+02 -0.28901567768E+02 -0.42965837320E+03  0.43104399048E+03  0.00000000000E+00 0. -1.
        -14    1    4    4    0    0  0.68079063649E+02  0.76948122329E+01 -0.22884555801E+03  0.23888126436E+03  0.00000000000E+00 0.  1.
</event>
<event>
12    1  0.8251070E-002  0.2008254E+03  0.7818608E-02  0.1149115E+00
         21   -1    0    0  501  502  0.00000000000E+00  0.00000000000E+00  0.28928693619E+03  0.28928693619E+03  0.00000000000E+00 0. -1.
         21   -1    0    0  502  503 -0.00000000000E+00 -0.00000000000E+00 -0.37873353801E+03  0.37873353801E+03  0.00000000000E+00 0. -1.
         -6    2    1    2    0  503 -0.48091058317E+02  0.92723476909E+02 -0.31034925377E+03  0.36947595220E+03  0.17112985386E+03 0.  0.
        -24    2    3    3    0    0  0.25335012052E+01  0.88272429450E+02 -0.29185313131E+03  0.31519101510E+03  0.79804043221E+02 0.  0.
          6    2    1    2  501    0  0.48091058317E+02 -0.92723476909E+02  0.22090265194E+03  0.29854452200E+03  0.17152392522E+03 0.  0.
         24    2    5    5    0    0  0.33732723148E+02 -0.19936242591E+02  0.20359604454E+03  0.22221790850E+03  0.79963111034E+02 0.  0.
          5    1    5    5  501    0  0.14358335169E+02 -0.72787234318E+02  0.17306607398E+02  0.76326613498E+02  0.47000000000E+01 0. -1.
        -11    1    6    6    0    0  0.23797711160E+01  0.14432410878E+02  0.13489583404E+01  0.14689366322E+02  0.00000000000E+00 0.  1.
         12    1    6    6    0    0  0.31352952032E+02 -0.34368653470E+02  0.20224708620E+03  0.20752854218E+03  0.00000000000E+00 0. -1.
         -5    1    3    3    0  503 -0.50624559522E+02  0.44510474595E+01 -0.18496122456E+02  0.54284937103E+02  0.47000000000E+01 0.  1.
         13    1    4    4    0    0  0.17075993886E+02  0.29657689546E+02 -0.21370162533E+03  0.21642447363E+03  0.00000000000E+00 0. -1.
        -14    1    4    4    0    0 -0.14542492681E+02  0.58614739904E+02 -0.78151505983E+02  0.98766541474E+02  0.00000000000E+00 0.  1.
</event>
<event>
12    1  0.8251070E-002  0.1780812E+03  0.7818608E-02  0.1169891E+00
         21   -1    0    0  503  502  0.00000000000E+00  0.00000000000E+00  0.15514965105E+04  0.15514965105E+04  0.00000000000E+00 0. -1.
         21   -1    0    0  501  503 -0.00000000000E+00 -0.00000000000E+00 -0.20925538478E+02  0.20925538478E+02  0.00000000000E+00 0. -1.
          6    2    1    2  501    0 -0.35802026988E+02 -0.23125202232E+02  0.89508687222E+03  0.91245767842E+03  0.17199402886E+03 0.  0.
         24    2    3    3    0    0 -0.20950533086E+02 -0.79320145060E+02  0.67994440631E+03  0.68955229690E+03  0.80170844076E+02 0.  0.
         -6    2    1    2    0  502  0.35802026988E+02  0.23125202232E+02  0.63548409980E+03  0.65996437056E+03  0.17290566560E+03 0.  0.
        -24    2    5    5    0    0  0.46791776993E+02  0.15302963815E+02  0.15273832032E+03  0.17700729211E+03  0.74692274504E+02 0.  0.
          5    1    3    3  501    0 -0.14851493902E+02  0.56194942828E+02  0.21514246592E+03  0.22290538152E+03  0.47000000000E+01 0. -1.
        -13    1    4    4    0    0 -0.36559323781E+02 -0.23933609311E+02  0.14284308134E+03  0.14937719938E+03  0.00000000000E+00 0.  1.
         14    1    4    4    0    0  0.15608790695E+02 -0.55386535749E+02  0.53710132497E+03  0.54017509752E+03  0.00000000000E+00 0. -1.
         -5    1    5    5    0  502 -0.10989750005E+02  0.78222384175E+01  0.48274577948E+03  0.48295707845E+03  0.47000000000E+01 0.  1.
         11    1    6    6    0    0 -0.19164068903E+02 -0.13171831478E+01  0.19282164569E+02  0.27217611556E+02  0.00000000000E+00 0. -1.
        -12    1    6    6    0    0  0.65955845896E+02  0.16620146963E+02  0.13345615575E+03  0.14978968055E+03  0.00000000000E+00 0.  1.
</event>
<event>
12    1  0.8251070E-002  0.2050688E+03  0.7818608E-02  0.1148045E+00
         21   -1    0    0  501  502  0.00000000000E+00  0.00000000000E+00  0.39571758574E+03  0.39571758574E+03  0.00000000000E+00 0. -1.
         21   -1    0    0  502  503 -0.00000000000E+00 -0.00000000000E+00 -0.10043524297E+03  0.10043524297E+03  0.00000000000E+00 0.  1.
         -6    2    1    2    0  503 -0.48288549632E+02 -0.73300407310E+02  0.13076098212E+03  0.23324507940E+03  0.17204679272E+03 0.  0.
        -24    2    3    3    0    0 -0.68650132142E+02  0.15222022012E+01  0.37133840090E+02  0.11158510792E+03  0.79731778405E+02 0.  0.
          6    2    1    2  501    0  0.48288549632E+02  0.73300407310E+02  0.16452136065E+03  0.26290774930E+03  0.18533340983E+03 0.  0.
         24    2    5    5    0    0  0.36693079109E+02 -0.33377393091E+00  0.16642919147E+03  0.18819377871E+03  0.79823111400E+02 0.  0.
          5    1    5    5  501    0  0.11595470523E+02  0.73634181241E+02 -0.19078308196E+01  0.74713970595E+02  0.47000000000E+01 0. -1.
        -11    1    6    6    0    0 -0.75861298374E+01  0.18795775750E+02  0.67109922429E+01  0.21351064817E+02  0.00000000000E+00 0.  1.
         12    1    6    6    0    0  0.44279208946E+02 -0.19129549681E+02  0.15971819922E+03  0.16684271389E+03  0.00000000000E+00 0. -1.
         -5    1    3    3    0  503  0.20361582510E+02 -0.74822609511E+02  0.93627142029E+02  0.12165997148E+03  0.47000000000E+01 0.  1.
         11    1    4    4    0    0 -0.49482744441E+01 -0.20032809046E+02  0.39204457442E+02  0.44303367159E+02  0.00000000000E+00 0. -1.
        -12    1    4    4    0    0 -0.63701857698E+02  0.21555011247E+02 -0.20706173516E+01  0.67281740764E+02  0.00000000000E+00 0.  1.
</event>
<event>
12    1  0.8251070E-002  0.2344394E+03  0.7818608E-02  0.1124136E+00
         21   -1    0    0  503  502  0.00000000000E+00  0.00000000000E+00  0.68515604182E+03  0.68515604182E+03  0.00000000000E+00 0.  1.
         21   -1    0    0  501  503 -0.00000000000E+00 -0.00000000000E+00 -0.18992833280E+03  0.18992833280E+03  0.00000000000E+00 0. -1.
          6    2    1    2  501    0 -0.56723696259E+02 -0.14987454197E+03 -0.85915388358E+02  0.24968636359E+03  0.17111946166E+03 0.  0.
         24    2    3    3    0    0 -0.95068140943E+02 -0.67904290095E+02 -0.67853847504E+02  0.15728653735E+03  0.80535496371E+02 0.  0.
         -6    2    1    2    0  502  0.56723696259E+02  0.14987454197E+03  0.58114309738E+03  0.62539801104E+03  0.16647947781E+03 0.  0.
        -24    2    5    5    0    0  0.24992662196E+02  0.17260313287E+03  0.47301131288E+03  0.51034141546E+03  0.79323285259E+02 0.  0.
          5    1    3    3  501    0  0.38344444683E+02 -0.81970251875E+02 -0.18061540854E+02  0.92399826237E+02  0.47000000000E+01 0. -1.
        -11    1    4    4    0    0 -0.71899890296E+02 -0.85697739116E+02 -0.46710585153E+02  0.12122530874E+03  0.00000000000E+00 0.  1.
         12    1    4    4    0    0 -0.23168250646E+02  0.17793449021E+02 -0.21143262351E+02  0.36061228611E+02  0.00000000000E+00 0. -1.
         -5    1    5    5    0  502  0.31731034063E+02 -0.22728590898E+02  0.10813178449E+03  0.11505659557E+03  0.47000000000E+01 0.  1.
         11    1    6    6    0    0  0.47468016176E+01  0.94412231788E+02  0.14933957460E+03  0.17674419419E+03  0.00000000000E+00 0. -1.
        -12    1    6    6    0    0  0.20245860579E+02  0.78190901080E+02  0.32367173828E+03  0.33359722127E+03  0.00000000000E+00 0.  1.
</event>
<event>
12    1  0.8251070E-002  0.1956445E+03  0.7818608E-02  0.1153596E+00
         21   -1    0    0  501  502  0.00000000000E+00  0.00000000000E+00  0.30827298458E+03  0.30827298458E+03  0.00000000000E+00 0.  1.
         21   -1    0    0  502  503 -0.00000000000E+00 -0.00000000000E+00 -0.15953675104E+03  0.15953675104E+03  0.00000000000E+00 0.  1.
         -6    2    1    2    0  503  0.81931701086E+02 -0.41911542878E+02 -0.36266556455E+02  0.19897746859E+03  0.17264816483E+03 0.  0.
        -24    2    3    3    0    0  0.26505067157E+02  0.39285970523E+02  0.30084263635E+01  0.93006896226E+02  0.79970782486E+02 0.  0.
          6    2    1    2  501    0 -0.81931701086E+02  0.41911542878E+02  0.18500279000E+03  0.26883226703E+03  0.17197492381E+03 0.  0.
         24    2    5    5    0    0  0.11465374461E+02 -0.83701721128E+01  0.11914823694E+03  0.14389157413E+03  0.79416422407E+02 0.  0.
          5    1    5    5  501    0 -0.93397075547E+02  0.50281714991E+02  0.65854553060E+02  0.12494069290E+03  0.47000000000E+01 0. -1.
        -11    1    6    6    0    0 -0.28885073846E+02  0.93639013872E+01  0.22902300068E+02  0.38033478525E+02  0.00000000000E+00 0.  1.
         12    1    6    6    0    0  0.40350448307E+02 -0.17734073500E+02  0.96245936872E+02  0.10585809561E+03  0.00000000000E+00 0. -1.
         -5    1    3    3    0  503  0.55426633929E+02 -0.81197513401E+02 -0.39274982818E+02  0.10597057236E+03  0.47000000000E+01 0.  1.
         13    1    4    4    0    0  0.48575296202E+02  0.47600868088E+02 -0.47578252351E+01  0.68176527814E+02  0.00000000000E+00 0. -1.
        -14    1    4    4    0    0 -0.22070229044E+02 -0.83148975647E+01  0.77662515986E+01  0.24830368412E+02  0.00000000000E+00 0.  1.
</event>
<event>
12    1  0.8251070E-002  0.1878723E+03  0.7818608E-02  0.1161355E+00
         21   -1    0    0  503  502  0.00000000000E+00  0.00000000000E+00  0.12353908168E+03  0.12353908168E+03  0.00000000000E+00 0. -1.
         21   -1    0    0  501  503 -0.00000000000E+00 -0.00000000000E+00 -0.30746613389E+03  0.30746613389E+03  0.00000000000E+00 0. -1.
          6    2    1    2  501    0 -0.90106189736E+01  0.73916801336E+02 -0.27828064257E+02  0.18992205098E+03  0.17248507041E+03 0.  0.
         24    2    3    3    0    0  0.51950587737E+02  0.74370668216E+02 -0.39817104092E+02  0.12761393117E+03  0.80436644591E+02 0.  0.
         -6    2    1    2    0  502  0.90106189736E+01 -0.73916801336E+02 -0.15609898796E+03  0.24108316459E+03  0.16795628429E+03 0.  0.
        -24    2    5    5    0    0  0.56368737466E+02 -0.83255440491E+02 -0.91370788937E+02  0.16020157634E+03  0.84894175634E+02 0.  0.
          5    1    3    3  501    0 -0.60961206710E+02 -0.45386687983E+00  0.11989039836E+02  0.62308119815E+02  0.47000000000E+01 0. -1.
        -13    1    4    4    0    0  0.47528343430E+01 -0.13421698747E+02  0.87749635277E+01  0.16725173137E+02  0.00000000000E+00 0.  1.
         14    1    4    4    0    0  0.47197753394E+02  0.87792366963E+02 -0.48592067620E+02  0.11088875803E+03  0.00000000000E+00 0. -1.
         -5    1    5    5    0  502 -0.47358118492E+02  0.93386391544E+01 -0.64728199020E+02  0.80881588243E+02  0.47000000000E+01 0.  1.
         13    1    6    6    0    0  0.49111247151E+02 -0.91040365852E+02 -0.45315565568E+02  0.11293256082E+03  0.00000000000E+00 0. -1.
        -14    1    6    6    0    0  0.72574903148E+01  0.77849253617E+01 -0.46055223369E+02  0.47269015519E+02  0.00000000000E+00 0.  1.
</event>
<event>
12    1  0.8251070E-002  0.1759186E+03  0.7818608E-02  0.1172034E+00
         21   -1    0    0  503  502  0.00000000000E+00  0.00000000000E+00  0.13838106419E+03  0.13838106419E+03  0.00000000000E+00 0.  1.
         21   -1    0    0  501  503 -0.00000000000E+00 -0.00000000000E+00 -0.24276735610E+03  0.24276735610E+03  0.00000000000E+00 0.  1.
          6    2    1    2  501    0  0.38951194637E+02 -0.74088383543E+01 -0.10711916080E+03  0.20520855829E+03  0.17048152785E+03 0.  0.
         24    2    3    3    0    0  0.88959132214E+02  0.15480256131E+02 -0.62984597103E+02  0.13453569095E+03  0.77326755601E+02 0.  0.
         -6    2    1    2    0  502 -0.38951194637E+02  0.74088383543E+01  0.27328688842E+01  0.17593986200E+03  0.17139218191E+03 0.  0.
        -24    2    5    5    0    0  0.15443635743E+02  0.54192573136E+02  0.22818814246E+02  0.10128699459E+03  0.81012444234E+02 0.  0.
          5    1    3    3  501    0 -0.50007937577E+02 -0.22889094485E+02 -0.44134563692E+02  0.70672867349E+02  0.47000000000E+01 0. -1.
        -13    1    4    4    0    0  0.80978286454E+02  0.38984498027E+02 -0.33309504603E+02  0.95847780675E+02  0.00000000000E+00 0.  1.
         14    1    4    4    0    0  0.79808457598E+01 -0.23504241896E+02 -0.29675092500E+02  0.38687910270E+02  0.00000000000E+00 0. -1.
         -5    1    5    5    0  502 -0.54394830380E+02 -0.46783734782E+02 -0.20085945362E+02  0.74652867415E+02  0.47000000000E+01 0.  1.
         13    1    6    6    0    0 -0.11653345548E+02  0.50051118362E+02  0.43194619344E+02  0.67131885509E+02  0.00000000000E+00 0. -1.
        -14    1    6    6    0    0  0.27096981291E+02  0.41414547742E+01 -0.20375805098E+02  0.34155109078E+02  0.00000000000E+00 0.  1.
</event>
<event>
12    1  0.8251070E-002  0.1757135E+03  0.7818608E-02  0.1173371E+00
         21   -1    0    0  501  502  0.00000000000E+00  0.00000000000E+00  0.35073943365E+03  0.35073943365E+03  0.00000000000E+00 0. -1.
         21   -1    0    0  502  503 -0.00000000000E+00 -0.00000000000E+00 -0.85539609829E+02  0.85539609829E+02  0.00000000000E+00 0. -1.
         -6    2    1    2    0  503 -0.35567031307E+02  0.19506829570E+01  0.12513547555E+03  0.21571765781E+03  0.17206510910E+03 0.  0.
        -24    2    3    3    0    0 -0.30302206128E+02  0.52106761543E+02  0.13717682996E+03  0.16365582131E+03  0.65821021542E+02 0.  0.
          6    2    1    2  501    0  0.35567031307E+02 -0.19506829570E+01  0.14006434827E+03  0.22056138567E+03  0.16661477819E+03 0.  0.
         24    2    5    5    0    0  0.42475231306E+02  0.58559756938E+02  0.10312319965E+03  0.14917528741E+03  0.79909208852E+02 0.  0.
          5    1    5    5  501    0 -0.69081999992E+01 -0.60510439895E+02  0.36941148617E+02  0.71386098260E+02  0.47000000000E+01 0. -1.
        -11    1    6    6    0    0  0.44100778950E+02  0.52607680686E+02  0.28550354073E+02  0.74347625980E+02  0.00000000000E+00 0.  1.
         12    1    6    6    0    0 -0.16255476445E+01  0.59520762524E+01  0.74572845580E+02  0.74827661428E+02  0.00000000000E+00 0. -1.
         -5    1    3    3    0  503 -0.52648251785E+01 -0.50156078586E+02 -0.12041354412E+02  0.52061836496E+02  0.47000000000E+01 0.  1.
         11    1    4    4    0    0 -0.19984433664E+02 -0.62738728458E+00  0.89861871866E+02  0.92059367904E+02  0.00000000000E+00 0. -1.
        -12    1    4    4    0    0 -0.10317772464E+02  0.52734148827E+02  0.47314958094E+02  0.71596453408E+02  0.00000000000E+00 0.  1.
</event>
<event>
12    1  0.8251070E-002  0.2103169E+03  0.7818608E-02  0.1144702E+00
         21   -1    0    0  501  502  0.00000000000E+00  0.00000000000E+00  0.47338396747E+03  0.47338396747E+03  0.00000000000E+00 0. -1.
         21   -1    0    0  502  503 -0.00000000000E+00 -0.00000000000E+00 -0.13140854860E+03  0.13140854860E+03  0.00000000000E+00 0. -1.
         -6    2    1    2    0  503 -0.27148603433E+02 -0.76181368174E+02 -0.15460692233E+01  0.21032262426E+03  0.19414574016E+03 0.  0.
        -24    2    3    3    0    0 -0.86772771258E+02 -0.84106122691E+02  0.20529938290E+02  0.14607868890E+03  0.79461634010E+02 0.  0.
          6    2    1    2  501    0  0.27148603433E+02  0.76181368174E+02  0.34352148810E+03  0.39446989181E+03  0.17623517025E+03 0.  0.
         24    2    5    5    0    0  0.53148544959E+02  0.11195279440E+03  0.23661548126E+03  0.27868312144E+03  0.79493397208E+02 0.  0.
          5    1    5    5  501    0 -0.25999941526E+02 -0.35771426230E+02  0.10690600684E+03  0.11578677036E+03  0.47000000000E+01 0. -1.
        -11    1    6    6    0    0  0.66672910764E+02  0.52311872058E+02  0.11863444835E+03  0.14579417452E+03  0.00000000000E+00 0.  1.
         12    1    6    6    0    0 -0.13524365805E+02  0.59640922346E+02  0.11798103291E+03  0.13288894692E+03  0.00000000000E+00 0. -1.
         -5    1    3    3    0  503  0.59624167824E+02  0.79247545172E+01 -0.22076007513E+02  0.64243935360E+02  0.47000000000E+01 0.  1.
         11    1    4    4    0    0 -0.57638793918E+02 -0.87843481211E+02  0.38207438121E+02  0.11179676240E+03  0.00000000000E+00 0. -1.
        -12    1    4    4    0    0 -0.29133977339E+02  0.37373585200E+01 -0.17677499832E+02  0.34281926501E+02  0.00000000000E+00 0.  1.
</event>
<event>
12    1  0.8251070E-002  0.3048320E+03  0.7818608E-02  0.1082877E+00
         21   -1    0    0  501  502  0.00000000000E+00  0.00000000000E+00  0.94061942662E+02  0.94061942662E+02  0.00000000000E+00 0.  1.
         21   -1    0    0  502  503 -0.00000000000E+00 -0.00000000000E+00 -0.13692026344E+04  0.13692026344E+04  0.00000000000E+00 0.  1.
         -6    2    1    2    0  503 -0.17678576595E+03 -0.17921230460E+03 -0.10238697675E+04  0.10682207602E+04  0.17151103339E+03 0.  0.
        -24    2    3    3    0    0 -0.95411500457E+02 -0.21780701166E+02 -0.37360659666E+03  0.39422464583E+03  0.79078625114E+02 0.  0.
          6    2    1    2  501    0  0.17678576595E+03  0.17921230460E+03 -0.25127092424E+03  0.39504381685E+03  0.17190777383E+03 0.  0.
         24    2    5    5    0    0  0.18115839249E+03  0.19851999954E+03 -0.24753209139E+03  0.37435624044E+03  0.81497884036E+02 0.  0.
          5    1    5    5  501    0 -0.43726265364E+01 -0.19307694939E+02 -0.37388328448E+01  0.20687576410E+02  0.47000000000E+01 0. -1.
        -11    1    6    6    0    0  0.12423184638E+03  0.10290690593E+03 -0.18947215531E+03  0.24884348611E+03  0.00000000000E+00 0.  1.
         12    1    6    6    0    0  0.56926546113E+02  0.95613093613E+02 -0.58059936088E+02  0.12551275434E+03  0.00000000000E+00 0. -1.
         -5    1    3    3    0  503 -0.81374265496E+02 -0.15743160344E+03 -0.65026317083E+03  0.67399611437E+03  0.47000000000E+01 0.  1.
         11    1    4    4    0    0  0.14006568446E+02 -0.26952343980E+01 -0.54719119377E+02  0.56547592995E+02  0.00000000000E+00 0. -1.
        -12    1    4    4    0    0 -0.10941806890E+03 -0.19085466768E+02 -0.31888747728E+03  0.33767705284E+03  0.00000000000E+00 0.  1.
</event>
<event>
12    1  0.8251070E-002  0.1876349E+03  0.7818608E-02  0.1160954E+00
         21   -1    0    0  501  502  0.00000000000E+00  0.00000000000E+00  0.20050776127E+03  0.20050776127E+03  0.00000000000E+00 0. -1.
         21   -1    0    0  502  503 -0.00000000000E+00 -0.00000000000E+00 -0.29543790348E+03  0.29543790348E+03  0.00000000000E+00 0. -1.
         -6    2    1    2    0  503 -0.67240144422E+02 -0.19113439862E+02 -0.20642710776E+03  0.27896057425E+03  0.17412722522E+03 0.  0.
        -24    2    3    3    0    0 -0.22726014000E+02 -0.20993180539E+02 -0.21637752636E+03  0.23306785084E+03  0.80896253565E+02 0.  0.
          6    2    1    2  501    0  0.67240144422E+02  0.19113439862E+02  0.11149696556E+03  0.21698509050E+03  0.17252360871E+03 0.  0.
         24    2    5    5    0    0 -0.10075564078E+02 -0.30278116479E+02  0.39567091502E+02  0.10030929438E+03  0.86476115079E+02 0.  0.
          5    1    5    5  501    0  0.77315708500E+02  0.49391556341E+02  0.71929874054E+02  0.11667579612E+03  0.47000000000E+01 0. -1.
        -11    1    6    6    0    0  0.22210288620E+02 -0.46788101090E+02  0.37585418600E+02  0.63992866911E+02  0.00000000000E+00 0.  1.
         12    1    6    6    0    0 -0.32285852699E+02  0.16509984610E+02  0.19816729020E+01  0.36316427465E+02  0.00000000000E+00 0. -1.
         -5    1    3    3    0  503 -0.44514130422E+02  0.18797406769E+01  0.99504185938E+01  0.45892723414E+02  0.47000000000E+01 0.  1.
         13    1    4    4    0    0  0.22869402748E+02  0.13546086556E+02 -0.98826371727E+02  0.10233844728E+03  0.00000000000E+00 0. -1.
        -14    1    4    4    0    0 -0.45595416749E+02 -0.34539267095E+02 -0.11755115463E+03  0.13072940356E+03  0.00000000000E+00 0.  1.
</event>
<event>
12    1  0.8251070E-002  0.2007791E+03  0.7818608E-02  0.1149163E+00
         21   -1    0    0  501  502  0.00000000000E+00  0.00000000000E+00  0.36768865710E+02  0.36768865710E+02  0.00000000000E+00 0.  1.
         21   -1    0    0  502  503 -0.00000000000E+00 -0.00000000000E+00 -0.13444851379E+04  0.13444851379E+04  0.00000000000E+00 0.  1.
         -6    2    1    2    0  503 -0.10075111714E+03 -0.22611158493E+02 -0.35644406713E+03  0.40910222769E+03  0.17219235644E+03 0.  0.
        -24    2    3    3    0    0  0.12873592351E+02 -0.53603465556E+01 -0.12295777585E+03  0.14882141139E+03  0.82672457025E+02 0.  0.
          6    2    1    2  501    0  0.10075111714E+03  0.22611158493E+02 -0.95127220504E+03  0.97215177590E+03  0.17175044456E+03 0.  0.
         24    2    5    5    0    0 -0.15989672789E+02 -0.18568977698E+01 -0.41677992103E+03  0.42449203712E+03  0.78923186079E+02 0.  0.
          5    1    5    5  501    0  0.11674078993E+03  0.24468056263E+02 -0.53449228401E+03  0.54765973878E+03  0.47000000000E+01 0. -1.
        -13    1    6    6    0    0 -0.27523332499E+02 -0.34542857247E+02 -0.27577670556E+03  0.27929112794E+03  0.00000000000E+00 0.  1.
         14    1    6    6    0    0  0.11533659709E+02  0.32685959477E+02 -0.14100321547E+03  0.14520090917E+03  0.00000000000E+00 0. -1.
         -5    1    3    3    0  503 -0.11362470949E+03 -0.17250811937E+02 -0.23348629128E+03  0.26028081630E+03  0.47000000000E+01 0.  1.
         13    1    4    4    0    0  0.24694988786E+02 -0.19080054251E+02 -0.12656493588E+03  0.13035556734E+03  0.00000000000E+00 0. -1.
        -14    1    4    4    0    0 -0.11821396436E+02  0.13719707695E+02  0.36071600327E+01  0.18465844049E+02  0.00000000000E+00 0.  1.
</event>
<event>
12    1  0.8251070E-002  0.1891251E+03  0.7818608E-02  0.1159282E+00
         21   -1    0    0  503  502  0.00000000000E+00  0.00000000000E+00  0.31903113311E+03  0.31903113311E+03  0.00000000000E+00 0.  1.
         21   -1    0    0  501  503 -0.00000000000E+00 -0.00000000000E+00 -0.16578256286E+03  0.16578256286E+03  0.00000000000E+00 0. -1.
          6    2    1    2  501    0 -0.67678893933E+02  0.28411633963E+02 -0.61377279921E+02  0.19883531413E+03  0.17430048201E+03 0.  0.
         24    2    3    3    0    0  0.32048610676E+02  0.21354962028E+02 -0.36520062652E+02  0.95707514561E+02  0.79643364556E+02 0.  0.
         -6    2    1    2    0  502  0.67678893933E+02 -0.28411633963E+02  0.21462585018E+03  0.28597838183E+03  0.17416005766E+03 0.  0.
        -24    2    5    5    0    0  0.35410634658E+02  0.46511585539E+02  0.77711349135E+02  0.12653434785E+03  0.80960773005E+02 0.  0.
          5    1    3    3  501    0 -0.99727504608E+02  0.70566719353E+01 -0.24857217269E+02  0.10312779957E+03  0.47000000000E+01 0. -1.
        -13    1    4    4    0    0 -0.11428274963E+02  0.20107066981E+02  0.15544021007E+02  0.27866040269E+02  0.00000000000E+00 0.  1.
         14    1    4    4    0    0  0.43476885639E+02  0.12478950467E+01 -0.52064083659E+02  0.67841474292E+02  0.00000000000E+00 0. -1.
         -5    1    5    5    0  502  0.32268259274E+02 -0.74923219502E+02  0.13691450104E+03  0.15944403398E+03  0.47000000000E+01 0.  1.
         11    1    6    6    0    0 -0.52988187933E+01  0.47156454322E+02  0.70808460287E+02  0.85238762972E+02  0.00000000000E+00 0. -1.
        -12    1    6    6    0    0  0.40709453452E+02 -0.64486878292E+00  0.69028888482E+01  0.41295584879E+02  0.00000000000E+00 0.  1.
</event>
<event>
12    1  0.8251070E-002  0.2318454E+03  0.7818608E-02  0.1125783E+00
         21   -1    0    0  503  502  0.00000000000E+00  0.00000000000E+00  0.65572297702E+03  0.65572297702E+03  0.00000000000E+00 0.  1.
         21   -1    0    0  501  503 -0.00000000000E+00 -0.00000000000E+00 -0.88566448636E+02  0.88566448636E+02  0.00000000000E+00 0.  1.
          6    2    1    2  501    0  0.14107719094E+03  0.60823072088E+02  0.17410350680E+03  0.28795297438E+03  0.17030168664E+03 0.  0.
         24    2    3    3    0    0  0.14603381706E+03  0.95760448038E+02  0.12947091032E+03  0.23086228294E+03  0.77709316895E+02 0.  0.
         -6    2    1    2    0  502 -0.14107719094E+03 -0.60823072088E+02  0.39305302158E+03  0.45633645128E+03  0.17363772368E+03 0.  0.
        -24    2    5    5    0    0 -0.56034307224E+02 -0.29150201574E+02  0.76335721983E+02  0.12684077503E+03  0.79195087739E+02 0.  0.
          5    1    3    3  501    0 -0.49566261145E+01 -0.34937375950E+02  0.44632596478E+02  0.57090691439E+02  0.47000000000E+01 0. -1.
        -11    1    4    4    0    0  0.68570721022E+02  0.57367053249E+02  0.20433294158E+02  0.91708462478E+02  0.00000000000E+00 0.  1.
         12    1    4    4    0    0  0.77463096033E+02  0.38393394789E+02  0.10903761616E+03  0.13915382046E+03  0.00000000000E+00 0. -1.
         -5    1    5    5    0  502 -0.85042883717E+02 -0.31672870514E+02  0.31671729960E+03  0.32949567624E+03  0.47000000000E+01 0.  1.
         13    1    6    6    0    0  0.11022915202E+02 -0.27682714914E+02  0.41982840569E+02  0.51481999444E+02  0.00000000000E+00 0. -1.
        -14    1    6    6    0    0 -0.67057222426E+02 -0.14674866604E+01  0.34352881415E+02  0.75358775587E+02  0.00000000000E+00 0.  1.
</event>
<event>
12    1  0.8251070E-002  0.1869550E+03  0.7818608E-02  0.1161972E+00
         21   -1    0    0  503  502  0.00000000000E+00  0.00000000000E+00  0.12134570521E+04  0.12134570521E+04  0.00000000000E+00 0. -1.
         21   -1    0    0  501  503 -0.00000000000E+00 -0.00000000000E+00 -0.23253835440E+03  0.23253835440E+03  0.00000000000E+00 0. -1.
          6    2    1    2  501    0  0.17070770422E+02 -0.62136293213E+02 -0.18657384815E+03  0.26412490851E+03  0.17549882149E+03 0.  0.
         24    2    3    3    0    0  0.45277870086E+02 -0.31617863360E+02 -0.16775429178E+02  0.89251788455E+02  0.68078571631E+02 0.  0.
         -6    2    1    2    0  502 -0.17070770422E+02  0.62136293213E+02  0.11674925459E+04  0.11818704980E+04  0.17212408107E+03 0.  0.
        -24    2    5    5    0    0  0.45253459054E+02 -0.13304014752E+01  0.48894733224E+03  0.49750361698E+03  0.79941914432E+02 0.  0.
          5    1    3    3  501    0 -0.28207099664E+02 -0.30518429853E+02 -0.16979841897E+03  0.17487312006E+03  0.47000000000E+01 0. -1.
        -13    1    4    4    0    0  0.45819030754E+02 -0.49276477228E+02 -0.22060739712E+02  0.70811235153E+02  0.00000000000E+00 0.  1.
         14    1    4    4    0    0 -0.54116066821E+00  0.17658613868E+02  0.52853105341E+01  0.18440553301E+02  0.00000000000E+00 0. -1.
         -5    1    5    5    0  502 -0.62324229475E+02  0.63466694689E+02  0.67854521365E+03  0.68436688105E+03  0.47000000000E+01 0.  1.
         11    1    6    6    0    0  0.65829988169E+01  0.28109135827E+02  0.33078425512E+03  0.33204168839E+03  0.00000000000E+00 0. -1.
        -12    1    6    6    0    0  0.38670460237E+02 -0.29439537302E+02  0.15816307711E+03  0.16546192859E+03  0.00000000000E+00 0.  1.
</event>
<event>
12    1  0.8251070E-002  0.1782973E+03  0.7818608E-02  0.1170056E+00
         21   -1    0    0  503  502  0.00000000000E+00  0.00000000000E+00  0.33527535469E+02  0.33527535469E+02  0.00000000000E+00 0.  1.
         21   -1    0    0  501  503 -0.00000000000E+00 -0.00000000000E+00 -0.94626161597E+03  0.94626161597E+03  0.00000000000E+00 0.  1.
          6    2    1    2  501    0  0.42156361307E+02  0.56958982607E+01 -0.50576443813E+03  0.53547596653E+03  0.17066704957E+03 0.  0.
         24    2    3    3    0    0  0.54658154307E+02 -0.16685298049E+02 -0.49858187531E+03  0.50844095248E+03  0.81623542955E+02 0.  0.
         -6    2    1    2    0  502 -0.42156361307E+02 -0.56958982607E+01 -0.40696964238E+03  0.44431318490E+03  0.17314824402E+03 0.  0.
        -24    2    5    5    0    0  0.37221681880E+02 -0.44785000297E+01 -0.28581064562E+03  0.29938579518E+03  0.80861725425E+02 0.  0.
          5    1    3    3  501    0 -0.12501793000E+02  0.22381196310E+02 -0.71825628144E+01  0.27035014057E+02  0.47000000000E+01 0. -1.
        -11    1    4    4    0    0  0.72528220587E+02 -0.24698828772E+02 -0.33277465543E+03  0.34148110668E+03  0.00000000000E+00 0.  1.
         12    1    4    4    0    0 -0.17870066279E+02  0.80135307229E+01 -0.16580721988E+03  0.16695984580E+03  0.00000000000E+00 0. -1.
         -5    1    5    5    0  502 -0.79378043187E+02 -0.12173982310E+01 -0.12115899675E+03  0.14492738972E+03  0.47000000000E+01 0.  1.
         11    1    6    6    0    0  0.42479657482E+02 -0.52326069693E+00 -0.60207666399E+02  0.73686892964E+02  0.00000000000E+00 0. -1.
        -12    1    6    6    0    0 -0.52579756025E+01 -0.39552393327E+01 -0.22560297923E+03  0.22569890222E+03  0.00000000000E+00 0.  1.
</event>
<event>
12    1  0.8251070E-002  0.2445749E+03  0.7818608E-02  0.1118664E+00
         21   -1    0    0  503  502  0.00000000000E+00  0.00000000000E+00  0.66790437619E+03  0.66790437619E+03  0.00000000000E+00 0. -1.
         21   -1    0    0  501  503 -0.00000000000E+00 -0.00000000000E+00 -0.15610683383E+03  0.15610683383E+03  0.00000000000E+00 0. -1.
          6    2    1    2  501    0  0.98078660064E+02  0.14618908214E+03 -0.24511999441E+02  0.23456670119E+03  0.15306870317E+03 0.  0.
         24    2    3    3    0    0  0.91117541299E+02  0.11799946420E+03  0.30973514565E+02  0.17176666935E+03  0.79486792681E+02 0.  0.
         -6    2    1    2    0  502 -0.98078660064E+02 -0.14618908214E+03  0.53630954180E+03  0.58944450883E+03  0.16978289981E+03 0.  0.
        -24    2    5    5    0    0 -0.78093421179E+02 -0.11354941688E+03  0.52590655948E+03  0.54950618685E+03  0.79920507817E+02 0.  0.
          5    1    3    3  501    0  0.69611187651E+01  0.28189617942E+02 -0.55485514005E+02  0.62800031836E+02  0.47000000000E+01 0. -1.
        -13    1    4    4    0    0  0.36223769858E+02  0.16791977288E+00  0.19836136823E+02  0.41299661304E+02  0.00000000000E+00 0.  1.
         14    1    4    4    0    0  0.54893771442E+02  0.11783154443E+03  0.11137377741E+02  0.13046700805E+03  0.00000000000E+00 0. -1.
         -5    1    5    5    0  502 -0.19985238885E+02 -0.32639665263E+02  0.10402982316E+02  0.39938321983E+02  0.47000000000E+01 0.  1.
         13    1    6    6    0    0 -0.75891343793E+02 -0.12343361556E+03  0.44567248601E+03  0.46863559223E+03  0.00000000000E+00 0. -1.
        -14    1    6    6    0    0 -0.22020773864E+01  0.98841986822E+01  0.80234073470E+02  0.80870594619E+02  0.00000000000E+00 0.  1.
</event>
<event>
12    1  0.8251070E-002  0.1999941E+03  0.7818608E-02  0.1151471E+00
         21   -1    0    0  503  502  0.00000000000E+00  0.00000000000E+00  0.65437761599E+02  0.65437761599E+02  0.00000000000E+00 0. -1.
         21   -1    0    0  501  503 -0.00000000000E+00 -0.00000000000E+00 -0.15809866146E+04  0.15809866146E+04  0.00000000000E+00 0. -1.
          6    2    1    2  501    0  0.85398132827E+02 -0.39200940263E+00 -0.14047118292E+04  0.14177707687E+04  0.17194660461E+03 0.  0.
         24    2    3    3    0    0  0.40928603337E+02 -0.15774872700E+02 -0.41203587133E+03  0.42396906877E+03  0.89734134132E+02 0.  0.
         -6    2    1    2    0  502 -0.85398132827E+02  0.39200940263E+00 -0.11083702380E+03  0.22865360746E+03  0.18084421914E+03 0.  0.
        -24    2    5    5    0    0 -0.12167544224E+03 -0.34641518350E+02 -0.75802525071E+02  0.16706710450E+03  0.78488512293E+02 0.  0.
          5    1    3    3  501    0  0.44469529490E+02  0.15382863298E+02 -0.99267595787E+03  0.99380169997E+03  0.47000000000E+01 0. -1.
        -11    1    4    4    0    0  0.45334306997E+02 -0.43536027105E+02 -0.35337749109E+03  0.35892371927E+03  0.00000000000E+00 0.  1.
         12    1    4    4    0    0 -0.44057036599E+01  0.27761154404E+02 -0.58658380248E+02  0.65045349503E+02  0.00000000000E+00 0. -1.
         -5    1    5    5    0  502  0.36277309413E+02  0.35033527753E+02 -0.35034498726E+02  0.61586502953E+02  0.47000000000E+01 0.  1.
         13    1    6    6    0    0 -0.49558627075E+02  0.22915598870E+02 -0.15203718868E+02  0.56677466921E+02  0.00000000000E+00 0. -1.
        -14    1    6    6    0    0 -0.72116815165E+02 -0.57557117221E+02 -0.60598806203E+02  0.11038963758E+03  0.00000000000E+00 0.  1.
</event>
<event>
12    1  0.8251070E-002  0.1753263E+03  0.7818608E-02  0.1172649E+00
         21   -1    0    0  501  502  0.00000000000E+00  0.00000000000E+00  0.76135202157E+02  0.76135202157E+02  0.00000000000E+00 0.  1.
         21   -1    0    0  502  503 -0.00000000000E+00 -0.00000000000E+00 -0.52818080972E+03  0.52818080972E+03  0.00000000000E+00 0.  1.
         -6    2    1    2    0  503  0.29048651980E+02  0.31726293082E+02 -0.37447559580E+03  0.41348675212E+03  0.16996746888E+03 0.  0.
        -24    2    3    3    0    0 -0.20922759500E+02 -0.77466306150E+01 -0.31387555363E+03  0.32545432184E+03  0.83095609316E+02 0.  0.
          6    2    1    2  501    0 -0.29048651980E+02 -0.31726293082E+02 -0.77570011768E+02  0.19082925976E+03  0.16896247453E+03 0.  0.
         24    2    5    5    0    0  0.39670211755E+02 -0.44933656441E+02 -0.25087683840E+02  0.10323244803E+03  0.80217125755E+02 0.  0.
          5    1    5    5  501    0 -0.68718863735E+02  0.13207363360E+02 -0.52482327928E+02  0.87596811727E+02  0.47000000000E+01 0. -1.
        -11    1    6    6    0    0  0.21080412318E+02 -0.66906578877E+02 -0.24939393073E+02  0.74450301593E+02  0.00000000000E+00 0.  1.
         12    1    6    6    0    0  0.18589799438E+02  0.21972922435E+02 -0.14829076643E+00  0.28782146439E+02  0.00000000000E+00 0. -1.
         -5    1    3    3    0  503  0.49971411479E+02  0.39472923697E+02 -0.60600042171E+02  0.88032430283E+02  0.47000000000E+01 0.  1.
         11    1    4    4    0    0  0.13000375253E+02  0.41385261814E+01 -0.26192895955E+03  0.26228403880E+03  0.00000000000E+00 0. -1.
        -12    1    4    4    0    0 -0.33923134753E+02 -0.11885156796E+02 -0.51946594076E+02  0.63170283042E+02  0.00000000000E+00 0.  1.
</event>
<event>
12    1  0.8251070E-002  0.1819960E+03  0.7818608E-02  0.1167091E+00
         21   -1    0    0  503  502  0.00000000000E+00  0.00000000000E+00  0.15097996779E+04  0.15097996779E+04  0.00000000000E+00 0.  1.
         21   -1    0    0  501  503 -0.00000000000E+00 -0.00000000000E+00 -0.29968974333E+02  0.29968974333E+02  0.00000000000E+00 0.  1.
          6    2    1    2  501    0 -0.32143593152E+02  0.27524603988E+02  0.31957591698E+03  0.36532678262E+03  0.17188390552E+03 0.  0.
         24    2    3    3    0    0 -0.14291749363E+02 -0.51586818144E+02  0.16885800205E+03  0.19410971186E+03  0.79373178556E+02 0.  0.
         -6    2    1    2    0  502  0.32143593152E+02 -0.27524603988E+02  0.11602547866E+04  0.11744418696E+04  0.17700768602E+03 0.  0.
        -24    2    5    5    0    0  0.82841841735E+02  0.16278951054E+02  0.72271543589E+03  0.73177739482E+03  0.77799609907E+02 0.  0.
          5    1    3    3  501    0 -0.17851843788E+02  0.79111422132E+02  0.15071791493E+03  0.17121707076E+03  0.47000000000E+01 0. -1.
        -11    1    4    4    0    0 -0.42565593950E+02 -0.10225426689E+02  0.97949383075E+02  0.10728686212E+03  0.00000000000E+00 0.  1.
         12    1    4    4    0    0  0.28273844587E+02 -0.41361391455E+02  0.70908618976E+02  0.86822849734E+02  0.00000000000E+00 0. -1.
         -5    1    5    5    0  502 -0.50698248583E+02 -0.43803555041E+02  0.43753935068E+03  0.44266447479E+03  0.47000000000E+01 0.  1.
         11    1    6    6    0    0 -0.10606941165E+01 -0.14966825234E+02  0.26282599451E+03  0.26325393505E+03  0.00000000000E+00 0. -1.
        -12    1    6    6    0    0  0.83902535851E+02  0.31245776288E+02  0.45988944138E+03  0.46852345976E+03  0.00000000000E+00 0.  1.
</event>
<event>
12    1  0.8251070E-002  0.2479272E+03  0.7818608E-02  0.1114784E+00
         21   -1    0    0  501  502  0.00000000000E+00  0.00000000000E+00  0.15477335615E+04  0.15477335615E+04  0.00000000000E+00 0.  1.
         21   -1    0    0  502  503 -0.00000000000E+00 -0.00000000000E+00 -0.44638915968E+02  0.44638915968E+02  0.00000000000E+00 0. -1.
         -6    2    1    2    0  503 -0.22531065340E+02 -0.17703064990E+03  0.48414955403E+03  0.54393812920E+03  0.17210577510E+03 0.  0.
        -24    2    3    3    0    0  0.38515405317E+02 -0.48171737812E+02  0.15039998841E+03  0.18097510994E+03  0.79547980059E+02 0.  0.
          6    2    1    2  501    0  0.22531065340E+02  0.17703064990E+03  0.10189450915E+04  0.10484343483E+04  0.17063992269E+03 0.  0.
         24    2    5    5    0    0 -0.16704796419E+02  0.55846570659E+02  0.66677163531E+03  0.67390361901E+03  0.78509772527E+02 0.  0.
          5    1    5    5  501    0  0.39235861759E+02  0.12118407925E+03  0.35217345620E+03  0.37453072927E+03  0.47000000000E+01 0. -1.
        -13    1    6    6    0    0  0.25876636717E+02  0.76635205653E+00  0.25238887681E+03  0.25371309142E+03  0.00000000000E+00 0.  1.
         14    1    6    6    0    0 -0.42581433136E+02  0.55080218602E+02  0.41438275850E+03  0.42019052758E+03  0.00000000000E+00 0. -1.
         -5    1    3    3    0  503 -0.61046470656E+02 -0.12885891209E+03  0.33374956561E+03  0.36296301926E+03  0.47000000000E+01 0.  1.
         11    1    4    4    0    0  0.22427118313E+02 -0.65359276327E+02  0.13807761250E+03  0.15440284231E+03  0.00000000000E+00 0. -1.
        -12    1    4    4    0    0  0.16088287003E+02  0.17187538516E+02  0.12322375909E+02  0.26572267629E+02  0.00000000000E+00 0.  1.
</event>
<event>
12    1  0.8251070E-002  0.1819665E+03  0.7818608E-02  0.1166093E+00
         21   -1    0    0  501  502  0.00000000000E+00  0.00000000000E+00  0.34094484738E+02  0.34094484738E+02  0.00000000000E+00 0.  1.
         21   -1    0    0  502  503 -0.00000000000E+00 -0.00000000000E+00 -0.13810292128E+04  0.13810292128E+04  0.00000000000E+00 0.  1.
         -6    2    1    2    0  503 -0.53858403010E+02 -0.21708498440E+02 -0.10598259268E+04  0.10752071253E+04  0.17166065570E+03 0.  0.
        -24    2    3    3    0    0 -0.60651792222E+02 -0.43362867894E+02 -0.38917589613E+03  0.40415674308E+03  0.79535002576E+02 0.  0.
          6    2    1    2  501    0  0.53858403010E+02  0.21708498440E+02 -0.28710880125E+03  0.33991657221E+03  0.17245238715E+03 0.  0.
         24    2    5    5    0    0  0.80608965332E+02  0.64853779761E+02 -0.19828970773E+03  0.23750549245E+03  0.79913908127E+02 0.  0.
          5    1    5    5  501    0 -0.26750562322E+02 -0.43145281322E+02 -0.88819093521E+02  0.10241107976E+03  0.47000000000E+01 0. -1.
        -11    1    6    6    0    0  0.63076934098E+02  0.61584766220E+01 -0.64846234254E+02  0.90673372863E+02  0.00000000000E+00 0.  1.
         12    1    6    6    0    0  0.17532031234E+02  0.58695303139E+02 -0.13344347347E+03  0.14683211959E+03  0.00000000000E+00 0. -1.
         -5    1    3    3    0  503  0.67933892117E+01  0.21654369454E+02 -0.67065003069E+03  0.67105038225E+03  0.47000000000E+01 0.  1.
         13    1    4    4    0    0 -0.69009595890E+02 -0.58749799316E+02 -0.34302287685E+03  0.35479368270E+03  0.00000000000E+00 0. -1.
        -14    1    4    4    0    0  0.83578036677E+01  0.15386931422E+02 -0.46153019286E+02  0.49363060379E+02  0.00000000000E+00 0.  1.
</event>
<event>
12    1  0.8251070E-002  0.1794880E+03  0.7818608E-02  0.1168314E+00
         21   -1    0    0  503  502  0.00000000000E+00  0.00000000000E+00  0.93545505614E+03  0.93545505614E+03  0.00000000000E+00 0.  1.
         21   -1    0    0  501  503 -0.00000000000E+00 -0.00000000000E+00 -0.37343519388E+02  0.37343519388E+02  0.00000000000E+00 0.  1.
          6    2    1    2  501    0  0.14488059987E+02 -0.46734562720E+02  0.31306860808E+03  0.36084172640E+03  0.17262900947E+03 0.  0.
         24    2    3    3    0    0  0.55118547317E+02 -0.74994180901E+02  0.27845184632E+03  0.30026241710E+03  0.62927791767E+02 0.  0.
         -6    2    1    2    0  502 -0.14488059987E+02  0.46734562720E+02  0.58504292867E+03  0.61195684913E+03  0.17269028222E+03 0.  0.
        -24    2    5    5    0    0 -0.52938459368E+02 -0.19080167647E+02  0.27062418508E+03  0.28839657921E+03  0.82271526515E+02 0.  0.
          5    1    3    3  501    0 -0.40630487330E+02  0.28259618181E+02  0.34616761764E+02  0.60579309302E+02  0.47000000000E+01 0. -1.
        -13    1    4    4    0    0  0.75421501602E+00 -0.24728584930E+02  0.14977207253E+03  0.15180166488E+03  0.00000000000E+00 0.  1.
         14    1    4    4    0    0  0.54364332301E+02 -0.50265595971E+02  0.12867977379E+03  0.14846075221E+03  0.00000000000E+00 0. -1.
         -5    1    5    5    0  502  0.38450399380E+02  0.65814730367E+02  0.31441874359E+03  0.32356026992E+03  0.47000000000E+01 0.  1.
         13    1    6    6    0    0 -0.56592188955E+02 -0.34144112866E+02  0.26289416714E+03  0.27107533899E+03  0.00000000000E+00 0. -1.
        -14    1    6    6    0    0  0.36537295869E+01  0.15063945220E+02  0.77300179399E+01  0.17321240222E+02  0.00000000000E+00 0.  1.
</event>
<event>
12    1  0.8251070E-002  0.1773410E+03  0.7818608E-02  0.1170824E+00
         21   -1    0    0  503  502  0.00000000000E+00  0.00000000000E+00  0.12362117345E+03  0.12362117345E+03  0.00000000000E+00 0.  1.
         21   -1    0    0  501  503 -0.00000000000E+00 -0.00000000000E+00 -0.33945449063E+03  0.33945449063E+03  0.00000000000E+00 0.  1.
          6    2    1    2  501    0  0.39961140079E+02  0.67784755495E+01 -0.22507412386E+03  0.28549402975E+03  0.17089657500E+03 0.  0.
         24    2    3    3    0    0  0.71775008510E+02 -0.11661520088E+02 -0.22369017739E+03  0.24839738608E+03  0.79851881987E+02 0.  0.
         -6    2    1    2    0  502 -0.39961140079E+02 -0.67784755495E+01  0.92408066801E+01  0.17758163432E+03  0.17264705006E+03 0.  0.
        -24    2    5    5    0    0  0.33940765915E+02 -0.20545983503E+02 -0.28969689446E+02  0.93123550049E+02  0.79111564503E+02 0.  0.
          5    1    3    3  501    0 -0.31813868431E+02  0.18439995638E+02 -0.13839464698E+01  0.37096643669E+02  0.47000000000E+01 0. -1.
        -11    1    4    4    0    0  0.52157711418E+02 -0.32843085556E+02 -0.75710415523E+02  0.97627671015E+02  0.00000000000E+00 0.  1.
         12    1    4    4    0    0  0.19617297093E+02  0.21181565467E+02 -0.14797976186E+03  0.15076971507E+03  0.00000000000E+00 0. -1.
         -5    1    5    5    0  502 -0.73901905994E+02  0.13767507953E+02  0.38210496126E+02  0.84458084273E+02  0.47000000000E+01 0.  1.
         11    1    6    6    0    0  0.16081488496E+02 -0.50437931399E+02 -0.11534026336E+02  0.54181481703E+02  0.00000000000E+00 0. -1.
        -12    1    6    6    0    0  0.17859277419E+02  0.29891947896E+02 -0.17435663110E+02  0.38942068346E+02  0.00000000000E+00 0.  1.
</event>
<event>
12    1  0.8251070E-002  0.2317276E+03  0.7818608E-02  0.1125563E+00
         21   -1    0    0  501  502  0.00000000000E+00  0.00000000000E+00  0.68538124158E+02  0.68538124158E+02  0.00000000000E+00 0.  1.
         21   -1    0    0  502  503 -0.00000000000E+00 -0.00000000000E+00 -0.86790862956E+03  0.86790862956E+03  0.00000000000E+00 0.  1.
         -6    2    1    2    0  503 -0.11730800444E+03  0.99795086709E+02 -0.54734810675E+03  0.59408292362E+03  0.17211723602E+03 0.  0.
        -24    2    3    3    0    0  0.86260023955E+01  0.48784918713E+02 -0.22082686906E+03  0.24038867716E+03  0.81042172948E+02 0.  0.
          6    2    1    2  501    0  0.11730800444E+03 -0.99795086709E+02 -0.25202239865E+03  0.34236383009E+03  0.17314004591E+03 0.  0.
         24    2    5    5    0    0 -0.88747962318E+01 -0.39165261978E+02 -0.75327848093E+02  0.11688405489E+03  0.79843082569E+02 0.  0.
          5    1    5    5  501    0  0.12618280067E+03 -0.60629824731E+02 -0.17669455055E+03  0.22547977521E+03  0.47000000000E+01 0. -1.
        -13    1    6    6    0    0  0.22970904214E+02 -0.11395736836E+02  0.49964901020E+01  0.26124512853E+02  0.00000000000E+00 0.  1.
         14    1    6    6    0    0 -0.31845700446E+02 -0.27769525142E+02 -0.80324338195E+02  0.90759542033E+02  0.00000000000E+00 0. -1.
         -5    1    3    3    0  503 -0.12593400684E+03  0.51010167996E+02 -0.32652123770E+03  0.35369424647E+03  0.47000000000E+01 0.  1.
         13    1    4    4    0    0 -0.54386168488E+00  0.42206449815E+02 -0.36750760320E+02  0.55966941810E+02  0.00000000000E+00 0. -1.
        -14    1    4    4    0    0  0.91698640803E+01  0.65784688985E+01 -0.18407610874E+03  0.18442173535E+03  0.00000000000E+00 0.  1.
</event>
<event>
12    1  0.8251070E-002  0.1859339E+03  0.7818608E-02  0.1162241E+00
         21   -1    0    0  501  502  0.00000000000E+00  0.00000000000E+00  0.53345493701E+03  0.53345493701E+03  0.00000000000E+00 0. -1.
         21   -1    0    0  502  503 -0.00000000000E+00 -0.00000000000E+00 -0.10560686998E+03  0.10560686998E+03  0.00000000000E+00 0.  1.
         -6    2    1    2    0  503  0.68875879818E+02 -0.16648817236E+02  0.15186432858E+02  0.18655310442E+03  0.17190219048E+03 0.  0.
        -24    2    3    3    0    0  0.82437263937E+02  0.42484825243E+02 -0.21202367245E+01  0.12328929467E+03  0.81208939876E+02 0.  0.
          6    2    1    2  501    0 -0.68875879818E+02  0.16648817236E+02  0.41266163418E+03  0.45250870257E+03  0.17162002110E+03 0.  0.
         24    2    5    5    0    0 -0.86443696599E+02 -0.39540354110E+02  0.24550779107E+03  0.27522827943E+03  0.80253212004E+02 0.  0.
          5    1    5    5  501    0  0.17567816780E+02  0.56189171346E+02  0.16715384310E+03  0.17728042314E+03  0.47000000000E+01 0. -1.
        -11    1    6    6    0    0 -0.53550378512E+02  0.12327561435E+02  0.68195235067E+02  0.87579688830E+02  0.00000000000E+00 0.  1.
         12    1    6    6    0    0 -0.32893318087E+02 -0.51867915545E+02  0.17731255601E+03  0.18764859060E+03  0.00000000000E+00 0. -1.
         -5    1    3    3    0  503 -0.13561384119E+02 -0.59133642479E+02  0.17306669583E+02  0.63263809750E+02  0.47000000000E+01 0.  1.
         13    1    4    4    0    0 -0.15354962053E+02  0.11623496248E+01 -0.72095438003E+01  0.17003042025E+02  0.00000000000E+00 0. -1.
        -14    1    4    4    0    0  0.97792225990E+02  0.41322475618E+02  0.50893070757E+01  0.10628625265E+03  0.00000000000E+00 0.  1.
</event>
<event>
12    1  0.8251070E-002  0.1972392E+03  0.7818608E-02  0.1152471E+00
         21   -1    0    0  501  502  0.00000000000E+00  0.00000000000E+00  0.77493315950E+03  0.77493315950E+03  0.00000000000E+00 0.  1.
         21   -1    0    0  502  503 -0.00000000000E+00 -0.00000000000E+00 -0.65156335862E+02  0.65156335862E+02  0.00000000000E+00 0.  1.
         -6    2    1    2    0  503  0.55083933222E+02 -0.82059196222E+02  0.15188016814E+03  0.24893950702E+03  0.17069077684E+03 0.  0.
        -24    2    3    3    0    0  0.87200924290E+02 -0.11627684095E+02  0.10511411602E+03  0.15837873933E+03  0.79345090889E+02 0.  0.
          6    2    1    2  501    0 -0.55083933222E+02  0.82059196222E+02  0.55789665551E+03  0.59114998834E+03  0.16864661014E+03 0.  0.
         24    2    5    5    0    0 -0.14666804833E+02 -0.15584064374E+02  0.32158989676E+03  0.33224706284E+03  0.80685010007E+02 0.  0.
          5    1    5    5  501    0 -0.40417128389E+02  0.97643260596E+02  0.23630675875E+03  0.25890292551E+03  0.47000000000E+01 0. -1.
        -13    1    6    6    0    0 -0.47512767493E+02 -0.14068236394E+02  0.16686560716E+03  0.17406754207E+03  0.00000000000E+00 0.  1.
         14    1    6    6    0    0  0.32845962660E+02 -0.15158279795E+01  0.15472428960E+03  0.15817952077E+03  0.00000000000E+00 0. -1.
         -5    1    3    3    0  503 -0.32116991068E+02 -0.70431512127E+02  0.46766052112E+02  0.90560767697E+02  0.47000000000E+01 0.  1.
         11    1    4    4    0    0  0.84876649976E+02 -0.37133823762E+02  0.86152040689E+02  0.12651142515E+03  0.00000000000E+00 0. -1.
        -12    1    4    4    0    0  0.23242743142E+01  0.25506139667E+02  0.18962075336E+02  0.31867314177E+02  0.00000000000E+00 0.  1.
</event>
<event>
12    1  0.8251070E-002  0.2039577E+03  0.7818608E-02  0.1146904E+00
         21   -1    0    0  501  502  0.00000000000E+00  0.00000000000E+00  0.13297657025E+03  0.13297657025E+03  0.00000000000E+00 0. -1.
         21   -1    0    0  502  503 -0.00000000000E+00 -0.00000000000E+00 -0.71979271224E+03  0.71979271224E+03  0.00000000000E+00 0.  1.
         -6    2    1    2    0  503  0.96535590709E+02 -0.48894466287E+02 -0.61466429004E+03  0.64691921884E+03  0.17024246576E+03 0.  0.
        -24    2    3    3    0    0  0.99543601649E+02 -0.90781420423E+02 -0.46586768279E+03  0.49223862735E+03  0.84356229525E+02 0.  0.
          6    2    1    2  501    0 -0.96535590709E+02  0.48894466287E+02  0.27848148037E+02  0.20585006365E+03  0.17288418161E+03 0.  0.
         24    2    5    5    0    0  0.58760675052E+01 -0.12217406896E+02  0.30378715655E+02  0.86471244113E+02  0.79816141808E+02 0.  0.
          5    1    5    5  501    0 -0.10241165821E+03  0.61111873183E+02 -0.25305676173E+01  0.11937881954E+03  0.47000000000E+01 0. -1.
        -11    1    6    6    0    0 -0.17106555464E+02 -0.16437882680E+02 -0.19940415170E+02  0.30991263027E+02  0.00000000000E+00 0.  1.
         12    1    6    6    0    0  0.22982622969E+02  0.42204757843E+01  0.50319130825E+02  0.55479981086E+02  0.00000000000E+00 0. -1.
         -5    1    3    3    0  503 -0.30080109401E+01  0.41886954136E+02 -0.14879660724E+03  0.15468059149E+03  0.47000000000E+01 0.  1.
         11    1    4    4    0    0  0.28518984085E+01 -0.24861512118E+02 -0.22384181102E+02  0.33574985822E+02  0.00000000000E+00 0. -1.
        -12    1    4    4    0    0  0.96691703240E+02 -0.65919908304E+02 -0.44348350169E+03  0.45866364153E+03  0.00000000000E+00 0.  1.
</event>
<event>
12    1  0.8251070E-002  0.2587228E+03  0.7818608E-02  0.1108008E+00
         21   -1    0    0  501  502  0.00000000000E+00  0.00000000000E+00  0.14797501958E+03  0.14797501958E+03  0.00000000000E+00 0.  1.
         21   -1    0    0  502  503 -0.00000000000E+00 -0.00000000000E+00 -0.47780980442E+03  0.47780980442E+03  0.00000000000E+00 0. -1.
         -6    2    1    2    0  503 -0.15975952205E+03 -0.10958991024E+03 -0.23886851856E+03  0.35213016563E+03  0.17147720277E+03 0.  0.
        -24    2    3    3    0    0 -0.10504149705E+03 -0.13055041473E+03 -0.22562783697E+03  0.29187395717E+03  0.78774102146E+02 0.  0.
          6    2    1    2  501    0  0.15975952205E+03  0.10958991024E+03 -0.90966266277E+02  0.27365465837E+03  0.17052553221E+03 0.  0.
         24    2    5    5    0    0  0.18439220971E+03  0.11517493145E+03 -0.72085424500E+02  0.24177146610E+03  0.77404015129E+02 0.  0.
          5    1    5    5  501    0 -0.24632687659E+02 -0.55850212119E+01 -0.18880841777E+02  0.31883192272E+02  0.47000000000E+01 0. -1.
        -11    1    6    6    0    0  0.13535632814E+03  0.45737501844E+02 -0.26493363843E+02  0.14531053978E+03  0.00000000000E+00 0.  1.
         12    1    6    6    0    0  0.49035881563E+02  0.69437429604E+02 -0.45592060658E+02  0.96460926315E+02  0.00000000000E+00 0. -1.
         -5    1    3    3    0  503 -0.54718024997E+02  0.20960504496E+02 -0.13240681595E+02  0.60256208455E+02  0.47000000000E+01 0.  1.
         11    1    4    4    0    0 -0.15153042299E+02 -0.65049467593E+02 -0.47817289970E+02  0.82143418149E+02  0.00000000000E+00 0. -1.
        -12    1    4    4    0    0 -0.89888454751E+02 -0.65500947139E+02 -0.17781054700E+03  0.20973053902E+03  0.00000000000E+00 0.  1.
</event>
<event>
12    1  0.8251070E-002  0.2173818E+03  0.7818608E-02  0.1136106E+00
         21   -1    0    0  503  502  0.00000000000E+00  0.00000000000E+00  0.78471800063E+03  0.78471800063E+03  0.00000000000E+00 0.  1.
         21   -1    0    0  501  503 -0.00000000000E+00 -0.00000000000E+00 -0.90114735106E+02  0.90114735106E+02  0.00000000000E+00 0. -1.
          6    2    1    2  501    0 -0.78638121468E+02  0.10739138830E+03  0.93074639781E+02  0.23523010357E+03  0.17015712923E+03 0.  0.
         24    2    3    3    0    0 -0.31305220794E+02  0.11332414883E+03  0.11457665281E+03  0.18269413782E+03  0.80168317105E+02 0.  0.
         -6    2    1    2    0  502  0.78638121468E+02 -0.10739138830E+03  0.60152862574E+03  0.63960263216E+03  0.17186615447E+03 0.  0.
        -24    2    5    5    0    0  0.98147529829E+02 -0.33214426452E+02  0.27591985590E+03  0.30504919894E+03  0.78658191919E+02 0.  0.
          5    1    3    3  501    0 -0.47332900674E+02 -0.59327605211E+01 -0.21502013030E+02  0.52535965756E+02  0.47000000000E+01 0. -1.
        -11    1    4    4    0    0 -0.47461838470E+02  0.86195877620E+02  0.11469341320E+03  0.15111894144E+03  0.00000000000E+00 0.  1.
         12    1    4    4    0    0  0.16156617676E+02  0.27128271206E+02 -0.11676039125E+00  0.31575196379E+02  0.00000000000E+00 0. -1.
         -5    1    5    5    0  502 -0.19509408362E+02 -0.74176961852E+02  0.32560876984E+03  0.33455343323E+03  0.47000000000E+01 0.  1.
         11    1    6    6    0    0  0.77460784906E+02 -0.12788438190E+02  0.26063815389E+03  0.27220573949E+03  0.00000000000E+00 0. -1.
        -12    1    6    6    0    0  0.20686744923E+02 -0.20425988263E+02  0.15281702013E+02  0.32843459447E+02  0.00000000000E+00 0.  1.
</event>
<event>
12    1  0.8251070E-002  0.2067271E+03  0.7818608E-02  0.1144211E+00
         21   -1    0    0  503  502  0.00000000000E+00  0.00000000000E+00  0.56016755668E+02  0.56016755668E+02  0.00000000000E+00 0.  1.
         21   -1    0    0  501  503 -0.00000000000E+00 -0.00000000000E+00 -0.98856164252E+03  0.98856164252E+03  0.00000000000E+00 0.  1.
          6    2    1    2  501    0 -0.95799213119E+02 -0.64481690565E+02 -0.71595481633E+03  0.74516671259E+03  0.17130893986E+03 0.  0.
         24    2    3    3    0    0 -0.86162331301E+02 -0.33322809188E+02 -0.24819988494E+03  0.27625252938E+03  0.78599746540E+02 0.  0.
         -6    2    1    2    0  502  0.95799213119E+02  0.64481690565E+02 -0.21659007053E+03  0.29941168560E+03  0.17146638496E+03 0.  0.
        -24    2    5    5    0    0  0.10785500756E+03  0.83734772390E+02 -0.22457883361E+03  0.27487734895E+03  0.80484095944E+02 0.  0.
          5    1    3    3  501    0 -0.96368818175E+01 -0.31158881377E+02 -0.46775493139E+03  0.46891418321E+03  0.47000000000E+01 0. -1.
        -11    1    4    4    0    0  0.43900376331E+00  0.14570387151E+02 -0.78190283601E+02  0.79537471394E+02  0.00000000000E+00 0.  1.
         12    1    4    4    0    0 -0.86601335064E+02 -0.47893196339E+02 -0.17000960134E+03  0.19671505799E+03  0.00000000000E+00 0. -1.
         -5    1    5    5    0  502 -0.12055794440E+02 -0.19253081825E+02  0.79887630783E+01  0.24534336650E+02  0.47000000000E+01 0.  1.
         11    1    6    6    0    0  0.13217653161E+02  0.22592805245E+02 -0.11415710792E+03  0.11711953932E+03  0.00000000000E+00 0. -1.
        -12    1    6    6    0    0  0.94637354397E+02  0.61141967146E+02 -0.11042172569E+03  0.15775780963E+03  0.00000000000E+00 0.  1.
</event>
<event>
12    1  0.8251070E-002  0.1877130E+03  0.7818608E-02  0.1160962E+00
         21   -1    0    0  501  502  0.00000000000E+00  0.00000000000E+00  0.60046217051E+03  0.60046217051E+03  0.00000000000E+00 0.  1.
         21   -1    0    0  502  503 -0.00000000000E+00 -0.00000000000E+00 -0.81178781963E+02  0.81178781963E+02  0.00000000000E+00 0. -1.
         -6    2    1    2    0  503 -0.16131168441E+02 -0.74281613997E+02  0.44223225450E+03  0.48042226343E+03  0.17163394625E+03 0.  0.
        -24    2    3    3    0    0 -0.18161974545E+02 -0.11030269540E+03  0.40519781591E+03  0.42850615687E+03  0.83280937357E+02 0.  0.
          6    2    1    2  501    0  0.16131168441E+02  0.74281613997E+02  0.77051134048E+02  0.20121868904E+03  0.16962933352E+03 0.  0.
         24    2    5    5    0    0  0.70081001789E+02  0.78756984834E+02  0.52526989931E+02  0.14160210488E+03  0.78600648623E+02 0.  0.
          5    1    5    5  501    0 -0.53949833348E+02 -0.44753708367E+01  0.24524144117E+02  0.59616584161E+02  0.47000000000E+01 0. -1.
        -11    1    6    6    0    0  0.67557291145E+02  0.32845093778E+02  0.47129493434E+01  0.75266192036E+02  0.00000000000E+00 0.  1.
         12    1    6    6    0    0  0.25237106440E+01  0.45911891056E+02  0.47814040588E+02  0.66335912846E+02  0.00000000000E+00 0. -1.
         -5    1    3    3    0  503  0.20308061046E+01  0.36021081400E+02  0.37034438592E+02  0.51916106562E+02  0.47000000000E+01 0.  1.
         13    1    4    4    0    0  0.12038477549E+02 -0.44649135184E+02  0.59614705676E+02  0.75447884975E+02  0.00000000000E+00 0. -1.
        -14    1    4    4    0    0 -0.30200452094E+02 -0.65653560213E+02  0.34558311023E+03  0.35305827189E+03  0.00000000000E+00 0.  1.
</event>
<event>
12    1  0.8251070E-002  0.1870881E+03  0.7818608E-02  0.1161468E+00
         21   -1    0    0  501  502  0.00000000000E+00  0.00000000000E+00  0.69445009235E+03  0.69445009235E+03  0.00000000000E+00 0.  1.
         21   -1    0    0  502  503 -0.00000000000E+00 -0.00000000000E+00 -0.67792049493E+02  0.67792049493E+02  0.00000000000E+00 0.  1.
         -6    2    1    2    0  503  0.61301511705E+02  0.29387436747E+02  0.11708438441E+03  0.21940951316E+03  0.17265655104E+03 0.  0.
        -24    2    3    3    0    0  0.10850111040E+03  0.33686726561E+02  0.88419153899E+02  0.16382110204E+03  0.78180049842E+02 0.  0.
          6    2    1    2  501    0 -0.61301511705E+02 -0.29387436747E+02  0.50957365844E+03  0.54283262868E+03  0.17429989273E+03 0.  0.
         24    2    5    5    0    0  0.26074880433E+02 -0.27742548143E+02  0.16820332706E+03  0.19042216812E+03  0.80738432681E+02 0.  0.
          5    1    5    5  501    0 -0.87376392138E+02 -0.16448886042E+01  0.34137033138E+03  0.35241046056E+03  0.47000000000E+01 0. -1.
        -11    1    6    6    0    0 -0.20613494872E+02 -0.34521380994E+02  0.58296512574E+02  0.70817549342E+02  0.00000000000E+00 0.  1.
         12    1    6    6    0    0  0.46688375305E+02  0.67788328504E+01  0.10990681448E+03  0.11960461878E+03  0.00000000000E+00 0. -1.
         -5    1    3    3    0  503 -0.47199598698E+02 -0.42992898131E+01  0.28665230513E+02  0.55588411116E+02  0.47000000000E+01 0.  1.
         13    1    4    4    0    0  0.34187640835E+02 -0.46051351205E+01  0.70261494583E+02  0.78273109536E+02  0.00000000000E+00 0. -1.
        -14    1    4    4    0    0  0.74313469567E+02  0.38291861681E+02  0.18157659316E+02  0.85547992507E+02  0.00000000000E+00 0.  1.
</event>
<event>
12    1  0.8251070E-002  0.2215501E+03  0.7818608E-02  0.1132889E+00
         21   -1    0    0  503  502  0.00000000000E+00  0.00000000000E+00  0.24289274101E+04  0.24289274101E+04  0.00000000000E+00 0.  1.
         21   -1    0    0  501  503 -0.00000000000E+00 -0.00000000000E+00 -0.70961843915E+02  0.70961843915E+02  0.00000000000E+00 0.  1.
          6    2    1    2  501    0  0.11789810392E+03 -0.74706592690E+02  0.12045459045E+03  0.25143649557E+03  0.17096773100E+03 0.  0.
         24    2    3    3    0    0  0.30814190307E+02 -0.95255786501E+02  0.91920896451E+02  0.15740384661E+03  0.79393579959E+02 0.  0.
         -6    2    1    2    0  502 -0.11789810392E+03  0.74706592690E+02  0.22375109757E+04  0.22484527584E+04  0.17205639343E+03 0.  0.
        -24    2    5    5    0    0  0.52303888445E+01  0.47128554618E+02  0.78431267983E+03  0.78977919965E+03  0.79726700826E+02 0.  0.
          5    1    3    3  501    0  0.87083913610E+02  0.20549193811E+02  0.28533693994E+02  0.94032648952E+02  0.47000000000E+01 0. -1.
        -13    1    4    4    0    0 -0.20322535318E+02 -0.99853997113E+01  0.98896721817E+00  0.22664767930E+02  0.00000000000E+00 0.  1.
         14    1    4    4    0    0  0.51136725625E+02 -0.85270386789E+02  0.90931929232E+02  0.13473907868E+03  0.00000000000E+00 0. -1.
         -5    1    5    5    0  502 -0.12312849276E+03  0.27578038072E+02  0.14531982959E+04  0.14586735588E+04  0.47000000000E+01 0.  1.
         13    1    6    6    0    0 -0.98592805838E+01  0.43120528804E+02  0.18322149049E+03  0.18848527793E+03  0.00000000000E+00 0. -1.
        -14    1    6    6    0    0  0.15089669428E+02  0.40080258135E+01  0.60109118934E+03  0.60129392172E+03  0.00000000000E+00 0.  1.
</event>
<event>
12    1  0.8251070E-002  0.1775247E+03  0.7818608E-02  0.1170355E+00
         21   -1    0    0  501  502  0.00000000000E+00  0.00000000000E+00  0.20888074593E+03  0.20888074593E+03  0.00000000000E+00 0. -1.
         21   -1    0    0  502  503 -0.00000000000E+00 -0.00000000000E+00 -0.18208204848E+03  0.18208204848E+03  0.00000000000E+00 0. -1.
         -6    2    1    2    0  503 -0.25729340443E+02  0.33420865153E+02 -0.68142778955E+02  0.18964485197E+03  0.17188012790E+03 0.  0.
        -24    2    3    3    0    0 -0.21836191964E+02  0.22506260235E+02  0.30466903713E+02  0.90245431841E+02  0.78947164085E+02 0.  0.
          6    2    1    2  501    0  0.25729340443E+02 -0.33420865153E+02  0.94941476405E+02  0.20131794245E+03  0.17244151711E+03 0.  0.
         24    2    5    5    0    0 -0.34684920705E+02 -0.15498267594E+01  0.12248614271E+02  0.93959451930E+02  0.86445962127E+02 0.  0.
          5    1    5    5  501    0  0.60414261149E+02 -0.31871038394E+02  0.82692862133E+02  0.10735849052E+03  0.47000000000E+01 0. -1.
        -11    1    6    6    0    0 -0.53030701997E+02 -0.17948890043E+01  0.35871277406E+02  0.64048618436E+02  0.00000000000E+00 0.  1.
         12    1    6    6    0    0  0.18345781292E+02  0.24506224491E+00 -0.23622663135E+02  0.29910833494E+02  0.00000000000E+00 0. -1.
         -5    1    3    3    0  503 -0.38931484791E+01  0.10914604918E+02 -0.98609682667E+02  0.99399420126E+02  0.47000000000E+01 0.  1.
         11    1    4    4    0    0 -0.37030607269E+02  0.36219917096E+02 -0.20311773228E+01  0.51838923123E+02  0.00000000000E+00 0. -1.
        -12    1    4    4    0    0  0.15194415305E+02 -0.13713656861E+02  0.32498081035E+02  0.38406508719E+02  0.00000000000E+00 0.  1.
</event>
<event>
12    1  0.8251070E-002  0.1790327E+03  0.7818608E-02  0.1168803E+00
         21   -1    0    0  501  502  0.00000000000E+00  0.00000000000E+00  0.18390847520E+03  0.18390847520E+03  0.00000000000E+00 0.  1.
         21   -1    0    0  502  503 -0.00000000000E+00 -0.00000000000E+00 -0.21748443318E+03  0.21748443318E+03  0.00000000000E+00 0.  1.
         -6    2    1    2    0  503 -0.18633351631E+02  0.48104879219E+02 -0.10649048582E+03  0.20830973412E+03  0.17143932035E+03 0.  0.
        -24    2    3    3    0    0 -0.71418054398E+02  0.55928974949E+02 -0.50214130201E+02  0.13061443489E+03  0.79436030848E+02 0.  0.
          6    2    1    2  501    0  0.18633351631E+02 -0.48104879219E+02  0.72914527844E+02  0.19308317425E+03  0.17118207444E+03 0.  0.
         24    2    5    5    0    0  0.37197188310E+02 -0.92071956613E+02  0.35852019534E+02  0.13247426856E+03  0.80019925727E+02 0.  0.
          5    1    5    5  501    0 -0.18563836679E+02  0.43967077394E+02  0.37062508310E+02  0.60608905691E+02  0.47000000000E+01 0. -1.
        -11    1    6    6    0    0  0.86394875540E+01 -0.49373421968E+02  0.57893294641E+02  0.76576818336E+02  0.00000000000E+00 0.  1.
         12    1    6    6    0    0  0.28557700756E+02 -0.42698534645E+02 -0.22041275108E+02  0.55897450225E+02  0.00000000000E+00 0. -1.
         -5    1    3    3    0  503  0.52784702768E+02 -0.78240957297E+01 -0.56276355623E+02  0.77695299230E+02  0.47000000000E+01 0.  1.
         11    1    4    4    0    0 -0.23375717759E+02 -0.19449836977E+02 -0.64363469222E+01  0.31082903675E+02  0.00000000000E+00 0. -1.
        -12    1    4    4    0    0 -0.48042336639E+02  0.75378811926E+02 -0.43777783278E+02  0.99531531214E+02  0.00000000000E+00 0.  1.
</event>
<event>
12    1  0.8251070E-002  0.2280617E+03  0.7818608E-02  0.1128770E+00
         21   -1    0    0  503  502  0.00000000000E+00  0.00000000000E+00  0.22335596661E+03  0.22335596661E+03  0.00000000000E+00 0.  1.
         21   -1    0    0  501  503 -0.00000000000E+00 -0.00000000000E+00 -0.22872192475E+03  0.22872192475E+03  0.00000000000E+00 0. -1.
          6    2    1    2  501    0  0.10921328641E+03 -0.10294258391E+03 -0.83507952300E+01  0.22399663211E+03  0.16607238755E+03 0.  0.
         24    2    3    3    0    0  0.27536985024E+02 -0.11029013711E+03 -0.23134183336E+02  0.14053620251E+03  0.79328644818E+02 0.  0.
         -6    2    1    2    0  502 -0.10921328641E+03  0.10294258391E+03  0.29848370944E+01  0.22808125925E+03  0.17171905561E+03 0.  0.
        -24    2    5    5    0    0 -0.89144609219E+02  0.18224295214E+02  0.47133518930E+02  0.13035134391E+03  0.80566854008E+02 0.  0.
          5    1    3    3  501    0  0.81676301385E+02  0.73475531955E+01  0.14783388106E+02  0.83460429605E+02  0.47000000000E+01 0. -1.
        -11    1    4    4    0    0 -0.12259960761E+02 -0.32669488997E+02  0.23065734828E+02  0.41828582003E+02  0.00000000000E+00 0.  1.
         12    1    4    4    0    0  0.39796945786E+02 -0.77620648111E+02 -0.46199918164E+02  0.98707620503E+02  0.00000000000E+00 0. -1.
         -5    1    5    5    0  502 -0.20068677191E+02  0.84718288698E+02 -0.44148681836E+02  0.97729915338E+02  0.47000000000E+01 0.  1.
         13    1    6    6    0    0 -0.49329756431E+02 -0.95198245540E+00 -0.17243865181E+02  0.52265495563E+02  0.00000000000E+00 0. -1.
        -14    1    6    6    0    0 -0.39814852788E+02  0.19176277670E+02  0.64377384111E+02  0.78085848351E+02  0.00000000000E+00 0.  1.
</event>
<event>
12    1  0.8251070E-002  0.1897653E+03  0.7818608E-02  0.1159059E+00
         21   -1    0    0  501  502  0.00000000000E+00  0.00000000000E+00  0.44693198470E+02  0.44693198470E+02  0.00000000000E+00 0. -1.
         21   -1    0    0  502  503 -0.00000000000E+00 -0.00000000000E+00 -0.81901347124E+03  0.81901347124E+03  0.00000000000E+00 0. -1.
         -6    2    1    2    0  503  0.75255852040E+02  0.12495382846E+02 -0.45714297808E+03  0.49496524120E+03  0.17375646672E+03 0.  0.
        -24    2    3    3    0    0  0.24566827110E+02  0.65881880158E+02 -0.34412299216E+03  0.36000190336E+03  0.78973321822E+02 0.  0.
          6    2    1    2  501    0 -0.75255852040E+02 -0.12495382846E+02 -0.31717729468E+03  0.36874142851E+03  0.17189888591E+03 0.  0.
         24    2    5    5    0    0  0.15475719893E+02  0.71259177688E+01 -0.80060857691E+02  0.11405827580E+03  0.79430930581E+02 0.  0.
          5    1    5    5  501    0 -0.90731571932E+02 -0.19621300615E+02 -0.23711643699E+03  0.25468315271E+03  0.47000000000E+01 0. -1.
        -11    1    6    6    0    0  0.21268263350E+02 -0.11876872121E+02 -0.89000142458E+02  0.92273639111E+02  0.00000000000E+00 0.  1.
         12    1    6    6    0    0 -0.57925434571E+01  0.19002789890E+02  0.89392847673E+01  0.21784636684E+02  0.00000000000E+00 0. -1.
         -5    1    3    3    0  503  0.50689024930E+02 -0.53386497312E+02 -0.11301998592E+03  0.13496333784E+03  0.47000000000E+01 0.  1.
         13    1    4    4    0    0  0.53036815300E+02  0.34606313240E+02 -0.19794099961E+03  0.20782478201E+03  0.00000000000E+00 0. -1.
        -14    1    4    4    0    0 -0.28469988191E+02  0.31275566918E+02 -0.14618199255E+03  0.15217712134E+03  0.00000000000E+00 0.  1.
</event>
<event>
12    1  0.8251070E-002  0.1763125E+03  0.7818608E-02  0.1171669E+00
         21   -1    0    0  501  502  0.00000000000E+00  0.00000000000E+00  0.39402408087E+02  0.39402408087E+02  0.00000000000E+00 0. -1.
         21   -1    0    0  502  503 -0.00000000000E+00 -0.00000000000E+00 -0.12428385848E+04  0.12428385848E+04  0.00000000000E+00 0. -1.
         -6    2    1    2    0  503 -0.95878892001E+01 -0.30124823877E+02 -0.98998528014E+03  0.10053883336E+04  0.17243959446E+03 0.  0.
        -24    2    3    3    0    0  0.46788809278E+02 -0.53809368385E+01 -0.80399803551E+03  0.80941910832E+03  0.80797924817E+02 0.  0.
          6    2    1    2  501    0  0.95878892001E+01  0.30124823877E+02 -0.21345089654E+03  0.27685265929E+03  0.17345511549E+03 0.  0.
         24    2    5    5    0    0 -0.64129521575E+02  0.13140174009E+02 -0.14048947386E+03  0.17164717378E+03  0.73757713427E+02 0.  0.
          5    1    5    5  501    0  0.73717410775E+02  0.16984649868E+02 -0.72961422676E+02  0.10520548551E+03  0.47000000000E+01 0. -1.
        -13    1    6    6    0    0 -0.61256569384E+02  0.36073534328E+02 -0.80700964495E+02  0.10754679373E+03  0.00000000000E+00 0.  1.
         14    1    6    6    0    0 -0.28729521907E+01 -0.22933360319E+02 -0.59788509368E+02  0.64100380048E+02  0.00000000000E+00 0. -1.
         -5    1    3    3    0  503 -0.56376698478E+02 -0.24743887038E+02 -0.18598724462E+03  0.19596922524E+03  0.47000000000E+01 0.  1.
         11    1    4    4    0    0  0.69081711567E+02 -0.11858258884E+01 -0.53016860538E+03  0.53465169895E+03  0.00000000000E+00 0. -1.
        -12    1    4    4    0    0 -0.22292902289E+02 -0.41951109500E+01 -0.27382943013E+03  0.27476740937E+03  0.00000000000E+00 0.  1.
</event>
<event>
12    1  0.8251070E-002  0.2801314E+03  0.7818608E-02  0.1095755E+00
         21   -1    0    0  503  502  0.00000000000E+00  0.00000000000E+00  0.88234674396E+03  0.88234674396E+03  0.00000000000E+00 0. -1.
         21   -1    0    0  501  503 -0.00000000000E+00 -0.00000000000E+00 -0.10263623677E+03  0.10263623677E+03  0.00000000000E+00 0. -1.
          6    2    1    2  501    0  0.19664519684E+03 -0.10048810272E+03  0.20723132150E+03  0.34764003374E+03  0.17070905139E+03 0.  0.
         24    2    3    3    0    0  0.66129818051E+02  0.11504614091E+02  0.10687743703E+03  0.14846768415E+03  0.78194358541E+02 0.  0.
         -6    2    1    2    0  502 -0.19664519684E+03  0.10048810272E+03  0.57247918568E+03  0.63734294699E+03  0.17235550994E+03 0.  0.
        -24    2    5    5    0    0 -0.22077361208E+03  0.97633721470E+02  0.50238483866E+03  0.56300832921E+03  0.79463962213E+02 0.  0.
          5    1    3    3  501    0  0.13051537878E+03 -0.11199271681E+03  0.10035388446E+03  0.19917234960E+03  0.47000000000E+01 0. -1.
        -11    1    4    4    0    0  0.80912947379E+02 -0.12233884219E+01  0.97839022955E+02  0.12696801229E+03  0.00000000000E+00 0.  1.
         12    1    4    4    0    0 -0.14783129328E+02  0.12728002513E+02  0.90384140798E+01  0.21499671853E+02  0.00000000000E+00 0. -1.
         -5    1    5    5    0  502  0.24128415247E+02  0.28543812485E+01  0.70094347027E+02  0.74334617775E+02  0.47000000000E+01 0.  1.
         11    1    6    6    0    0 -0.80292134274E+02  0.78594653126E+02  0.21868028354E+03  0.24585567460E+03  0.00000000000E+00 0. -1.
        -12    1    6    6    0    0 -0.14048147781E+03  0.19039068343E+02  0.28370455512E+03  0.31715265461E+03  0.00000000000E+00 0.  1.
</event>
<event>
12    1  0.8251070E-002  0.1901470E+03  0.7818608E-02  0.1158374E+00
         21   -1    0    0  501  502  0.00000000000E+00  0.00000000000E+00  0.71010718881E+03  0.71010718881E+03  0.00000000000E+00 0.  1.
         21   -1    0    0  502  503 -0.00000000000E+00 -0.00000000000E+00 -0.89718771181E+02  0.89718771181E+02  0.00000000000E+00 0. -1.
         -6    2    1    2    0  503  0.81469902842E+02  0.47633002213E+01  0.47104947889E+02  0.19589472926E+03  0.17174351439E+03 0.  0.
        -24    2    3    3    0    0  0.10329780403E+03 -0.90319997619E+01 -0.11677422307E+02  0.13151907689E+03  0.80055556059E+02 0.  0.
          6    2    1    2  501    0 -0.81469902842E+02 -0.47633002213E+01  0.57328346974E+03  0.60393123073E+03  0.17151956356E+03 0.  0.
         24    2    5    5    0    0 -0.44317589051E+02 -0.44331022082E+01  0.55439885134E+03  0.56198933923E+03  0.80561963405E+02 0.  0.
          5    1    5    5  501    0 -0.37152313791E+02 -0.33019801307E+00  0.18884618397E+02  0.41941891502E+02  0.47000000000E+01 0. -1.
        -13    1    6    6    0    0 -0.35481412737E+02 -0.40893163902E+02  0.35271880029E+03  0.35684973530E+03  0.00000000000E+00 0.  1.
         14    1    6    6    0    0 -0.88361763139E+01  0.36460061693E+02  0.20168005105E+03  0.20513960393E+03  0.00000000000E+00 0. -1.
         -5    1    3    3    0  503 -0.21827901190E+02  0.13795299983E+02  0.58782370197E+02  0.64375652369E+02  0.47000000000E+01 0.  1.
         13    1    4    4    0    0  0.80021148350E+02  0.30070947272E+02 -0.83274975311E+01  0.85889424659E+02  0.00000000000E+00 0. -1.
        -14    1    4    4    0    0  0.23276655682E+02 -0.39102947034E+02 -0.33499247761E+01  0.45629652228E+02  0.00000000000E+00 0.  1.
</event>
<event>
12    1  0.8251070E-002  0.1927120E+03  0.7818608E-02  0.1156362E+00
         21   -1    0    0  501  502  0.00000000000E+00  0.00000000000E+00  0.23919075179E+03  0.23919075179E+03  0.00000000000E+00 0. -1.
         21   -1    0    0  502  503 -0.00000000000E+00 -0.00000000000E+00 -0.32066445540E+03  0.32066445540E+03  0.00000000000E+00 0. -1.
         -6    2    1    2    0  503  0.84955669181E+02 -0.21104753675E+02 -0.24241596181E+03  0.30877687446E+03  0.17004347477E+03 0.  0.
        -24    2    3    3    0    0  0.74051712505E+02  0.45956439233E+02 -0.12543949640E+03  0.17341926173E+03  0.82118954268E+02 0.  0.
          6    2    1    2  501    0 -0.84955669181E+02  0.21104753675E+02  0.16094225819E+03  0.25107833273E+03  0.17168297045E+03 0.  0.
         24    2    5    5    0    0 -0.73248036607E+02 -0.50926840264E+02  0.93046346973E+02  0.15129073858E+03  0.79198781364E+02 0.  0.
          5    1    5    5  501    0 -0.11707632573E+02  0.72031593939E+02  0.67895911219E+02  0.99787594149E+02  0.47000000000E+01 0. -1.
        -11    1    6    6    0    0  0.82142787946E+01 -0.23943150432E+02  0.48250752020E+02  0.54487465524E+02  0.00000000000E+00 0.  1.
         12    1    6    6    0    0 -0.81462315402E+02 -0.26983689832E+02  0.44795594953E+02  0.96803273058E+02  0.00000000000E+00 0. -1.
         -5    1    3    3    0  503  0.10903956675E+02 -0.67061192908E+02 -0.11697646541E+03  0.13535761273E+03  0.47000000000E+01 0.  1.
         11    1    4    4    0    0  0.74596844745E+02  0.63288289460E+02 -0.12084852504E+03  0.15548139063E+03  0.00000000000E+00 0. -1.
        -12    1    4    4    0    0 -0.54513223942E+00 -0.17331850226E+02 -0.45909713551E+01  0.17937871095E+02  0.00000000000E+00 0.  1.
</event>
<event>
12    1  0.8251070E-002  0.2304323E+03  0.7818608E-02  0.1126381E+00
         21   -1    0    0  503  502  0.00000000000E+00  0.00000000000E+00  0.74757305026E+02  0.74757305026E+02  0.00000000000E+00 0.  1.
         21   -1    0    0  501  503 -0.00000000000E+00 -0.00000000000E+00 -0.11444311180E+04  0.11444311180E+04  0.00000000000E+00 0. -1.
          6    2    1    2  501    0 -0.15300665022E+03 -0.45683537014E+01 -0.91045418693E+03  0.93909930323E+03  0.17189755654E+03 0.  0.
         24    2    3    3    0    0 -0.13935220028E+03  0.53028212592E+02 -0.72822105451E+03  0.74743602295E+03  0.78253927201E+02 0.  0.
         -6    2    1    2    0  502  0.15300665022E+03  0.45683537014E+01 -0.15921962603E+03  0.28008911979E+03  0.17224146087E+03 0.  0.
        -24    2    5    5    0    0  0.71845820349E+02  0.68959664459E+02 -0.98978388636E+02  0.16015406282E+03  0.77041191561E+02 0.  0.
          5    1    3    3  501    0 -0.13654449949E+02 -0.57596566293E+02 -0.18223313242E+03  0.19166328027E+03  0.47000000000E+01 0. -1.
        -11    1    4    4    0    0 -0.58257893020E+02  0.38010945830E+02 -0.17871750219E+03  0.19177789156E+03  0.00000000000E+00 0.  1.
         12    1    4    4    0    0 -0.81094307256E+02  0.15017266762E+02 -0.54950355232E+03  0.55565813139E+03  0.00000000000E+00 0. -1.
         -5    1    5    5    0  502  0.81160829875E+02 -0.64391310757E+02 -0.60241237390E+02  0.11993505697E+03  0.47000000000E+01 0.  1.
         13    1    6    6    0    0  0.94246881031E-01  0.45127662975E+02 -0.15958792299E+02  0.47866459027E+02  0.00000000000E+00 0. -1.
        -14    1    6    6    0    0  0.71751573468E+02  0.23832001483E+02 -0.83019596337E+02  0.11228760379E+03  0.00000000000E+00 0.  1.
</event>
<event>
12    1  0.8251070E-002  0.1974532E+03  0.7818608E-02  0.1152135E+00
         21   -1    0    0  503  502  0.00000000000E+00  0.00000000000E+00  0.51406922958E+03  0.51406922958E+03  0.00000000000E+00 0. -1.
         21   -1    0    0  501  503 -0.00000000000E+00 -0.00000000000E+00 -0.12113693184E+03  0.12113693184E+03  0.00000000000E+00 0. -1.
          6    2    1    2  501    0  0.29115903865E+01 -0.94897114345E+02  0.10485470756E+01  0.19638883939E+03  0.17191142230E+03 0.  0.
         24    2    3    3    0    0  0.13740527881E+02  0.14111157638E+02  0.23459967758E+02  0.84476234986E+02  0.78726979581E+02 0.  0.
         -6    2    1    2    0  502 -0.29115903865E+01  0.94897114345E+02  0.39188375067E+03  0.43881732203E+03  0.17312951340E+03 0.  0.
        -24    2    5    5    0    0  0.40627911192E+02  0.23310027579E+02  0.30942537512E+03  0.32116583293E+03  0.72176484562E+02 0.  0.
          5    1    3    3  501    0 -0.10828937495E+02 -0.10900827198E+03 -0.22411420682E+02  0.11191260441E+03  0.47000000000E+01 0. -1.
        -13    1    4    4    0    0  0.98851539316E+01  0.18827362750E+02 -0.26595471184E+02  0.34051504282E+02  0.00000000000E+00 0.  1.
         14    1    4    4    0    0  0.38553739495E+01 -0.47162051126E+01  0.50055438941E+02  0.50424730704E+02  0.00000000000E+00 0. -1.
         -5    1    5    5    0  502 -0.43539501578E+02  0.71587086766E+02  0.82458375551E+02  0.11765148910E+03  0.47000000000E+01 0.  1.
         11    1    6    6    0    0 -0.19352772511E+02  0.88969232338E+01  0.12211918621E+03  0.12396281978E+03  0.00000000000E+00 0. -1.
        -12    1    6    6    0    0  0.59980683702E+02  0.14413104345E+02  0.18730618891E+03  0.19720301316E+03  0.00000000000E+00 0.  1.
</event>
<event>
12    1  0.8251070E-002  0.2134851E+03  0.7818608E-02  0.1138915E+00
         21   -1    0    0  503  502  0.00000000000E+00  0.00000000000E+00  0.31006451307E+03  0.31006451307E+03  0.00000000000E+00 0.  1.
         21   -1    0    0  501  503 -0.00000000000E+00 -0.00000000000E+00 -0.15239204539E+03  0.15239204539E+03  0.00000000000E+00 0.  1.
          6    2    1    2  501    0  0.10269209822E+03  0.70446320910E+02  0.12357229979E+03  0.24666983701E+03  0.17339995400E+03 0.  0.
         24    2    3    3    0    0  0.80546561060E+02  0.10691131091E+03  0.53901713050E+02  0.16483951886E+03  0.79679956133E+02 0.  0.
         -6    2    1    2    0  502 -0.10269209822E+03 -0.70446320910E+02  0.34100167882E+02  0.21578672145E+03  0.17289516054E+03 0.  0.
        -24    2    5    5    0    0 -0.82889065992E+02 -0.35185607201E+01  0.75980206205E+02  0.13425444085E+03  0.73268585511E+02 0.  0.
          5    1    3    3  501    0  0.22145537165E+02 -0.36464990000E+02  0.69670586739E+02  0.81830318150E+02  0.47000000000E+01 0. -1.
        -11    1    4    4    0    0  0.29150902270E+02  0.99361172255E+02  0.31191221876E+02  0.10814485645E+03  0.00000000000E+00 0.  1.
         12    1    4    4    0    0  0.51395658790E+02  0.75501386550E+01  0.22710491174E+02  0.56694662408E+02  0.00000000000E+00 0. -1.
         -5    1    5    5    0  502 -0.19803032233E+02 -0.66927760190E+02 -0.41880038323E+02  0.81532280598E+02  0.47000000000E+01 0.  1.
         13    1    6    6    0    0 -0.19238431600E+02 -0.12015287259E+02  0.65338240990E+02  0.69163358175E+02  0.00000000000E+00 0. -1.
        -14    1    6    6    0    0 -0.63650634392E+02  0.84967265387E+01  0.10641965215E+02  0.65091082676E+02  0.00000000000E+00 0.  1.
</event>
<event>
12    1  0.8251070E-002  0.2280920E+03  0.7818608E-02  0.1128251E+00
         21   -1    0    0  503  502  0.00000000000E+00  0.00000000000E+00  0.50258183841E+03  0.50258183841E+03  0.00000000000E+00 0.  1.
         21   -1    0    0  501  503 -0.00000000000E+00 -0.00000000000E+00 -0.10620512528E+03  0.10620512528E+03  0.00000000000E+00 0.  1.
          6    2    1    2  501    0  0.13656952689E+03 -0.55575883619E+02  0.25287145986E+03  0.34054357101E+03  0.17402883103E+03 0.  0.
         24    2    3    3    0    0  0.84892368514E+02  0.88489849208E+01  0.21854852915E+03  0.25098216215E+03  0.89126692734E+02 0.  0.
         -6    2    1    2    0  502 -0.13656952689E+03  0.55575883619E+02  0.14350525327E+03  0.26824339268E+03  0.17210707564E+03 0.  0.
        -24    2    5    5    0    0 -0.94971107572E+02  0.29864181909E+02  0.16996169361E+03  0.21244416931E+03  0.79587481075E+02 0.  0.
          5    1    3    3  501    0  0.51677158375E+02 -0.64424868540E+02  0.34322930706E+02  0.89561408856E+02  0.47000000000E+01 0. -1.
        -13    1    4    4    0    0  0.54154207604E+02 -0.38611949383E+02  0.12747289462E+03  0.14378073480E+03  0.00000000000E+00 0.  1.
         14    1    4    4    0    0  0.30738160910E+02  0.47460934303E+02  0.91075634525E+02  0.10720142735E+03  0.00000000000E+00 0. -1.
         -5    1    5    5    0  502 -0.41598419317E+02  0.25711701710E+02 -0.26456440333E+02  0.55799223378E+02  0.47000000000E+01 0.  1.
         13    1    6    6    0    0 -0.53443855706E+02 -0.13121418773E+02  0.36017272132E+02  0.65769759276E+02  0.00000000000E+00 0. -1.
        -14    1    6    6    0    0 -0.41527251865E+02  0.42985600682E+02  0.13394442147E+03  0.14667441003E+03  0.00000000000E+00 0.  1.
</event>
<event>
12    1  0.8251070E-002  0.2072808E+03  0.7818608E-02  0.1143790E+00
         21   -1    0    0  503  502  0.00000000000E+00  0.00000000000E+00  0.29479272232E+03  0.29479272232E+03  0.00000000000E+00 0.  1.
         21   -1    0    0  501  503 -0.00000000000E+00 -0.00000000000E+00 -0.19787283825E+03  0.19787283825E+03  0.00000000000E+00 0.  1.
          6    2    1    2  501    0 -0.75534377059E+02  0.89507181425E+02 -0.78215839875E+02  0.22130262289E+03  0.17070487881E+03 0.  0.
         24    2    3    3    0    0 -0.10204742369E+03  0.48287064166E+02 -0.10487542689E+02  0.13756940399E+03  0.77910430080E+02 0.  0.
         -6    2    1    2    0  502  0.75534377059E+02 -0.89507181425E+02  0.17513572394E+03  0.27136293768E+03  0.17102147380E+03 0.  0.
        -24    2    5    5    0    0  0.73842904842E+02 -0.98424147223E+02  0.65122059693E+02  0.16087551904E+03  0.80622345626E+02 0.  0.
          5    1    3    3  501    0  0.26513046630E+02  0.41220117259E+02 -0.67728297186E+02  0.83733218905E+02  0.47000000000E+01 0. -1.
        -11    1    4    4    0    0 -0.26433461451E+02  0.54634535705E+02  0.16999589187E+01  0.60716968273E+02  0.00000000000E+00 0.  1.
         12    1    4    4    0    0 -0.75613962237E+02 -0.63474715393E+01 -0.12187501608E+02  0.76852435717E+02  0.00000000000E+00 0. -1.
         -5    1    5    5    0  502  0.16914722169E+01  0.89169657986E+01  0.11001366425E+03  0.11048741864E+03  0.47000000000E+01 0.  1.
         11    1    6    6    0    0  0.41119505273E+01 -0.71997717068E+02  0.25945826329E+02  0.76640493892E+02  0.00000000000E+00 0. -1.
        -12    1    6    6    0    0  0.69730954314E+02 -0.26426430155E+02  0.39176233364E+02  0.84235025144E+02  0.00000000000E+00 0.  1.
</event>
<event>
12    1  0.8251070E-002  0.1900560E+03  0.7818608E-02  0.1158433E+00
         21   -1    0    0  503  502  0.00000000000E+00  0.00000000000E+00  0.23501969464E+03  0.23501969464E+03  0.00000000000E+00 0. -1.
         21   -1    0    0  501  503 -0.00000000000E+00 -0.00000000000E+00 -0.26417802593E+03  0.26417802593E+03  0.00000000000E+00 0. -1.
          6    2    1    2  501    0  0.30225043913E+02  0.75145569804E+02 -0.17605489733E+03  0.25906873741E+03  0.17193275979E+03 0.  0.
         24    2    3    3    0    0 -0.76121333574E+01  0.82304498038E+01 -0.16148728908E+03  0.18068767797E+03  0.80275821753E+02 0.  0.
         -6    2    1    2    0  502 -0.30225043913E+02 -0.75145569804E+02  0.14689656604E+03  0.24012898317E+03  0.17182234284E+03 0.  0.
        -24    2    5    5    0    0 -0.34495025406E+02 -0.33224702144E+02  0.16546617322E+03  0.19384170416E+03  0.88891867919E+02 0.  0.
          5    1    3    3  501    0  0.37837177270E+02  0.66915120000E+02 -0.14567608250E+02  0.78381059437E+02  0.47000000000E+01 0. -1.
        -13    1    4    4    0    0 -0.13885270157E+02  0.37344515973E+02 -0.13525099553E+03  0.14099732406E+03  0.00000000000E+00 0.  1.
         14    1    4    4    0    0  0.62731367997E+01 -0.29114066169E+02 -0.26236293546E+02  0.39690353907E+02  0.00000000000E+00 0. -1.
         -5    1    5    5    0  502  0.42699814939E+01 -0.41920867660E+02 -0.18569607173E+02  0.46287279007E+02  0.47000000000E+01 0.  1.
         13    1    6    6    0    0 -0.26453576516E+02 -0.60531402466E+02  0.14319705827E+03  0.15769984113E+03  0.00000000000E+00 0. -1.
        -14    1    6    6    0    0 -0.80414488906E+01  0.27306700322E+02  0.22269114944E+02  0.36141863028E+02  0.00000000000E+00 0.  1.
</event>
<event>
12    1  0.8251070E-002  0.2090368E+03  0.7818608E-02  0.1142491E+00
         21   -1    0    0  501  502  0.00000000000E+00  0.00000000000E+00  0.75752546693E+02  0.75752546693E+02  0.00000000000E+00 0. -1.
         21   -1    0    0  502  503 -0.00000000000E+00 -0.00000000000E+00 -0.14027829114E+04  0.14027829114E+04  0.00000000000E+00 0. -1.
         -6    2    1    2    0  503 -0.57478616816E+01  0.11848840615E+03 -0.12320595067E+04  0.12496667599E+04  0.17211578244E+03 0.  0.
        -24    2    3    3    0    0 -0.87853344088E+01  0.31963298672E+02 -0.96585575574E+03  0.96969828406E+03  0.79615241356E+02 0.  0.
          6    2    1    2  501    0  0.57478616816E+01 -0.11848840615E+03 -0.94970857986E+02  0.22886869812E+03  0.17113993341E+03 0.  0.
         24    2    5    5    0    0 -0.25155867856E+02 -0.14415770079E+03 -0.84521620567E+02  0.18709275111E+03  0.80284075565E+02 0.  0.
          5    1    5    5  501    0  0.30903729538E+02  0.25669294637E+02 -0.10449237418E+02  0.41775947016E+02  0.47000000000E+01 0. -1.
        -11    1    6    6    0    0  0.24284353671E+02 -0.14827705163E+02 -0.14691708265E+02  0.32022444712E+02  0.00000000000E+00 0.  1.
         12    1    6    6    0    0 -0.49440221527E+02 -0.12932999562E+03 -0.69829912303E+02  0.15507030639E+03  0.00000000000E+00 0. -1.
         -5    1    3    3    0  503  0.30374727271E+01  0.86525107478E+02 -0.26620375095E+03  0.27996847587E+03  0.47000000000E+01 0.  1.
         11    1    4    4    0    0  0.19258909834E+02  0.44178084808E+02 -0.37990289771E+03  0.38294754272E+03  0.00000000000E+00 0. -1.
        -12    1    4    4    0    0 -0.28044244242E+02 -0.12214786137E+02 -0.58595285803E+03  0.58675074134E+03  0.00000000000E+00 0.  1.
</event>
<event>
12    1  0.8251070E-002  0.1739920E+03  0.7818608E-02  0.1174196E+00
         21   -1    0    0  501  502  0.00000000000E+00  0.00000000000E+00  0.17476929639E+04  0.17476929639E+04  0.00000000000E+00 0.  1.
         21   -1    0    0  502  503 -0.00000000000E+00 -0.00000000000E+00 -0.49471151572E+02  0.49471151572E+02  0.00000000000E+00 0.  1.
         -6    2    1    2    0  503 -0.24362872066E+02 -0.32611235368E+01  0.12125989897E+03  0.21063265012E+03  0.17046397195E+03 0.  0.
        -24    2    3    3    0    0 -0.15375649916E+02 -0.31423350729E+02  0.30496153427E+00  0.86029006137E+02  0.78594270236E+02 0.  0.
          6    2    1    2  501    0  0.24362872066E+02  0.32611235368E+01  0.15769619134E+04  0.15865314654E+04  0.17224700266E+03 0.  0.
         24    2    5    5    0    0  0.65034188554E+02 -0.23251261905E+02  0.13644288379E+04  0.13684730770E+04  0.79261856744E+02 0.  0.
          5    1    5    5  501    0 -0.40671316489E+02  0.26512385442E+02  0.21253307544E+03  0.21805838833E+03  0.47000000000E+01 0. -1.
        -11    1    6    6    0    0  0.36528322019E+02 -0.17582503286E+02  0.22178337848E+03  0.22545804421E+03  0.00000000000E+00 0.  1.
         12    1    6    6    0    0  0.28505866536E+02 -0.56687586194E+01  0.11426454594E+04  0.11430150328E+04  0.00000000000E+00 0. -1.
         -5    1    3    3    0  503 -0.89872221503E+01  0.28162227192E+02  0.12095493744E+03  0.12460364398E+03  0.47000000000E+01 0.  1.
         11    1    4    4    0    0  0.13866234785E+02  0.64057510158E+01  0.27181690620E+02  0.31179326776E+02  0.00000000000E+00 0. -1.
        -12    1    4    4    0    0 -0.29241884701E+02 -0.37829101745E+02 -0.26876729086E+02  0.54849679361E+02  0.00000000000E+00 0.  1.
</event>
<event>
12    1  0.8251070E-002  0.1738715E+03  0.7818608E-02  0.1174435E+00
         21   -1    0    0  501  502  0.00000000000E+00  0.00000000000E+00  0.78897762676E+02  0.78897762676E+02  0.00000000000E+00 0. -1.
         21   -1    0    0  502  503 -0.00000000000E+00 -0.00000000000E+00 -0.12241873716E+04  0.12241873716E+04  0.00000000000E+00 0. -1.
         -6    2    1    2    0  503 -0.19800158522E+02  0.61058354556E+01 -0.11153758609E+04  0.11288465800E+04  0.17263244940E+03 0.  0.
        -24    2    3    3    0    0  0.64662284727E+01  0.57345219350E+02 -0.44693467040E+03  0.45791356344E+03  0.81264664421E+02 0.  0.
          6    2    1    2  501    0  0.19800158522E+02 -0.61058354556E+01 -0.29913748029E+02  0.17423855429E+03  0.17039634378E+03 0.  0.
         24    2    5    5    0    0 -0.45106563908E+02  0.27308831081E+02 -0.17911725072E+02  0.10010650244E+03  0.83187183942E+02 0.  0.
          5    1    5    5  501    0  0.64906722430E+02 -0.33414666536E+02 -0.12002022956E+02  0.74132051850E+02  0.47000000000E+01 0. -1.
        -13    1    6    6    0    0 -0.14639726267E+01  0.40231578890E+02 -0.33105430441E+02  0.52121902119E+02  0.00000000000E+00 0.  1.
         14    1    6    6    0    0 -0.43642591282E+02 -0.12922747809E+02  0.15193705369E+02  0.47984600317E+02  0.00000000000E+00 0. -1.
         -5    1    3    3    0  503 -0.26266386995E+02 -0.51239383894E+02 -0.66844119051E+03  0.67093301656E+03  0.47000000000E+01 0.  1.
         13    1    4    4    0    0  0.35597234915E+02  0.26800316210E+02 -0.34069035897E+03  0.34359182292E+03  0.00000000000E+00 0. -1.
        -14    1    4    4    0    0 -0.29131006442E+02  0.30544903140E+02 -0.10624431143E+03  0.11432174052E+03  0.00000000000E+00 0.  1.
</event>
<event>
12    1  0.8251070E-002  0.1845596E+03  0.7818608E-02  0.1163946E+00
         21   -1    0    0  501  502  0.00000000000E+00  0.00000000000E+00  0.92433676026E+02  0.92433676026E+02  0.00000000000E+00 0. -1.
         21   -1    0    0  502  503 -0.00000000000E+00 -0.00000000000E+00 -0.47367332862E+03  0.47367332862E+03  0.00000000000E+00 0. -1.
         -6    2    1    2    0  503  0.25662704487E+02  0.62655022488E+02 -0.32738558261E+03  0.37582384598E+03  0.17169163422E+03 0.  0.
        -24    2    3    3    0    0  0.33726105685E+02  0.88195933479E+02 -0.32587949935E+03  0.34858940345E+03  0.80007194763E+02 0.  0.
          6    2    1    2  501    0 -0.25662704487E+02 -0.62655022488E+02 -0.53854069988E+02  0.19028315867E+03  0.16947918272E+03 0.  0.
         24    2    5    5    0    0 -0.38594712014E+02 -0.37781203983E+01  0.23677539377E+02  0.91962423984E+02  0.79953959032E+02 0.  0.
          5    1    5    5  501    0  0.12932007527E+02 -0.58876902090E+02 -0.77531609365E+02  0.98320734685E+02  0.47000000000E+01 0. -1.
        -13    1    6    6    0    0 -0.12584311991E+02 -0.33938801409E+02  0.35212134549E+02  0.50498530363E+02  0.00000000000E+00 0.  1.
         14    1    6    6    0    0 -0.26010400023E+02  0.30160681011E+02 -0.11534595172E+02  0.41463893620E+02  0.00000000000E+00 0. -1.
         -5    1    3    3    0  503 -0.80634011980E+01 -0.25540910991E+02 -0.15060832598E+01  0.27234442530E+02  0.47000000000E+01 0.  1.
         11    1    4    4    0    0  0.26774165751E+02  0.16652760344E+02 -0.20907867246E+03  0.21144280942E+03  0.00000000000E+00 0. -1.
        -12    1    4    4    0    0  0.69519399343E+01  0.71543173135E+02 -0.11680082689E+03  0.13714659403E+03  0.00000000000E+00 0.  1.
</event>
<event>
12    1  0.8251070E-002  0.2541807E+03  0.7818608E-02  0.1110961E+00
         21   -1    0    0  503  502  0.00000000000E+00  0.00000000000E+00  0.15542809186E+03  0.15542809186E+03  0.00000000000E+00 0.  1.
         21   -1    0    0  501  503 -0.00000000000E+00 -0.00000000000E+00 -0.52010721755E+03  0.52010721755E+03  0.00000000000E+00 0.  1.
          6    2    1    2  501    0  0.99329635708E+02 -0.15880487885E+03 -0.29441656204E+02  0.25588013116E+03  0.17182102411E+03 0.  0.
         24    2    3    3    0    0  0.11133494892E+03 -0.11281317595E+03 -0.72164772329E+02  0.19179644422E+03  0.80348230409E+02 0.  0.
         -6    2    1    2    0  502 -0.99329635708E+02  0.15880487885E+03 -0.33523746949E+03  0.41965517825E+03  0.16923634836E+03 0.  0.
        -24    2    5    5    0    0 -0.21779835759E+02  0.14111077464E+03 -0.16962371698E+03  0.23586982024E+03  0.80472074504E+02 0.  0.
          5    1    3    3  501    0 -0.12005313208E+02 -0.45991702895E+02  0.42723116125E+02  0.64083686940E+02  0.47000000000E+01 0. -1.
        -11    1    4    4    0    0  0.10122242233E+03 -0.10912598299E+03 -0.34725811569E+02  0.15284090072E+03  0.00000000000E+00 0.  1.
         12    1    4    4    0    0  0.10112526591E+02 -0.36871929638E+01 -0.37438960760E+02  0.38955543492E+02  0.00000000000E+00 0. -1.
         -5    1    5    5    0  502 -0.77549799949E+02  0.17694104207E+02 -0.16561375251E+03  0.18378535800E+03  0.47000000000E+01 0.  1.
         13    1    6    6    0    0 -0.32910705576E+02  0.13314149233E+02 -0.40478903092E+02  0.53841644726E+02  0.00000000000E+00 0. -1.
        -14    1    6    6    0    0  0.11130869817E+02  0.12779662541E+03 -0.12914481388E+03  0.18202817552E+03  0.00000000000E+00 0.  1.
</event>
<event>
12    1  0.8251070E-002  0.2746309E+03  0.7818608E-02  0.1098751E+00
         21   -1    0    0  501  502  0.00000000000E+00  0.00000000000E+00  0.13683848559E+03  0.13683848559E+03  0.00000000000E+00 0.  1.
         21   -1    0    0  502  503 -0.00000000000E+00 -0.00000000000E+00 -0.17347237761E+04  0.17347237761E+04  0.00000000000E+00 0. -1.
         -6    2    1    2    0  503  0.16028028222E+02 -0.21360834023E+03 -0.15720210484E+04  0.15957160852E+04  0.17080464665E+03 0.  0.
        -24    2    3    3    0    0 -0.18985010823E+02 -0.16052594640E+03 -0.14123533141E+04  0.14237872371E+04  0.79367515963E+02 0.  0.
          6    2    1    2  501    0 -0.16028028222E+02  0.21360834023E+03 -0.25864242078E+02  0.27584617644E+03  0.17186254197E+03 0.  0.
         24    2    5    5    0    0 -0.77019667331E+02  0.15272976187E+03 -0.12410237555E+02  0.18850041763E+03  0.78230327459E+02 0.  0.
          5    1    5    5  501    0  0.60991639109E+02  0.60878578367E+02 -0.13454004523E+02  0.87345758815E+02  0.47000000000E+01 0. -1.
        -13    1    6    6    0    0 -0.21846433301E+02  0.60609687044E+02  0.32438265027E+02  0.72132113857E+02  0.00000000000E+00 0.  1.
         14    1    6    6    0    0 -0.55173234030E+02  0.92120074824E+02 -0.44848502583E+02  0.11636830377E+03  0.00000000000E+00 0. -1.
         -5    1    3    3    0  503  0.35013039045E+02 -0.53082393835E+02 -0.15966773430E+03  0.17192884812E+03  0.47000000000E+01 0.  1.
         13    1    4    4    0    0  0.16582597734E+02 -0.13543599780E+03 -0.10495919351E+04  0.10584238859E+04  0.00000000000E+00 0. -1.
        -14    1    4    4    0    0 -0.35567608557E+02 -0.25089948603E+02 -0.36276137896E+03  0.36536335115E+03  0.00000000000E+00 0.  1.
</event>
<event>
12    1  0.8251070E-002  0.2095058E+03  0.7818608E-02  0.1142569E+00
         21   -1    0    0  501  502  0.00000000000E+00  0.00000000000E+00  0.20643287191E+04  0.20643287191E+04  0.00000000000E+00 0.  1.
         21   -1    0    0  502  503 -0.00000000000E+00 -0.00000000000E+00 -0.32431330954E+02  0.32431330954E+02  0.00000000000E+00 0.  1.
         -6    2    1    2    0  503 -0.38611905544E+02  0.11267472688E+03  0.38745132589E+03  0.43902197363E+03  0.16862766698E+03 0.  0.
        -24    2    3    3    0    0  0.19448547187E+02  0.93556037386E+02  0.33828072195E+03  0.36043203311E+03  0.79664455875E+02 0.  0.
          6    2    1    2  501    0  0.38611905544E+02 -0.11267472688E+03  0.16444460622E+04  0.16577380764E+04  0.17235488104E+03 0.  0.
         24    2    5    5    0    0 -0.18027236353E+02 -0.10298863504E+03  0.74989767245E+03  0.76133374551E+03  0.79692613894E+02 0.  0.
          5    1    5    5  501    0  0.56639141897E+02 -0.96860918424E+01  0.89454838979E+03  0.89640433089E+03  0.47000000000E+01 0. -1.
        -13    1    6    6    0    0 -0.52687014803E+01  0.12480032440E+02  0.12477222634E+03  0.12550545363E+03  0.00000000000E+00 0.  1.
         14    1    6    6    0    0 -0.12758534873E+02 -0.11546866748E+03  0.62512544611E+03  0.63582829188E+03  0.00000000000E+00 0. -1.
         -5    1    3    3    0  503 -0.58060452731E+02  0.19118689498E+02  0.49170603938E+02  0.78589940521E+02  0.47000000000E+01 0.  1.
         13    1    4    4    0    0  0.27985655151E+02  0.10540700310E+02  0.35783569669E+02  0.46634398415E+02  0.00000000000E+00 0. -1.
        -14    1    4    4    0    0 -0.85371079645E+01  0.83015337076E+02  0.30249715228E+03  0.31379763469E+03  0.00000000000E+00 0.  1.
</event>
<event>
12    1  0.8251070E-002  0.1964034E+03  0.7818608E-02  0.1153099E+00
         21   -1    0    0  503  502  0.00000000000E+00  0.00000000000E+00  0.18852521742E+03  0.18852521742E+03  0.00000000000E+00 0.  1.
         21   -1    0    0  501  503 -0.00000000000E+00 -0.00000000000E+00 -0.20352267305E+03  0.20352267305E+03  0.00000000000E+00 0.  1.
          6    2    1    2  501    0  0.80551028385E+02  0.44480484135E+02  0.44716193543E-01  0.19640337536E+03  0.17351455907E+03 0.  0.
         24    2    3    3    0    0  0.94117229734E+02  0.74301578371E+02  0.34265103345E+02  0.14879597701E+03  0.81162602142E+02 0.  0.
         -6    2    1    2    0  502 -0.80551028385E+02 -0.44480484135E+02 -0.15042171824E+02  0.19564451512E+03  0.17199862709E+03 0.  0.
        -24    2    5    5    0    0 -0.88814110057E+02  0.16886339040E+01  0.39783882235E+02  0.12334062738E+03  0.75758533817E+02 0.  0.
          5    1    3    3  501    0 -0.13566201349E+02 -0.29821094235E+02 -0.34220387151E+02  0.47607398345E+02  0.47000000000E+01 0. -1.
        -11    1    4    4    0    0  0.41050289300E+01  0.16166897687E+02  0.38081944654E+02  0.41574684027E+02  0.00000000000E+00 0.  1.
         12    1    4    4    0    0  0.90012200804E+02  0.58134680683E+02 -0.38168413087E+01  0.10722129298E+03  0.00000000000E+00 0. -1.
         -5    1    5    5    0  502  0.82630816716E+01 -0.46169118040E+02 -0.54826054059E+02  0.72303887744E+02  0.47000000000E+01 0.  1.
         11    1    6    6    0    0 -0.30902788291E+02 -0.25248892272E+02  0.43914023269E+02  0.59337427689E+02  0.00000000000E+00 0. -1.
        -12    1    6    6    0    0 -0.57911321766E+02  0.26937526176E+02 -0.41301410344E+01  0.64003199686E+02  0.00000000000E+00 0.  1.
</event>
<event>
12    1  0.8251070E-002  0.2092076E+03  0.7818608E-02  0.1142371E+00
         21   -1    0    0  501  502  0.00000000000E+00  0.00000000000E+00  0.13313287150E+04  0.13313287150E+04  0.00000000000E+00 0.  1.
         21   -1    0    0  502  503 -0.00000000000E+00 -0.00000000000E+00 -0.80212677048E+02  0.80212677048E+02  0.00000000000E+00 0.  1.
         -6    2    1    2    0  503 -0.90445254774E+02  0.77285184049E+02  0.82047165006E+02  0.22390093036E+03  0.17101621428E+03 0.  0.
        -24    2    3    3    0    0 -0.66911497210E+02  0.11436626089E+03  0.89708628236E+02  0.17907201086E+03  0.80388786566E+02 0.  0.
          6    2    1    2  501    0  0.90445254774E+02 -0.77285184049E+02  0.11690688729E+04  0.11876404616E+04  0.17208861889E+03 0.  0.
         24    2    5    5    0    0  0.17914097598E+02 -0.42392489435E+02  0.25269646224E+03  0.26772809955E+03  0.75530094715E+02 0.  0.
          5    1    5    5  501    0  0.72531157176E+02 -0.34892694614E+02  0.91637241067E+03  0.91991236209E+03  0.47000000000E+01 0. -1.
        -11    1    6    6    0    0  0.34031167825E+02 -0.54910123697E+02  0.15500504575E+03  0.16792797944E+03  0.00000000000E+00 0.  1.
         12    1    6    6    0    0 -0.16117070228E+02  0.12517634262E+02  0.97691416482E+02  0.99800120112E+02  0.00000000000E+00 0. -1.
         -5    1    3    3    0  503 -0.23533757564E+02 -0.37081076842E+02 -0.76614632307E+01  0.44828919501E+02  0.47000000000E+01 0.  1.
         13    1    4    4    0    0 -0.11498658461E+02  0.39382231466E+02  0.73871081327E+02  0.84499206849E+02  0.00000000000E+00 0. -1.
        -14    1    4    4    0    0 -0.55412838749E+02  0.74984029425E+02  0.15837546909E+02  0.94572804015E+02  0.00000000000E+00 0.  1.
</event>
<event>
12    1  0.8251070E-002  0.1882491E+03  0.7818608E-02  0.1160113E+00
         21   -1    0    0  503  502  0.00000000000E+00  0.00000000000E+00  0.87085877772E+03  0.87085877772E+03  0.00000000000E+00 0.  1.
         21   -1    0    0  501  503 -0.00000000000E+00 -0.00000000000E+00 -0.52721103549E+02  0.52721103549E+02  0.00000000000E+00 0.  1.
          6    2    1    2  501    0  0.39130213374E+02 -0.63560850224E+02  0.18771891952E+03  0.26565471415E+03  0.17251921378E+03 0.  0.
         24    2    3    3    0    0  0.55557519273E+02 -0.87959019996E+02  0.83196694675E+02  0.15697117098E+03  0.83035121297E+02 0.  0.
         -6    2    1    2    0  502 -0.39130213374E+02  0.63560850224E+02  0.63041875465E+03  0.65792516712E+03  0.17281945504E+03 0.  0.
        -24    2    5    5    0    0 -0.66450362004E+02  0.16802494616E+02  0.22035846214E+03  0.24427765071E+03  0.80098341831E+02 0.  0.
          5    1    3    3  501    0 -0.16427305899E+02  0.24398169773E+02  0.10452222485E+03  0.10868354317E+03  0.47000000000E+01 0. -1.
        -13    1    4    4    0    0  0.45121411224E+01 -0.66234678294E+02  0.76187706938E+02  0.10105423650E+03  0.00000000000E+00 0.  1.
         14    1    4    4    0    0  0.51045378151E+02 -0.21724341702E+02  0.70089877369E+01  0.55916934484E+02  0.00000000000E+00 0. -1.
         -5    1    5    5    0  502  0.27320148630E+02  0.46758355608E+02  0.41006029251E+03  0.41364751642E+03  0.47000000000E+01 0.  1.
         11    1    6    6    0    0 -0.24790377895E+01 -0.24659942911E+02  0.28162649517E+02  0.37515240110E+02  0.00000000000E+00 0. -1.
        -12    1    6    6    0    0 -0.63971324214E+02  0.41462437527E+02  0.19219581262E+03  0.20676241060E+03  0.00000000000E+00 0.  1.
</event>
<event>
12    1  0.8251070E-002  0.2037216E+03  0.7818608E-02  0.1146683E+00
         21   -1    0    0  503  502  0.00000000000E+00  0.00000000000E+00  0.80868675152E+02  0.80868675152E+02  0.00000000000E+00 0.  1.
         21   -1    0    0  501  503 -0.00000000000E+00 -0.00000000000E+00 -0.51289997058E+03  0.51289997058E+03  0.00000000000E+00 0. -1.
          6    2    1    2  501    0  0.51375624387E+02 -0.95837616216E+02 -0.20924372228E+03  0.29187993694E+03  0.17200772893E+03 0.  0.
         24    2    3    3    0    0  0.83368088799E+02 -0.19647468911E+02 -0.99047150959E+02  0.15406182980E+03  0.81169255408E+02 0.  0.
         -6    2    1    2    0  502 -0.51375624387E+02  0.95837616216E+02 -0.22278757314E+03  0.30188870878E+03  0.17227357976E+03 0.  0.
        -24    2    5    5    0    0  0.68445765813E+01  0.66282418191E+02 -0.45512669750E+02  0.11291362338E+03  0.78980225672E+02 0.  0.
          5    1    3    3  501    0 -0.31992464412E+02 -0.76190147304E+02 -0.11019657132E+03  0.13781810714E+03  0.47000000000E+01 0. -1.
        -13    1    4    4    0    0 -0.15886622667E+02  0.25265961181E+01 -0.10457523094E+02  0.19186668731E+02  0.00000000000E+00 0.  1.
         14    1    4    4    0    0  0.99254711466E+02 -0.22174065029E+02 -0.88589627865E+02  0.13487516107E+03  0.00000000000E+00 0. -1.
         -5    1    5    5    0  502 -0.58220200968E+02  0.29555198025E+02 -0.17727490339E+03  0.18897508540E+03  0.47000000000E+01 0.  1.
         13    1    6    6    0    0  0.56321404698E+01  0.17216291021E+02 -0.59241168079E+02  0.61948669705E+02  0.00000000000E+00 0. -1.
        -14    1    6    6    0    0  0.12124361115E+01  0.49066127170E+02  0.13728498329E+02  0.50964953675E+02  0.00000000000E+00 0.  1.
</event>
<event>
12    1  0.8251070E-002  0.2516000E+03  0.7818608E-02  0.1112403E+00
         21   -1    0    0  503  502  0.00000000000E+00  0.00000000000E+00  0.67865062363E+03  0.67865062363E+03  0.00000000000E+00 0.  1.
         21   -1    0    0  501  503 -0.00000000000E+00 -0.00000000000E+00 -0.18368127807E+03  0.18368127807E+03  0.00000000000E+00 0. -1.
          6    2    1    2  501    0  0.93764876250E+02  0.15744548401E+03 -0.55248944614E+02  0.25759469520E+03  0.17239967709E+03 0.  0.
         24    2    3    3    0    0  0.13295137109E+03  0.13594294120E+03 -0.41204012293E+02  0.21050657728E+03  0.80366025854E+02 0.  0.
         -6    2    1    2    0  502 -0.93764876250E+02 -0.15744548401E+03  0.55021829018E+03  0.60473720650E+03  0.17142342205E+03 0.  0.
        -24    2    5    5    0    0 -0.12997434189E+03 -0.10924871977E+03  0.45087813887E+03  0.48844185343E+03  0.80347593269E+02 0.  0.
          5    1    3    3  501    0 -0.39186494842E+02  0.21502542811E+02 -0.14044932321E+02  0.47088117920E+02  0.47000000000E+01 0. -1.
        -11    1    4    4    0    0 -0.10872379352E+02  0.11412026808E+02  0.39280851893E+00  0.15766968230E+02  0.00000000000E+00 0.  1.
         12    1    4    4    0    0  0.14382375044E+03  0.12453091439E+03 -0.41596820812E+02  0.19473960905E+03  0.00000000000E+00 0. -1.
         -5    1    5    5    0  502  0.36209465643E+02 -0.48196764240E+02  0.99340151305E+02  0.11629535307E+03  0.47000000000E+01 0.  1.
         11    1    6    6    0    0 -0.10854874397E+03 -0.11798168885E+03  0.35040363720E+03  0.38533779685E+03  0.00000000000E+00 0. -1.
        -12    1    6    6    0    0 -0.21425597926E+02  0.87329690819E+01  0.10047450168E+03  0.10310405658E+03  0.00000000000E+00 0.  1.
</event>
<event>
12    1  0.8251070E-002  0.2370749E+03  0.7818608E-02  0.1121776E+00
         21   -1    0    0  501  502  0.00000000000E+00  0.00000000000E+00  0.13206035744E+03  0.13206035744E+03  0.00000000000E+00 0.  1.
         21   -1    0    0  502  503 -0.00000000000E+00 -0.00000000000E+00 -0.52755768556E+03  0.52755768556E+03  0.00000000000E+00 0.  1.
         -6    2    1    2    0  503  0.97591474135E+02  0.13032879528E+03 -0.34284920841E+03  0.41676756521E+03  0.17216251915E+03 0.  0.
        -24    2    3    3    0    0  0.36639930583E+02  0.60831614196E+02 -0.29276311965E+03  0.31152662675E+03  0.79344975579E+02 0.  0.
          6    2    1    2  501    0 -0.97591474135E+02 -0.13032879528E+03 -0.52648119717E+02  0.24285047780E+03  0.17232190619E+03 0.  0.
         24    2    5    5    0    0  0.71648627332E+01 -0.10109808127E+03 -0.23774079231E+02  0.13022665718E+03  0.78240770086E+02 0.  0.
          5    1    5    5  501    0 -0.10475633687E+03 -0.29230714014E+02 -0.28874040486E+02  0.11262382061E+03  0.47000000000E+01 0. -1.
        -13    1    6    6    0    0 -0.90870072938E+01 -0.10874176709E+03 -0.14705196203E+02  0.11010716783E+03  0.00000000000E+00 0.  1.
         14    1    6    6    0    0  0.16251870027E+02  0.76436858269E+01 -0.90688830287E+01  0.20119489352E+02  0.00000000000E+00 0. -1.
         -5    1    3    3    0  503  0.60951543552E+02  0.69497181083E+02 -0.50086088762E+02  0.10524093846E+03  0.47000000000E+01 0.  1.
         11    1    4    4    0    0  0.46543257178E+02  0.52609098910E+01 -0.95845155571E+02  0.10667823493E+03  0.00000000000E+00 0. -1.
        -12    1    4    4    0    0 -0.99033265951E+01  0.55570704305E+02 -0.19691796408E+03  0.20484839182E+03  0.00000000000E+00 0.  1.
</event>
<event>
12    1  0.8251070E-002  0.2566956E+03  0.7818608E-02  0.1109584E+00
         21   -1    0    0  501  502  0.00000000000E+00  0.00000000000E+00  0.89716344808E+02  0.89716344808E+02  0.00000000000E+00 0.  1.
         21   -1    0    0  502  503 -0.00000000000E+00 -0.00000000000E+00 -0.73007695203E+03  0.73007695203E+03  0.00000000000E+00 0. -1.
         -6    2    1    2    0  503 -0.14648440722E+03 -0.11797827771E+03 -0.34789616907E+03  0.43065568399E+03  0.17045825920E+03 0.  0.
        -24    2    3    3    0    0 -0.12804434886E+02 -0.81458027865E+02 -0.14231373384E+03  0.18268332398E+03  0.79502416102E+02 0.  0.
          6    2    1    2  501    0  0.14648440722E+03  0.11797827771E+03 -0.29246443815E+03  0.38913761285E+03  0.17468851873E+03 0.  0.
         24    2    5    5    0    0  0.16649301432E+03  0.13456345165E+03 -0.27523559016E+03  0.35760452616E+03  0.79367000093E+02 0.  0.
          5    1    5    5  501    0 -0.20008607101E+02 -0.16585173938E+02 -0.17228847991E+02  0.31533086683E+02  0.47000000000E+01 0. -1.
        -13    1    6    6    0    0  0.11324657593E+03  0.10401337472E+03 -0.13537923266E+03  0.20486850836E+03  0.00000000000E+00 0.  1.
         14    1    6    6    0    0  0.53246438388E+02  0.30550076924E+02 -0.13985635750E+03  0.15273601780E+03  0.00000000000E+00 0. -1.
         -5    1    3    3    0  503 -0.13367997234E+03 -0.36520249845E+02 -0.20558243523E+03  0.24797236001E+03  0.47000000000E+01 0.  1.
         13    1    4    4    0    0  0.11113705440E+02 -0.47381107310E+02 -0.13069099344E+03  0.13945830755E+03  0.00000000000E+00 0. -1.
        -14    1    4    4    0    0 -0.23918140325E+02 -0.34076920555E+02 -0.11622740397E+02  0.43225016431E+02  0.00000000000E+00 0.  1.
</event>
<event>
12    1  0.8251070E-002  0.2643764E+03  0.7818608E-02  0.1104655E+00
         21   -1    0    0  503  502  0.00000000000E+00  0.00000000000E+00  0.80532659121E+03  0.80532659121E+03  0.00000000000E+00 0.  1.
         21   -1    0    0  501  503 -0.00000000000E+00 -0.00000000000E+00 -0.14454273601E+03  0.14454273601E+03  0.00000000000E+00 0. -1.
          6    2    1    2  501    0 -0.40337158114E+02  0.19460973047E+03  0.29820310861E+02  0.26605286597E+03  0.17434116849E+03 0.  0.
         24    2    3    3    0    0 -0.77973356213E+01  0.14970973928E+02  0.59913726826E+01  0.81882208163E+02  0.79899129932E+02 0.  0.
         -6    2    1    2    0  502  0.40337158114E+02 -0.19460973047E+03  0.63096354434E+03  0.68381646125E+03  0.17317599392E+03 0.  0.
        -24    2    5    5    0    0  0.68305676645E+02 -0.20457172737E+03  0.58974936510E+03  0.63280491372E+03  0.78246329597E+02 0.  0.
          5    1    3    3  501    0 -0.32539822493E+02  0.17963875655E+03  0.23828938178E+02  0.18417065780E+03  0.47000000000E+01 0. -1.
        -13    1    4    4    0    0  0.28342418371E+02 -0.59336133621E+01 -0.17641192552E+02  0.33907405110E+02  0.00000000000E+00 0.  1.
         14    1    4    4    0    0 -0.36139753992E+02  0.20904587291E+02  0.23632565235E+02  0.47974803053E+02  0.00000000000E+00 0. -1.
         -5    1    5    5    0  502 -0.27968518530E+02  0.99619968915E+01  0.41214179239E+02  0.51011547528E+02  0.47000000000E+01 0.  1.
         11    1    6    6    0    0  0.72005389384E+02 -0.92703883029E+02  0.29177642767E+03  0.31450321107E+03  0.00000000000E+00 0. -1.
        -12    1    6    6    0    0 -0.36997127395E+01 -0.11186784434E+03  0.29797293743E+03  0.31830170265E+03  0.00000000000E+00 0.  1.
</event>
<event>
12    1  0.8251070E-002  0.1770639E+03  0.7818608E-02  0.1171018E+00
         21   -1    0    0  503  502  0.00000000000E+00  0.00000000000E+00  0.83569301830E+03  0.83569301830E+03  0.00000000000E+00 0. -1.
         21   -1    0    0  501  503 -0.00000000000E+00 -0.00000000000E+00 -0.57256962912E+02  0.57256962912E+02  0.00000000000E+00 0.  1.
          6    2    1    2  501    0 -0.40499381419E+02 -0.59682072003E+01  0.12413394158E+03  0.21511305767E+03  0.17084663513E+03 0.  0.
         24    2    3    3    0    0  0.26142786560E+02  0.10357684151E+02  0.11870323017E+03  0.14612540727E+03  0.80445328547E+02 0.  0.
         -6    2    1    2    0  502  0.40499381419E+02  0.59682072003E+01  0.65430211381E+03  0.67783692355E+03  0.17226671006E+03 0.  0.
        -24    2    5    5    0    0 -0.13313903065E+02  0.56863056600E+02  0.44816063980E+03  0.45874207516E+03  0.78649000219E+02 0.  0.
          5    1    3    3  501    0 -0.66642167980E+02 -0.16325891351E+02  0.54307114055E+01  0.68987650401E+02  0.47000000000E+01 0. -1.
        -13    1    4    4    0    0 -0.33728186444E+00  0.38363278989E+02  0.27768114777E+02  0.47359509415E+02  0.00000000000E+00 0.  1.
         14    1    4    4    0    0  0.26480068425E+02 -0.28005594838E+02  0.90935115398E+02  0.98765897851E+02  0.00000000000E+00 0. -1.
         -5    1    5    5    0  502  0.53813284484E+02 -0.50894849400E+02  0.20614147401E+03  0.21909484838E+03  0.47000000000E+01 0.  1.
         11    1    6    6    0    0  0.20125790153E+02  0.56162685732E+01  0.26093571759E+03  0.26177096595E+03  0.00000000000E+00 0. -1.
        -12    1    6    6    0    0 -0.33439693218E+02  0.51246788027E+02  0.18722492221E+03  0.19697110921E+03  0.00000000000E+00 0.  1.
</event>
<event>
12    1  0.8251070E-002  0.1799121E+03  0.7818608E-02  0.1168532E+00
         21   -1    0    0  501  502  0.00000000000E+00  0.00000000000E+00  0.40161000818E+03  0.40161000818E+03  0.00000000000E+00 0. -1.
         21   -1    0    0  502  503 -0.00000000000E+00 -0.00000000000E+00 -0.24631550708E+03  0.24631550708E+03  0.00000000000E+00 0. -1.
         -6    2    1    2    0  503  0.25022494511E+02 -0.19005279666E+02 -0.18883480707E+03  0.26081978534E+03  0.17714697338E+03 0.  0.
        -24    2    3    3    0    0  0.27947989018E+02 -0.73642108309E+02 -0.16914348950E+03  0.20247958008E+03  0.78639748876E+02 0.  0.
          6    2    1    2  501    0 -0.25022494511E+02  0.19005279666E+02  0.34412930817E+03  0.38710572991E+03  0.17446644235E+03 0.  0.
         24    2    5    5    0    0 -0.37691301829E+02 -0.48835310054E+02  0.26109270033E+03  0.27903162324E+03  0.76705455220E+02 0.  0.
          5    1    5    5  501    0  0.12668807318E+02  0.67840589720E+02  0.83036607841E+02  0.10807410668E+03  0.47000000000E+01 0. -1.
        -13    1    6    6    0    0  0.13133741577E+02 -0.32375412136E+01  0.57175357414E+01  0.14685607100E+02  0.00000000000E+00 0.  1.
         14    1    6    6    0    0 -0.50825043406E+02 -0.45597768840E+02  0.25537516459E+03  0.26434601614E+03  0.00000000000E+00 0. -1.
         -5    1    3    3    0  503 -0.29254945072E+01  0.54636828643E+02 -0.19691317570E+02  0.58340205261E+02  0.47000000000E+01 0.  1.
         11    1    4    4    0    0 -0.17618173257E+02 -0.60465367178E+02 -0.83634658113E+02  0.10469582940E+03  0.00000000000E+00 0. -1.
        -12    1    4    4    0    0  0.45566162275E+02 -0.13176741131E+02 -0.85508831387E+02  0.97783750677E+02  0.00000000000E+00 0.  1.
</event>
<event>
12    1  0.8251070E-002  0.1770727E+03  0.7818608E-02  0.1170996E+00
         21   -1    0    0  503  502  0.00000000000E+00  0.00000000000E+00  0.28680289845E+03  0.28680289845E+03  0.00000000000E+00 0.  1.
         21   -1    0    0  501  503 -0.00000000000E+00 -0.00000000000E+00 -0.16103021596E+03  0.16103021596E+03  0.00000000000E+00 0.  1.
          6    2    1    2  501    0  0.15488126751E+02  0.58702175864E+02 -0.65155384500E+02  0.18743288099E+03  0.16492432575E+03 0.  0.
         24    2    3    3    0    0 -0.51027214180E+02  0.12321269001E+02 -0.37800454385E+02  0.10172488076E+03  0.78507877044E+02 0.  0.
         -6    2    1    2    0  502 -0.15488126751E+02 -0.58702175864E+02  0.19092806699E+03  0.26040023343E+03  0.16633979464E+03 0.  0.
        -24    2    5    5    0    0 -0.31498334458E+02 -0.99941463723E+02  0.13032610402E+03  0.18522248718E+03  0.79636895502E+02 0.  0.
          5    1    3    3  501    0  0.66515340931E+02  0.46380906863E+02 -0.27354930115E+02  0.85708000223E+02  0.47000000000E+01 0. -1.
        -13    1    4    4    0    0 -0.19373022262E+02  0.19164570712E+02 -0.57631952217E+02  0.63749797478E+02  0.00000000000E+00 0.  1.
         14    1    4    4    0    0 -0.31654191918E+02 -0.68433017109E+01  0.19831497832E+02  0.37975083286E+02  0.00000000000E+00 0. -1.
         -5    1    5    5    0  502  0.16010207707E+02  0.41239287859E+02  0.60601962975E+02  0.75177746244E+02  0.47000000000E+01 0.  1.
         13    1    6    6    0    0  0.14106059804E+02 -0.32356522734E+02  0.49148902068E+01  0.35638204673E+02  0.00000000000E+00 0. -1.
        -14    1    6    6    0    0 -0.45604394262E+02 -0.67584940990E+02  0.12541121381E+03  0.14958428251E+03  0.00000000000E+00 0.  1.
</event>
<event>
12    1  0.8251070E-002  0.1837330E+03  0.7818608E-02  0.1164391E+00
         21   -1    0    0  503  502  0.00000000000E+00  0.00000000000E+00  0.36887100406E+03  0.36887100406E+03  0.00000000000E+00 0.  1.
         21   -1    0    0  501  503 -0.00000000000E+00 -0.00000000000E+00 -0.12115543739E+03  0.12115543739E+03  0.00000000000E+00 0.  1.
          6    2    1    2  501    0 -0.35653153710E+02 -0.52520398413E+02  0.21796302529E+01  0.18374591792E+03  0.17241888512E+03 0.  0.
         24    2    3    3    0    0 -0.34147094467E+02 -0.70066868408E+02 -0.54449868082E+02  0.12425527239E+03  0.79994965305E+02 0.  0.
         -6    2    1    2    0  502  0.35653153710E+02  0.52520398413E+02  0.24553593641E+03  0.30628052353E+03  0.17172746840E+03 0.  0.
        -24    2    5    5    0    0  0.21963956866E+02 -0.18277571801E+02  0.43638656003E+02  0.91840908408E+02  0.75590575651E+02 0.  0.
          5    1    3    3  501    0 -0.15060592430E+01  0.17546469995E+02  0.56629498335E+02  0.59490645529E+02  0.47000000000E+01 0. -1.
        -13    1    4    4    0    0  0.40464569298E+01 -0.58696076933E+02 -0.59984781342E+02  0.84022480644E+02  0.00000000000E+00 0.  1.
         14    1    4    4    0    0 -0.38193551397E+02 -0.11370791476E+02  0.55349132596E+01  0.40232791748E+02  0.00000000000E+00 0. -1.
         -5    1    5    5    0  502  0.13689196844E+02  0.70797970214E+02  0.20189728041E+03  0.21443961512E+03  0.47000000000E+01 0.  1.
         13    1    6    6    0    0 -0.10055024580E+02  0.20806724465E+02 -0.27223622802E+01  0.23268746391E+02  0.00000000000E+00 0. -1.
        -14    1    6    6    0    0  0.32018981446E+02 -0.39084296265E+02  0.46361018283E+02  0.68572162017E+02  0.00000000000E+00 0.  1.
</event>
<event>
12    1  0.8251070E-002  0.1860592E+03  0.7818608E-02  0.1162424E+00
         21   -1    0    0  503  502  0.00000000000E+00  0.00000000000E+00  0.36410290105E+03  0.36410290105E+03  0.00000000000E+00 0. -1.
         21   -1    0    0  501  503 -0.00000000000E+00 -0.00000000000E+00 -0.98539075433E+02  0.98539075433E+02  0.00000000000E+00 0.  1.
          6    2    1    2  501    0 -0.22759238652E+02  0.62423490318E+02  0.84213717924E+02  0.20282301081E+03  0.17213526176E+03 0.  0.
         24    2    3    3    0    0  0.46378942192E+02  0.18111606033E+02  0.18109926308E+02  0.97298452505E+02  0.81608718143E+02 0.  0.
         -6    2    1    2    0  502  0.22759238652E+02 -0.62423490318E+02  0.18135010770E+03  0.25981896568E+03  0.17379113405E+03 0.  0.
        -24    2    5    5    0    0  0.61716241890E+02  0.11492579345E+01  0.14395355396E+03  0.17627415941E+03  0.80868648271E+02 0.  0.
          5    1    3    3  501    0 -0.69138180843E+02  0.44311884286E+02  0.66103791617E+02  0.10552455830E+03  0.47000000000E+01 0. -1.
        -13    1    4    4    0    0  0.39922579890E+02  0.37569333211E+02 -0.16345493186E+02  0.57205264884E+02  0.00000000000E+00 0.  1.
         14    1    4    4    0    0  0.64563623022E+01 -0.19457727178E+02  0.34455419494E+02  0.40093187621E+02  0.00000000000E+00 0. -1.
         -5    1    5    5    0  502 -0.38957003239E+02 -0.63572748253E+02  0.37396553737E+02  0.83544806261E+02  0.47000000000E+01 0.  1.
         13    1    6    6    0    0  0.42179219241E+02 -0.31481217417E+02  0.41613504970E+02  0.67095732962E+02  0.00000000000E+00 0. -1.
        -14    1    6    6    0    0  0.19537022649E+02  0.32630475351E+02  0.10234004899E+03  0.10917842645E+03  0.00000000000E+00 0.  1.
</event>
<event>
12    1  0.8251070E-002  0.2324874E+03  0.7818608E-02  0.1125106E+00
         21   -1    0    0  501  502  0.00000000000E+00  0.00000000000E+00  0.13716246949E+03  0.13716246949E+03  0.00000000000E+00 0. -1.
         21   -1    0    0  502  503 -0.00000000000E+00 -0.00000000000E+00 -0.40948573798E+03  0.40948573798E+03  0.00000000000E+00 0.  1.
         -6    2    1    2    0  503  0.14700768072E+03 -0.50685512636E+02 -0.19219870771E+03  0.30074101446E+03  0.17124408063E+03 0.  0.
        -24    2    3    3    0    0  0.21984909663E+02  0.23896380239E+02 -0.62689976905E+02  0.10583654200E+03  0.78847746813E+02 0.  0.
          6    2    1    2  501    0 -0.14700768072E+03  0.50685512636E+02 -0.80124560773E+02  0.24590719301E+03  0.17282975135E+03 0.  0.
         24    2    5    5    0    0 -0.84505467475E+02 -0.16414455043E+02 -0.10411882813E+03  0.15100330905E+03  0.67458584374E+02 0.  0.
          5    1    5    5  501    0 -0.62502213247E+02  0.67099967679E+02  0.23994267361E+02  0.94903883953E+02  0.47000000000E+01 0. -1.
        -13    1    6    6    0    0 -0.20614718810E+01  0.16941861151E+02 -0.32909251454E+02  0.37071487114E+02  0.00000000000E+00 0.  1.
         14    1    6    6    0    0 -0.82443995594E+02 -0.33356316194E+02 -0.71209576680E+02  0.11393182194E+03  0.00000000000E+00 0. -1.
         -5    1    3    3    0  503  0.12502277106E+03 -0.74581892876E+02 -0.12950873081E+03  0.19490447246E+03  0.47000000000E+01 0.  1.
         11    1    4    4    0    0  0.46648744032E+01 -0.35156503062E+01 -0.71893446134E+02  0.72130357321E+02  0.00000000000E+00 0. -1.
        -12    1    4    4    0    0  0.17320035260E+02  0.27412030546E+02  0.92034692285E+01  0.33706184683E+02  0.00000000000E+00 0.  1.
</event>
<event>
12    1  0.8251070E-002  0.2114970E+03  0.7818608E-02  0.1140399E+00
         21   -1    0    0  503  502  0.00000000000E+00  0.00000000000E+00  0.17349640195E+03  0.17349640195E+03  0.00000000000E+00 0.  1.
         21   -1    0    0  501  503 -0.00000000000E+00 -0.00000000000E+00 -0.58914108174E+03  0.58914108174E+03  0.00000000000E+00 0.  1.
          6    2    1    2  501    0 -0.10629892437E+03  0.63720300153E+02  0.78156106292E+02  0.22547586672E+03  0.17138042931E+03 0.  0.
         24    2    3    3    0    0  0.56663749352E+01  0.16789293332E+01  0.48202197036E+02  0.93928587692E+02  0.80400256082E+02 0.  0.
         -6    2    1    2    0  502  0.10629892437E+03 -0.63720300153E+02 -0.49380078608E+03  0.53716161697E+03  0.17129987870E+03 0.  0.
        -24    2    5    5    0    0  0.56383575321E+02  0.26022352547E+02 -0.17341742426E+03  0.20069040823E+03  0.79666596008E+02 0.  0.
          5    1    3    3  501    0 -0.11196529930E+03  0.62041370820E+02  0.29953909255E+02  0.13154727903E+03  0.47000000000E+01 0. -1.
        -11    1    4    4    0    0 -0.40280261745E+01 -0.10220092135E+02  0.67998094276E+02  0.68879722003E+02  0.00000000000E+00 0.  1.
         12    1    4    4    0    0  0.96944011097E+01  0.11899021468E+02 -0.19795897239E+02  0.25048865689E+02  0.00000000000E+00 0. -1.
         -5    1    5    5    0  502  0.49915349044E+02 -0.89742652700E+02 -0.32038336182E+03  0.33647120874E+03  0.47000000000E+01 0.  1.
         11    1    6    6    0    0  0.56165442889E+02  0.51074870809E+02 -0.12788588149E+03  0.14872120928E+03  0.00000000000E+00 0. -1.
        -12    1    6    6    0    0  0.21813243249E+00 -0.25052518262E+02 -0.45531542768E+02  0.51969198954E+02  0.00000000000E+00 0.  1.
</event>
<event>
12    1  0.8251070E-002  0.1779445E+03  0.7818608E-02  0.1170152E+00
         21   -1    0    0  503  502  0.00000000000E+00  0.00000000000E+00  0.28193390756E+02  0.28193390756E+02  0.00000000000E+00 0. -1.
         21   -1    0    0  501  503 -0.00000000000E+00 -0.00000000000E+00 -0.11377426681E+04  0.11377426681E+04  0.00000000000E+00 0. -1.
          6    2    1    2  501    0  0.41705404513E+02  0.60731800732E+01 -0.46896800583E+03  0.50109878202E+03  0.17144321089E+03 0.  0.
         24    2    3    3    0    0  0.54001511170E+02 -0.55486759687E+02 -0.25713955997E+03  0.28011416513E+03  0.79675896592E+02 0.  0.
         -6    2    1    2    0  502 -0.41705404513E+02 -0.60731800732E+01 -0.64058127155E+03  0.66483727688E+03  0.17288150562E+03 0.  0.
        -24    2    5    5    0    0 -0.24564307319E+02  0.45247476912E+02 -0.55914950277E+03  0.56695546032E+03  0.78355524232E+02 0.  0.
          5    1    3    3  501    0 -0.12296106657E+02  0.61559939760E+02 -0.21182844586E+03  0.22098461688E+03  0.47000000000E+01 0. -1.
        -13    1    4    4    0    0  0.47873065582E+02  0.27619724613E+01 -0.15639313642E+03  0.16357955868E+03  0.00000000000E+00 0.  1.
         14    1    4    4    0    0  0.61284455879E+01 -0.58248732148E+02 -0.10074642355E+03  0.11653460645E+03  0.00000000000E+00 0. -1.
         -5    1    5    5    0  502 -0.17141097195E+02 -0.51320656985E+02 -0.81431768788E+02  0.97881816567E+02  0.47000000000E+01 0.  1.
         13    1    6    6    0    0  0.11510328187E+02 -0.17288767528E+02 -0.15825831619E+03  0.15961542463E+03  0.00000000000E+00 0. -1.
        -14    1    6    6    0    0 -0.36074635506E+02  0.62536244440E+02 -0.40089118658E+03  0.40734003568E+03  0.00000000000E+00 0.  1.
</event>
<event>
12    1  0.8251070E-002  0.1756483E+03  0.7818608E-02  0.1172785E+00
         21   -1    0    0  503  502  0.00000000000E+00  0.00000000000E+00  0.15782841979E+02  0.15782841979E+02  0.00000000000E+00 0.  1.
         21   -1    0    0  501  503 -0.00000000000E+00 -0.00000000000E+00 -0.20769533111E+04  0.20769533111E+04  0.00000000000E+00 0.  1.
          6    2    1    2  501    0 -0.13210737262E+02 -0.32468535467E+02 -0.13070064646E+04  0.13183876170E+04  0.16926689223E+03 0.  0.
         24    2    3    3    0    0 -0.26456212530E+01 -0.57612410071E+02 -0.12617776674E+04  0.12653633754E+04  0.75732428031E+02 0.  0.
         -6    2    1    2    0  502  0.13210737262E+02  0.32468535467E+02 -0.75416400444E+03  0.77434853599E+03  0.17211502032E+03 0.  0.
        -24    2    5    5    0    0 -0.71363776457E+01  0.87388295066E+02 -0.52597319222E+03  0.53871466350E+03  0.76668427286E+02 0.  0.
          5    1    3    3  501    0 -0.10565116009E+02  0.25143874605E+02 -0.45228797230E+02  0.53024241676E+02  0.47000000000E+01 0. -1.
        -13    1    4    4    0    0  0.85022180219E+01 -0.79892024384E+01 -0.89501686621E+03  0.89509290348E+03  0.00000000000E+00 0.  1.
         14    1    4    4    0    0 -0.11147839275E+02 -0.49623207633E+02 -0.36676080120E+03  0.37027047188E+03  0.00000000000E+00 0. -1.
         -5    1    5    5    0  502  0.20347114908E+02 -0.54919759599E+02 -0.22819081223E+03  0.23563387249E+03  0.47000000000E+01 0.  1.
         11    1    6    6    0    0  0.54082838504E+01  0.86580877647E+02 -0.29734366180E+03  0.30973981198E+03  0.00000000000E+00 0. -1.
        -12    1    6    6    0    0 -0.12544661496E+02  0.80741741864E+00 -0.22862953041E+03  0.22897485153E+03  0.00000000000E+00 0.  1.
</event>
<event>
12    1  0.8251070E-002  0.2013470E+03  0.7818608E-02  0.1149075E+00
         21   -1    0    0  503  502  0.00000000000E+00  0.00000000000E+00  0.97373025551E+03  0.97373025551E+03  0.00000000000E+00 0.  1.
         21   -1    0    0  501  503 -0.00000000000E+00 -0.00000000000E+00 -0.56123268961E+02  0.56123268961E+02  0.00000000000E+00 0.  1.
          6    2    1    2  501    0 -0.88660217830E+02 -0.11771098733E+02  0.19493716150E+03  0.28025187633E+03  0.18039241741E+03 0.  0.
         24    2    3    3    0    0 -0.13359746030E+03 -0.11012379188E+02  0.14846708145E+03  0.21543297664E+03  0.79995870248E+02 0.  0.
         -6    2    1    2    0  502  0.88660217830E+02  0.11771098733E+02  0.72266982505E+03  0.74960164814E+03  0.17790942042E+03 0.  0.
        -24    2    5    5    0    0  0.20697451724E+01  0.44402727084E+02  0.19414908481E+03  0.21302080989E+03  0.75552050235E+02 0.  0.
          5    1    3    3  501    0  0.44937242471E+02 -0.75871954473E+00  0.46470080050E+02  0.64818899683E+02  0.47000000000E+01 0. -1.
        -13    1    4    4    0    0 -0.21454312314E+02  0.68508346681E+01 -0.63820840730E+01  0.23408384174E+02  0.00000000000E+00 0.  1.
         14    1    4    4    0    0 -0.11214314799E+03 -0.17863213856E+02  0.15484916552E+03  0.19202459247E+03  0.00000000000E+00 0. -1.
         -5    1    5    5    0  502  0.86590472658E+02 -0.32631628351E+02  0.52852074023E+03  0.53658083825E+03  0.47000000000E+01 0.  1.
         11    1    6    6    0    0  0.26119917830E+02 -0.57180160934E+01  0.32534996736E+02  0.42112608897E+02  0.00000000000E+00 0. -1.
        -12    1    6    6    0    0 -0.24050172658E+02  0.50120743178E+02  0.16161408808E+03  0.17090820099E+03  0.00000000000E+00 0.  1.
</event>
<event>
12    1  0.8251070E-002  0.1891686E+03  0.7818608E-02  0.1159234E+00
         21   -1    0    0  503  502  0.00000000000E+00  0.00000000000E+00  0.46764796988E+03  0.46764796988E+03  0.00000000000E+00 0.  1.
         21   -1    0    0  501  503 -0.00000000000E+00 -0.00000000000E+00 -0.85994267884E+02  0.85994267884E+02  0.00000000000E+00 0.  1.
          6    2    1    2  501    0 -0.71945328685E+02 -0.25737415912E+02  0.98811518929E+02  0.21342088322E+03  0.17304973916E+03 0.  0.
         24    2    3    3    0    0 -0.93655646553E+02 -0.30372915738E+02  0.12526542981E+03  0.17856797572E+03  0.80630018634E+02 0.  0.
         -6    2    1    2    0  502  0.71945328685E+02  0.25737415912E+02  0.28284218306E+03  0.34022135454E+03  0.17295179868E+03 0.  0.
        -24    2    5    5    0    0  0.22560441294E+02  0.68573435134E+02  0.10544086089E+03  0.15109940776E+03  0.80634771422E+02 0.  0.
          5    1    3    3  501    0  0.21710317868E+02  0.46354998260E+01 -0.26453910880E+02  0.34852907503E+02  0.47000000000E+01 0. -1.
        -13    1    4    4    0    0 -0.19392546863E+02  0.26894403278E+02  0.38468697522E+02  0.50786026528E+02  0.00000000000E+00 0.  1.
         14    1    4    4    0    0 -0.74263099690E+02 -0.57267319016E+02  0.86796732287E+02  0.12778194919E+03  0.00000000000E+00 0. -1.
         -5    1    5    5    0  502  0.49384887391E+02 -0.42836019222E+02  0.17740132217E+03  0.18912194678E+03  0.47000000000E+01 0.  1.
         11    1    6    6    0    0 -0.27445999202E+02  0.20655909943E+02  0.57110219387E+02  0.66644779587E+02  0.00000000000E+00 0. -1.
        -12    1    6    6    0    0  0.50006440496E+02  0.47917525191E+02  0.48330641502E+02  0.84454628171E+02  0.00000000000E+00 0.  1.
</event>
<event>
12    1  0.8251070E-002  0.1814937E+03  0.7818608E-02  0.1166663E+00
         21   -1    0    0  503  502  0.00000000000E+00  0.00000000000E+00  0.61961970324E+02  0.61961970324E+02  0.00000000000E+00 0. -1.
         21   -1    0    0  501  503 -0.00000000000E+00 -0.00000000000E+00 -0.13619847171E+04  0.13619847171E+04  0.00000000000E+00 0. -1.
          6    2    1    2  501    0  0.14740264048E+02  0.52359048501E+02 -0.12062797193E+04  0.12196730140E+04  0.17185096554E+03 0.  0.
         24    2    3    3    0    0  0.13312106232E+02 -0.28381057193E+02 -0.85430424574E+03  0.85852231368E+03  0.79007102290E+02 0.  0.
         -6    2    1    2    0  502 -0.14740264048E+02 -0.52359048501E+02 -0.93743027460E+02  0.20427367348E+03  0.17315089701E+03 0.  0.
        -24    2    5    5    0    0 -0.41130088549E+02 -0.91944973285E+02 -0.47600646882E+02  0.13783063349E+03  0.81153555979E+02 0.  0.
          5    1    3    3  501    0  0.14281578163E+01  0.80740105693E+02 -0.35197547359E+03  0.36115070028E+03  0.47000000000E+01 0. -1.
        -11    1    4    4    0    0  0.40136630907E+02 -0.28010490634E+02 -0.33841698411E+03  0.34193799417E+03  0.00000000000E+00 0.  1.
         12    1    4    4    0    0 -0.26824524674E+02 -0.37056655818E+00 -0.51588726164E+03  0.51658431951E+03  0.00000000000E+00 0. -1.
         -5    1    5    5    0  502  0.26389824501E+02  0.39585924784E+02 -0.46142380578E+02  0.66443039994E+02  0.47000000000E+01 0.  1.
         13    1    6    6    0    0 -0.59489690641E+02 -0.34498974837E+02 -0.20892950826E+02  0.71872929199E+02  0.00000000000E+00 0. -1.
        -14    1    6    6    0    0  0.18359602092E+02 -0.57445998448E+02 -0.26707696056E+02  0.65957704290E+02  0.00000000000E+00 0.  1.
</event>
<event>
12    1  0.8251070E-002  0.1977216E+03  0.7818608E-02  0.1151738E+00
         21   -1    0    0  501  502  0.00000000000E+00  0.00000000000E+00  0.61315352808E+02  0.61315352808E+02  0.00000000000E+00 0.  1.
         21   -1    0    0  502  503 -0.00000000000E+00 -0.00000000000E+00 -0.63738789397E+03  0.63738789397E+03  0.00000000000E+00 0.  1.
         -6    2    1    2    0  503 -0.81865664849E+02 -0.53203732256E+02 -0.27637736022E+03  0.33982097657E+03  0.17193378571E+03 0.  0.
        -24    2    3    3    0    0 -0.10682462467E+03  0.63638668301E+01 -0.19603970652E+03  0.23663436340E+03  0.78180919492E+02 0.  0.
          6    2    1    2  501    0  0.81865664849E+02  0.53203732256E+02 -0.29969518094E+03  0.35888227020E+03  0.17160028607E+03 0.  0.
         24    2    5    5    0    0  0.12252327343E+03  0.48738072629E+02 -0.25430402264E+03  0.29760070281E+03  0.80673974269E+02 0.  0.
          5    1    5    5  501    0 -0.40657608576E+02  0.44656596269E+01 -0.45391158300E+02  0.61281567398E+02  0.47000000000E+01 0. -1.
        -11    1    6    6    0    0  0.19368568839E+02  0.17636134312E+02 -0.59197718355E+01  0.26855509508E+02  0.00000000000E+00 0.  1.
         12    1    6    6    0    0  0.10315470459E+03  0.31101938317E+02 -0.24838425081E+03  0.27074519330E+03  0.00000000000E+00 0. -1.
         -5    1    3    3    0  503  0.24958959818E+02 -0.59567599086E+02 -0.80337653703E+02  0.10318661318E+03  0.47000000000E+01 0.  1.
         13    1    4    4    0    0  0.11297901815E+01  0.22932450627E+02 -0.40929774243E+02  0.46929949257E+02  0.00000000000E+00 0. -1.
        -14    1    4    4    0    0 -0.10795441485E+03 -0.16568583797E+02 -0.15510993227E+03  0.18970441414E+03  0.00000000000E+00 0.  1.
</event>
<event>
12    1  0.8251070E-002  0.1760736E+03  0.7818608E-02  0.1172419E+00
         21   -1    0    0  503  502  0.00000000000E+00  0.00000000000E+00  0.59505293046E+02  0.59505293046E+02  0.00000000000E+00 0. -1.
         21   -1    0    0  501  503 -0.00000000000E+00 -0.00000000000E+00 -0.68024823800E+03  0.68024823800E+03  0.00000000000E+00 0. -1.
          6    2    1    2  501    0 -0.22383690858E+02 -0.14913833572E+02 -0.49630393565E+03  0.52661135008E+03  0.17400708447E+03 0.  0.
         24    2    3    3    0    0 -0.20224600859E+02  0.47025160973E+02 -0.17535927953E+03  0.19970362151E+03  0.80686177746E+02 0.  0.
         -6    2    1    2    0  502  0.22383690858E+02  0.14913833572E+02 -0.12443900931E+03  0.21314218096E+03  0.17094171586E+03 0.  0.
        -24    2    5    5    0    0  0.79305997308E+02  0.21036991586E+02 -0.90220626676E+02  0.14627941296E+03  0.80783098192E+02 0.  0.
          5    1    3    3  501    0 -0.21590899987E+01 -0.61938994545E+02 -0.32094465611E+03  0.32690772858E+03  0.47000000000E+01 0. -1.
        -11    1    4    4    0    0 -0.44024370311E+02  0.22163727864E+02 -0.52060608126E+02  0.71691582020E+02  0.00000000000E+00 0.  1.
         12    1    4    4    0    0  0.23799769452E+02  0.24861433109E+02 -0.12329867141E+03  0.12801203949E+03  0.00000000000E+00 0. -1.
         -5    1    5    5    0  502 -0.56922306450E+02 -0.61231580146E+01 -0.34218382630E+02  0.66862768006E+02  0.47000000000E+01 0.  1.
         11    1    6    6    0    0  0.36047669834E+02 -0.63330764344E+00  0.78729589594E+01  0.36902832707E+02  0.00000000000E+00 0. -1.
        -12    1    6    6    0    0  0.43258327473E+02  0.21670299230E+02 -0.98093585635E+02  0.10937658025E+03  0.00000000000E+00 0.  1.
</event>
<event>
12    1  0.8251070E-002  0.1924177E+03  0.7818608E-02  0.1156617E+00
         21   -1    0    0  503  502  0.00000000000E+00  0.00000000000E+00  0.66591083739E+03  0.66591083739E+03  0.00000000000E+00 0.  1.
         21   -1    0    0  501  503 -0.00000000000E+00 -0.00000000000E+00 -0.59926972731E+02  0.59926972731E+02  0.00000000000E+00 0. -1.
          6    2    1    2  501    0  0.45415533542E+02 -0.70147250067E+02  0.19988817174E+03  0.27646238015E+03  0.17173514217E+03 0.  0.
         24    2    3    3    0    0  0.57864386545E+02 -0.10944920669E+03  0.13645917486E+03  0.20066696221E+03  0.79490296536E+02 0.  0.
         -6    2    1    2    0  502 -0.45415533542E+02  0.70147250067E+02  0.40609569292E+03  0.44937542997E+03  0.17332442955E+03 0.  0.
        -24    2    5    5    0    0 -0.47442765488E+02  0.11479014919E+03  0.28448976377E+03  0.31973288250E+03  0.76596971947E+02 0.  0.
          5    1    3    3  501    0 -0.12448853003E+02  0.39301956622E+02  0.63428996875E+02  0.75795417935E+02  0.47000000000E+01 0. -1.
        -11    1    4    4    0    0 -0.10174906770E+01 -0.17279003905E+02  0.71267092749E+02  0.73338923991E+02  0.00000000000E+00 0.  1.
         12    1    4    4    0    0  0.58881877222E+02 -0.92170202785E+02  0.65192082114E+02  0.12732803822E+03  0.00000000000E+00 0. -1.
         -5    1    5    5    0  502  0.20272319460E+01 -0.44642899128E+02  0.12160592915E+03  0.12964254747E+03  0.47000000000E+01 0.  1.
         11    1    6    6    0    0 -0.66279524587E+02  0.74061046593E+02  0.17244181103E+03  0.19903314345E+03  0.00000000000E+00 0. -1.
        -12    1    6    6    0    0  0.18836759099E+02  0.40729102602E+02  0.11204795274E+03  0.12069973904E+03  0.00000000000E+00 0.  1.
</event>
<event>
12    1  0.8251070E-002  0.2052356E+03  0.7818608E-02  0.1145446E+00
         21   -1    0    0  501  502  0.00000000000E+00  0.00000000000E+00  0.75694036930E+02  0.75694036930E+02  0.00000000000E+00 0. -1.
         21   -1    0    0  502  503 -0.00000000000E+00 -0.00000000000E+00 -0.63219959842E+03  0.63219959842E+03  0.00000000000E+00 0.  1.
         -6    2    1    2    0  503 -0.10892990794E+03 -0.22075838597E+02 -0.40114848452E+03  0.45048833341E+03  0.17223984560E+03 0.  0.
        -24    2    3    3    0    0 -0.13447341942E+03  0.27572979480E+01 -0.25193235889E+03  0.29700641983E+03  0.81561000127E+02 0.  0.
          6    2    1    2  501    0  0.10892990794E+03  0.22075838597E+02 -0.15535707697E+03  0.25740530194E+03  0.17253579515E+03 0.  0.
         24    2    5    5    0    0  0.88115710075E+02  0.76190201766E+02 -0.13685474533E+03  0.19636415672E+03  0.79122282051E+02 0.  0.
          5    1    5    5  501    0  0.20814197868E+02 -0.54114363170E+02 -0.18502331641E+02  0.61041145224E+02  0.47000000000E+01 0. -1.
        -11    1    6    6    0    0  0.74165833725E+02  0.79829087220E+02 -0.73611882338E+02  0.13149890981E+03  0.00000000000E+00 0.  1.
         12    1    6    6    0    0  0.13949876350E+02 -0.36388854541E+01 -0.63242862995E+02  0.64865246915E+02  0.00000000000E+00 0. -1.
         -5    1    3    3    0  503  0.25543511472E+02 -0.24833136544E+02 -0.14921612563E+03  0.15348191358E+03  0.47000000000E+01 0.  1.
         13    1    4    4    0    0  0.29754768287E+01  0.16271331978E+02 -0.47460926263E+02  0.50260812055E+02  0.00000000000E+00 0. -1.
        -14    1    4    4    0    0 -0.13744889624E+03 -0.13514034030E+02 -0.20447143262E+03  0.24674560777E+03  0.00000000000E+00 0.  1.
</event>
<event>
12    1  0.8251070E-002  0.2042964E+03  0.7818608E-02  0.1146247E+00
         21   -1    0    0  501  502  0.00000000000E+00  0.00000000000E+00  0.15600855044E+03  0.15600855044E+03  0.00000000000E+00 0.  1.
         21   -1    0    0  502  503 -0.00000000000E+00 -0.00000000000E+00 -0.34455084065E+03  0.34455084065E+03  0.00000000000E+00 0.  1.
         -6    2    1    2    0  503 -0.37981123226E+02 -0.10624660402E+03 -0.21293683559E+03  0.29481166477E+03  0.16982613210E+03 0.  0.
        -24    2    3    3    0    0  0.25747827031E+01  0.97120196154E+01 -0.81077346922E+02  0.11453355003E+03  0.80271072421E+02 0.  0.
          6    2    1    2  501    0  0.37981123226E+02  0.10624660402E+03  0.24394545387E+02  0.20574772632E+03  0.17031185060E+03 0.  0.
         24    2    5    5    0    0  0.84807718669E+02  0.47669676701E+02  0.34470774316E+02  0.12993475352E+03  0.78930720690E+02 0.  0.
          5    1    5    5  501    0 -0.46826595443E+02  0.58576927322E+02 -0.10076228929E+02  0.75812972799E+02  0.47000000000E+01 0. -1.
        -13    1    6    6    0    0  0.82335680954E+01  0.29727026313E+02 -0.17692757995E+02  0.35560109990E+02  0.00000000000E+00 0.  1.
         14    1    6    6    0    0  0.76574150574E+02  0.17942650388E+02  0.52163532311E+02  0.94374643534E+02  0.00000000000E+00 0. -1.
         -5    1    3    3    0  503 -0.40555905929E+02 -0.11595862364E+03 -0.13185948867E+03  0.18027811474E+03  0.47000000000E+01 0.  1.
         13    1    4    4    0    0  0.38901910576E+02 -0.53826020686E+01 -0.54025781570E+02  0.66791587238E+02  0.00000000000E+00 0. -1.
        -14    1    4    4    0    0 -0.36327127873E+02  0.15094621684E+02 -0.27051565353E+02  0.47741962793E+02  0.00000000000E+00 0.  1.
</event>
<event>
12    1  0.8251070E-002  0.2092486E+03  0.7818608E-02  0.1142330E+00
         21   -1    0    0  503  502  0.00000000000E+00  0.00000000000E+00  0.35695444933E+02  0.35695444933E+02  0.00000000000E+00 0. -1.
         21   -1    0    0  501  503 -0.00000000000E+00 -0.00000000000E+00 -0.14618020078E+04  0.14618020078E+04  0.00000000000E+00 0.  1.
          6    2    1    2  501    0 -0.64711900848E+02  0.10229835187E+03 -0.10153077952E+04  0.10364761795E+04  0.16964777844E+03 0.  0.
         24    2    3    3    0    0 -0.10300077121E+03  0.54291331753E+02 -0.54320694644E+03  0.56037533620E+03  0.73416777284E+02 0.  0.
         -6    2    1    2    0  502  0.64711900848E+02 -0.10229835187E+03 -0.41079876769E+03  0.46102127328E+03  0.17068217239E+03 0.  0.
        -24    2    5    5    0    0 -0.63185715216E+01 -0.73548133236E+02 -0.33959231659E+03  0.35631047271E+03  0.78644511753E+02 0.  0.
          5    1    3    3  501    0  0.38288870358E+02  0.48007020113E+02 -0.47210084873E+03  0.47610084325E+03  0.47000000000E+01 0. -1.
        -13    1    4    4    0    0 -0.49167819396E+02  0.50122610451E+02 -0.42039899217E+03  0.42622184735E+03  0.00000000000E+00 0.  1.
         14    1    4    4    0    0 -0.53832951810E+02  0.41687213023E+01 -0.12280795427E+03  0.13415348885E+03  0.00000000000E+00 0. -1.
         -5    1    5    5    0  502  0.71030472370E+02 -0.28750218630E+02 -0.71206451101E+02  0.10471080056E+03  0.47000000000E+01 0.  1.
         11    1    6    6    0    0 -0.50315783171E+01  0.81005751063E+01 -0.30634581465E+01  0.10016030812E+02  0.00000000000E+00 0. -1.
        -12    1    6    6    0    0 -0.12869932045E+01 -0.81648708343E+02 -0.33652885845E+03  0.34629444190E+03  0.00000000000E+00 0.  1.
</event>
<event>
12    1  0.8251070E-002  0.1763892E+03  0.7818608E-02  0.1171989E+00
         21   -1    0    0  501  502  0.00000000000E+00  0.00000000000E+00  0.47307979421E+02  0.47307979421E+02  0.00000000000E+00 0.  1.
         21   -1    0    0  502  503 -0.00000000000E+00 -0.00000000000E+00 -0.13623535104E+04  0.13623535104E+04  0.00000000000E+00 0.  1.
         -6    2    1    2    0  503  0.35423072768E+02  0.75526436404E+01 -0.11655617881E+04  0.11784504953E+04  0.16999838646E+03 0.  0.
        -24    2    3    3    0    0 -0.16987468394E+02 -0.46426622414E+02 -0.76627909141E+03  0.77211395019E+03  0.80822650237E+02 0.  0.
          6    2    1    2  501    0 -0.35423072768E+02 -0.75526436404E+01 -0.14948374288E+03  0.23121099455E+03  0.17263052485E+03 0.  0.
         24    2    5    5    0    0  0.38994639318E+02 -0.24387505554E+02 -0.39330429305E+02  0.97131723456E+02  0.75976027203E+02 0.  0.
          5    1    5    5  501    0 -0.74417712086E+02  0.16834861914E+02 -0.11015331357E+03  0.13407927110E+03  0.47000000000E+01 0. -1.
        -13    1    6    6    0    0 -0.22836678408E+01  0.25132047487E+01  0.19842991917E+02  0.20131459588E+02  0.00000000000E+00 0.  1.
         14    1    6    6    0    0  0.41278307158E+02 -0.26900710303E+02 -0.59173421222E+02  0.77000263868E+02  0.00000000000E+00 0. -1.
         -5    1    3    3    0  503  0.52410541162E+02  0.53979266054E+02 -0.39928269674E+03  0.40633654512E+03  0.47000000000E+01 0.  1.
         11    1    4    4    0    0 -0.42795086501E+01 -0.13536907805E+02 -0.17633560911E+02  0.22638563064E+02  0.00000000000E+00 0. -1.
        -12    1    4    4    0    0 -0.12707959744E+02 -0.32889714608E+02 -0.74864553050E+03  0.74947538712E+03  0.00000000000E+00 0.  1.
</event>
<event>
12    1  0.8251070E-002  0.2582914E+03  0.7818608E-02  0.1108339E+00
         21   -1    0    0  501  502  0.00000000000E+00  0.00000000000E+00  0.29880896553E+03  0.29880896553E+03  0.00000000000E+00 0. -1.
         21   -1    0    0  502  503 -0.00000000000E+00 -0.00000000000E+00 -0.36652955897E+03  0.36652955897E+03  0.00000000000E+00 0. -1.
         -6    2    1    2    0  503  0.18324735991E+03 -0.53424341188E+02 -0.24256512413E+03  0.35433355057E+03  0.17401342037E+03 0.  0.
        -24    2    3    3    0    0  0.54155951273E+02 -0.18513293466E+02 -0.18071482920E+03  0.20691943313E+03  0.82958985176E+02 0.  0.
          6    2    1    2  501    0 -0.18324735991E+03  0.53424341188E+02  0.17484453070E+03  0.31100497393E+03  0.17239410881E+03 0.  0.
         24    2    5    5    0    0 -0.83111647649E+02  0.55208573048E+02  0.16804569001E+03  0.21051289172E+03  0.78235485158E+02 0.  0.
          5    1    5    5  501    0 -0.10013571226E+03 -0.17842318604E+01  0.67988406914E+01  0.10049208221E+03  0.47000000000E+01 0. -1.
        -11    1    6    6    0    0 -0.51591950356E+02  0.25007151547E+02  0.15451770264E+03  0.16481142982E+03  0.00000000000E+00 0.  1.
         12    1    6    6    0    0 -0.31519697293E+02  0.30201421501E+02  0.13527987374E+02  0.45701461908E+02  0.00000000000E+00 0. -1.
         -5    1    3    3    0  503  0.12909140863E+03 -0.34911047722E+02 -0.61850294933E+02  0.14741411743E+03  0.47000000000E+01 0.  1.
         11    1    4    4    0    0  0.74261147755E+02 -0.26010860164E+02 -0.15094406532E+03  0.17022160194E+03  0.00000000000E+00 0. -1.
        -12    1    4    4    0    0 -0.20105196483E+02  0.74975666981E+01 -0.29770763879E+02  0.36697831188E+02  0.00000000000E+00 0.  1.
</event>
<event>
12    1  0.8251070E-002  0.1911731E+03  0.7818608E-02  0.1157415E+00
         21   -1    0    0  503  502  0.00000000000E+00  0.00000000000E+00  0.51218590969E+02  0.51218590969E+02  0.00000000000E+00 0. -1.
         21   -1    0    0  501  503 -0.00000000000E+00 -0.00000000000E+00 -0.76367011407E+03  0.76367011407E+03  0.00000000000E+00 0. -1.
          6    2    1    2  501    0 -0.46474385308E+02  0.70400932427E+02 -0.46071122294E+03  0.49878692579E+03  0.17151503324E+03 0.  0.
         24    2    3    3    0    0 -0.58869699635E+02 -0.83982526670E+01 -0.33930302405E+03  0.35344252052E+03  0.79113216322E+02 0.  0.
         -6    2    1    2    0  502  0.46474385308E+02 -0.70400932427E+02 -0.25174030017E+03  0.31610177925E+03  0.17155464534E+03 0.  0.
        -24    2    5    5    0    0  0.64657138082E+02  0.59014549137E+01 -0.91858747358E+02  0.13795333625E+03  0.79860633870E+02 0.  0.
          5    1    3    3  501    0  0.12395314327E+02  0.78799185094E+02 -0.12140819888E+03  0.14534440527E+03  0.47000000000E+01 0. -1.
        -11    1    4    4    0    0 -0.15700360759E+02 -0.30151842694E+02 -0.52167333931E+02  0.62266087682E+02  0.00000000000E+00 0.  1.
         12    1    4    4    0    0 -0.43169338876E+02  0.21753590027E+02 -0.28713569012E+03  0.29117643284E+03  0.00000000000E+00 0. -1.
         -5    1    5    5    0  502 -0.18182752774E+02 -0.76302387341E+02 -0.15988155281E+03  0.17814844300E+03  0.47000000000E+01 0.  1.
         11    1    6    6    0    0  0.31918633986E+01 -0.22863383667E+02 -0.57346526509E+02  0.61818657437E+02  0.00000000000E+00 0. -1.
        -12    1    6    6    0    0  0.61465274684E+02  0.28764838581E+02 -0.34512220849E+02  0.76134678816E+02  0.00000000000E+00 0.  1.
</event>
<event>
12    1  0.8251070E-002  0.1871541E+03  0.7818608E-02  0.1161160E+00
         21   -1    0    0  501  502  0.00000000000E+00  0.00000000000E+00  0.98252927090E+02  0.98252927090E+02  0.00000000000E+00 0. -1.
         21   -1    0    0  502  503 -0.00000000000E+00 -0.00000000000E+00 -0.10186228565E+04  0.10186228565E+04  0.00000000000E+00 0. -1.
         -6    2    1    2    0  503  0.72500412082E+02  0.12135548931E+02 -0.91052030212E+03  0.92946267244E+03  0.17161019080E+03 0.  0.
        -24    2    3    3    0    0 -0.59537716490E+01 -0.37061383867E+02 -0.55920674242E+03  0.56611888982E+03  0.79808665374E+02 0.  0.
          6    2    1    2  501    0 -0.72500412082E+02 -0.12135548931E+02 -0.98496272448E+01  0.18741311111E+03  0.17211356064E+03 0.  0.
         24    2    5    5    0    0  0.37886225055E+00 -0.74664033697E+01  0.46382853214E+02  0.95123504941E+02  0.82711676347E+02 0.  0.
          5    1    5    5  501    0 -0.72879274333E+02 -0.46691455610E+01 -0.56232480458E+02  0.92289606165E+02  0.47000000000E+01 0. -1.
        -13    1    6    6    0    0  0.15321197539E+01 -0.57127939739E+01 -0.23995577755E+02  0.24713784771E+02  0.00000000000E+00 0.  1.
         14    1    6    6    0    0 -0.11532575033E+01 -0.17536093958E+01  0.70378430968E+02  0.70409720169E+02  0.00000000000E+00 0. -1.
         -5    1    3    3    0  503  0.78454183731E+02  0.49196932798E+02 -0.35131355970E+03  0.36334378263E+03  0.47000000000E+01 0.  1.
         13    1    4    4    0    0  0.16373195752E+02 -0.15572171491E+02 -0.39632513159E+02  0.45621378359E+02  0.00000000000E+00 0. -1.
        -14    1    4    4    0    0 -0.22326967401E+02 -0.21489212376E+02 -0.51957422926E+03  0.52049751146E+03  0.00000000000E+00 0.  1.
</event>
<event>
12    1  0.8251070E-002  0.2189555E+03  0.7818608E-02  0.1135068E+00
         21   -1    0    0  503  502  0.00000000000E+00  0.00000000000E+00  0.21883172528E+03  0.21883172528E+03  0.00000000000E+00 0.  1.
         21   -1    0    0  501  503 -0.00000000000E+00 -0.00000000000E+00 -0.42849311107E+03  0.42849311107E+03  0.00000000000E+00 0.  1.
          6    2    1    2  501    0  0.11815373605E+03 -0.58082892356E+02 -0.33251079499E+03  0.39812678313E+03  0.17495021844E+03 0.  0.
         24    2    3    3    0    0  0.25966247625E+02  0.29200211010E+02 -0.10150630809E+03  0.13449439490E+03  0.79109502202E+02 0.  0.
         -6    2    1    2    0  502 -0.11815373605E+03  0.58082892356E+02  0.12284940921E+03  0.24919805322E+03  0.17226074614E+03 0.  0.
        -24    2    5    5    0    0 -0.10870826649E+03  0.99514315709E+01  0.14187072610E+03  0.19637992273E+03  0.80754275026E+02 0.  0.
          5    1    3    3  501    0  0.92187488422E+02 -0.87283103366E+02 -0.23100448690E+03  0.26363238823E+03  0.47000000000E+01 0. -1.
        -11    1    4    4    0    0 -0.18218433035E+02 -0.79415509515E+01 -0.60524128274E+02  0.63703607724E+02  0.00000000000E+00 0.  1.
         12    1    4    4    0    0  0.44184680660E+02  0.37141761962E+02 -0.40982179821E+02  0.70790787180E+02  0.00000000000E+00 0. -1.
         -5    1    5    5    0  502 -0.94454695529E+01  0.48131460785E+02 -0.19021316889E+02  0.52818130491E+02  0.47000000000E+01 0.  1.
         11    1    6    6    0    0 -0.75193290376E+02 -0.22336958433E+02  0.48962583791E+02  0.92467860584E+02  0.00000000000E+00 0. -1.
        -12    1    6    6    0    0 -0.33514976118E+02  0.32288390004E+02  0.92908142306E+02  0.10391206215E+03  0.00000000000E+00 0.  1.
</event>
<event>
12    1  0.8251070E-002  0.1764738E+03  0.7818608E-02  0.1171850E+00
         21   -1    0    0  501  502  0.00000000000E+00  0.00000000000E+00  0.35222668249E+03  0.35222668249E+03  0.00000000000E+00 0. -1.
         21   -1    0    0  502  503 -0.00000000000E+00 -0.00000000000E+00 -0.14968106737E+03  0.14968106737E+03  0.00000000000E+00 0. -1.
         -6    2    1    2    0  503 -0.29411121840E+02 -0.23477323026E+02  0.26375324065E+03  0.31734646924E+03  0.17241464788E+03 0.  0.
        -24    2    3    3    0    0  0.48896013329E+02 -0.22568358875E+02  0.17036456012E+03  0.19537774667E+03  0.79045743774E+02 0.  0.
          6    2    1    2  501    0  0.29411121840E+02  0.23477323026E+02 -0.61207625526E+02  0.18456128062E+03  0.17000086499E+03 0.  0.
         24    2    5    5    0    0  0.40820055611E+02 -0.45676147597E+02 -0.75041968365E+01  0.96138916242E+02  0.73714251313E+02 0.  0.
          5    1    5    5  501    0 -0.11408933771E+02  0.69153470623E+02 -0.53703428689E+02  0.88422364377E+02  0.47000000000E+01 0. -1.
        -13    1    6    6    0    0  0.16713394957E+02 -0.22527848573E+02  0.33205473544E+02  0.43467746727E+02  0.00000000000E+00 0.  1.
         14    1    6    6    0    0  0.24106660654E+02 -0.23148299024E+02 -0.40709670380E+02  0.52671169515E+02  0.00000000000E+00 0. -1.
         -5    1    3    3    0  503 -0.78307135169E+02 -0.90896415126E+00  0.93388680530E+02  0.12196872257E+03  0.47000000000E+01 0.  1.
         13    1    4    4    0    0  0.61015435169E+02  0.53690704121E+01  0.85198790625E+02  0.10493114013E+03  0.00000000000E+00 0. -1.
        -14    1    4    4    0    0 -0.12119421840E+02 -0.27937429287E+02  0.85165769493E+02  0.90446606538E+02  0.00000000000E+00 0.  1.
</event>
<event>
12    1  0.8251070E-002  0.1820624E+03  0.7818608E-02  0.1166515E+00
         21   -1    0    0  501  502  0.00000000000E+00  0.00000000000E+00  0.28918344587E+03  0.28918344587E+03  0.00000000000E+00 0. -1.
         21   -1    0    0  502  503 -0.00000000000E+00 -0.00000000000E+00 -0.25423862844E+03  0.25423862844E+03  0.00000000000E+00 0. -1.
         -6    2    1    2    0  503 -0.17469457748E+02  0.57139522553E+02 -0.18511353695E+03  0.25964158829E+03  0.17197856208E+03 0.  0.
        -24    2    3    3    0    0 -0.42887271918E+02 -0.22072763818E+02 -0.52666668929E+02  0.10316502634E+03  0.74449443577E+02 0.  0.
          6    2    1    2  501    0  0.17469457748E+02 -0.57139522553E+02  0.22005835438E+03  0.28378048602E+03  0.16892477000E+03 0.  0.
         24    2    5    5    0    0  0.67190419582E+02 -0.20385031665E+01  0.11589464235E+03  0.15579429423E+03  0.79508402145E+02 0.  0.
          5    1    5    5  501    0 -0.49720961833E+02 -0.55101019386E+02  0.10416371203E+03  0.12798619179E+03  0.47000000000E+01 0. -1.
        -13    1    6    6    0    0  0.12371911134E+02  0.11571419920E+02 -0.86643685422E+01  0.19027170738E+02  0.00000000000E+00 0.  1.
         14    1    6    6    0    0  0.54818508448E+02 -0.13609923086E+02  0.12455901089E+03  0.13676712350E+03  0.00000000000E+00 0. -1.
         -5    1    3    3    0  503  0.25417814170E+02  0.79212286371E+02 -0.13244686803E+03  0.15647656195E+03  0.47000000000E+01 0.  1.
         11    1    4    4    0    0 -0.70162925490E+01 -0.15948737802E+02 -0.62976789359E+02  0.65342685869E+02  0.00000000000E+00 0. -1.
        -12    1    4    4    0    0 -0.35870979369E+02 -0.61240260162E+01  0.10310120431E+02  0.37822340473E+02  0.00000000000E+00 0.  1.
</event>
<event>
12    1  0.8251070E-002  0.3163145E+03  0.7818608E-02  0.1077412E+00
         21   -1    0    0  501  502  0.00000000000E+00  0.00000000000E+00  0.38944497527E+03  0.38944497527E+03  0.00000000000E+00 0. -1.
         21   -1    0    0  502  503 -0.00000000000E+00 -0.00000000000E+00 -0.27560949387E+03  0.27560949387E+03  0.00000000000E+00 0.  1.
         -6    2    1    2    0  503 -0.16399123833E+03 -0.20873490183E+03  0.14434895882E+03  0.34727159807E+03  0.17116528687E+03 0.  0.
        -24    2    3    3    0    0 -0.18865543053E+03 -0.16844182769E+03  0.10440159612E+03  0.28522535737E+03  0.80562338770E+02 0.  0.
          6    2    1    2  501    0  0.16399123833E+03  0.20873490183E+03 -0.30513477424E+02  0.31778287107E+03  0.17202178743E+03 0.  0.
         24    2    5    5    0    0  0.10564827396E+03  0.21279948840E+03 -0.40846689815E+02  0.25820697298E+03  0.92505182400E+02 0.  0.
          5    1    5    5  501    0  0.58342964364E+02 -0.40645865744E+01  0.10333212391E+02  0.59575898089E+02  0.47000000000E+01 0. -1.
        -11    1    6    6    0    0 -0.15050890108E+02  0.86827065868E+01 -0.67251966349E+01  0.18631880111E+02  0.00000000000E+00 0.  1.
         12    1    6    6    0    0  0.12069916407E+03  0.20411678181E+03 -0.34121493180E+02  0.23957509287E+03  0.00000000000E+00 0. -1.
         -5    1    3    3    0  503  0.24664192200E+02 -0.40293074134E+02  0.39947362692E+02  0.62046240709E+02  0.47000000000E+01 0.  1.
         13    1    4    4    0    0 -0.68649924659E+02 -0.11245407742E+03  0.65923717854E+02  0.14732504288E+03  0.00000000000E+00 0. -1.
        -14    1    4    4    0    0 -0.12000550587E+03 -0.55987750270E+02  0.38477878269E+02  0.13790031448E+03  0.00000000000E+00 0.  1.
</event>
<event>
12    1  0.8251070E-002  0.2074825E+03  0.7818608E-02  0.1143756E+00
         21   -1    0    0  501  502  0.00000000000E+00  0.00000000000E+00  0.87031913786E+02  0.87031913786E+02  0.00000000000E+00 0.  1.
         21   -1    0    0  502  503 -0.00000000000E+00 -0.00000000000E+00 -0.65545930624E+03  0.65545930624E+03  0.00000000000E+00 0. -1.
         -6    2    1    2    0  503 -0.10447074607E+03  0.47570725262E+02 -0.46978825183E+03  0.51356593713E+03  0.17283477528E+03 0.  0.
        -24    2    3    3    0    0 -0.91637320604E+01  0.29686256229E+02 -0.34200550756E+03  0.35308602909E+03  0.82077578837E+02 0.  0.
          6    2    1    2  501    0  0.10447074607E+03 -0.47570725262E+02 -0.98639140627E+02  0.22892528289E+03  0.17175562406E+03 0.  0.
         24    2    5    5    0    0  0.12194510695E+02  0.11935745273E+02 -0.84492969407E+02  0.11811856914E+03  0.80757454091E+02 0.  0.
          5    1    5    5  501    0  0.92276235375E+02 -0.59506470535E+02 -0.14146171220E+02  0.11080671374E+03  0.47000000000E+01 0. -1.
        -13    1    6    6    0    0 -0.15126715237E+02  0.24107606710E+02  0.29107650641E-01  0.28460412196E+02  0.00000000000E+00 0.  1.
         14    1    6    6    0    0  0.27321225932E+02 -0.12171861437E+02 -0.84522077057E+02  0.89658156948E+02  0.00000000000E+00 0. -1.
         -5    1    3    3    0  503 -0.95307014010E+02  0.17884469034E+02 -0.12778274427E+03  0.16047990804E+03  0.47000000000E+01 0.  1.
         11    1    4    4    0    0  0.16317911862E+02  0.45290041185E+02 -0.12356367068E+03  0.13261011572E+03  0.00000000000E+00 0. -1.
        -12    1    4    4    0    0 -0.25481643923E+02 -0.15603784956E+02 -0.21844183687E+03  0.22047591338E+03  0.00000000000E+00 0.  1.
</event>
<event>
12    1  0.8251070E-002  0.3082867E+03  0.7818608E-02  0.1081347E+00
         21   -1    0    0  503  502  0.00000000000E+00  0.00000000000E+00  0.46973931939E+03  0.46973931939E+03  0.00000000000E+00 0.  1.
         21   -1    0    0  501  503 -0.00000000000E+00 -0.00000000000E+00 -0.47776178327E+03  0.47776178327E+03  0.00000000000E+00 0.  1.
          6    2    1    2  501    0  0.22940336648E+03 -0.11001975012E+03 -0.36435230122E+03  0.47727698387E+03  0.17409902342E+03 0.  0.
         24    2    3    3    0    0  0.44952920126E+02 -0.70130136662E+02 -0.13027725401E+03  0.17656721324E+03  0.85233894571E+02 0.  0.
         -6    2    1    2    0  502 -0.22940336648E+03  0.11001975012E+03  0.35632983734E+03  0.47022411879E+03  0.17149203754E+03 0.  0.
        -24    2    5    5    0    0 -0.21151589731E+03  0.43265108074E+02  0.22597705085E+03  0.32260947611E+03  0.80002513530E+02 0.  0.
          5    1    3    3  501    0  0.18445044636E+03 -0.39889613454E+02 -0.23407504721E+03  0.30070977063E+03  0.47000000000E+01 0. -1.
        -11    1    4    4    0    0  0.44184738770E+02 -0.89424194679E+02 -0.10606152861E+03  0.14559541746E+03  0.00000000000E+00 0.  1.
         12    1    4    4    0    0  0.76818135664E+00  0.19294058017E+02 -0.24215725403E+02  0.30971795785E+02  0.00000000000E+00 0. -1.
         -5    1    5    5    0  502 -0.17887469172E+02  0.66754642042E+02  0.13035278649E+03  0.14761464268E+03  0.47000000000E+01 0.  1.
         13    1    6    6    0    0 -0.13860919688E+03  0.29700082496E+01  0.97506330334E+02  0.16949576651E+03  0.00000000000E+00 0. -1.
        -14    1    6    6    0    0 -0.72906700433E+02  0.40295099825E+02  0.12847072052E+03  0.15311370960E+03  0.00000000000E+00 0.  1.
</event>
<event>
12    1  0.8251070E-002  0.2180507E+03  0.7818608E-02  0.1135664E+00
         21   -1    0    0  503  502  0.00000000000E+00  0.00000000000E+00  0.16155139805E+03  0.16155139805E+03  0.00000000000E+00 0. -1.
         21   -1    0    0  501  503 -0.00000000000E+00 -0.00000000000E+00 -0.39142656942E+03  0.39142656942E+03  0.00000000000E+00 0. -1.
          6    2    1    2  501    0  0.12160811005E+02 -0.12987915414E+03 -0.25392634349E+03  0.33360485953E+03  0.17261846476E+03 0.  0.
         24    2    3    3    0    0  0.67523011516E+02 -0.90485915505E+02 -0.20671375383E+03  0.25073195009E+03  0.85958575995E+02 0.  0.
         -6    2    1    2    0  502 -0.12160811005E+02  0.12987915414E+03  0.24051172129E+02  0.21937310794E+03  0.17472727778E+03 0.  0.
        -24    2    5    5    0    0 -0.29849839401E+01  0.11555983737E+03  0.79764608598E+02  0.16093240604E+03  0.78573916705E+02 0.  0.
          5    1    3    3  501    0 -0.55362200511E+02 -0.39393238637E+02 -0.47212589667E+02  0.82872909439E+02  0.47000000000E+01 0. -1.
        -11    1    4    4    0    0  0.43062059072E+02 -0.34695691250E+01 -0.11086678415E+03  0.11898664912E+03  0.00000000000E+00 0.  1.
         12    1    4    4    0    0  0.24460952444E+02 -0.87016346380E+02 -0.95846969678E+02  0.13174530097E+03  0.00000000000E+00 0. -1.
         -5    1    5    5    0  502 -0.91758270654E+01  0.14319316775E+02 -0.55713436469E+02  0.58440701899E+02  0.47000000000E+01 0.  1.
         11    1    6    6    0    0  0.28366693374E+02  0.98802491849E+02  0.68942135615E+02  0.12377245151E+03  0.00000000000E+00 0. -1.
        -12    1    6    6    0    0 -0.31351677314E+02  0.16757345518E+02  0.10822472984E+02  0.37159954530E+02  0.00000000000E+00 0.  1.
</event>
<event>
12    1  0.8251070E-002  0.2066255E+03  0.7818608E-02  0.1144477E+00
         21   -1    0    0  501  502  0.00000000000E+00  0.00000000000E+00  0.17913530902E+03  0.17913530902E+03  0.00000000000E+00 0. -1.
         21   -1    0    0  502  503 -0.00000000000E+00 -0.00000000000E+00 -0.76548415023E+03  0.76548415023E+03  0.00000000000E+00 0. -1.
         -6    2    1    2    0  503 -0.49555034853E+02 -0.10265312284E+03 -0.68579297808E+03  0.71624443685E+03  0.17233896663E+03 0.  0.
        -24    2    3    3    0    0  0.24294144840E+02 -0.66076127187E+02 -0.23260836548E+03  0.25560362119E+03  0.79185222202E+02 0.  0.
          6    2    1    2  501    0  0.49555034853E+02  0.10265312284E+03  0.99444136883E+02  0.22837502240E+03  0.17109251704E+03 0.  0.
         24    2    5    5    0    0  0.99271505171E+02  0.62110700588E+02  0.58948113280E+02  0.15236559305E+03  0.77639056018E+02 0.  0.
          5    1    5    5  501    0 -0.49716470317E+02  0.40542422251E+02  0.40496023604E+02  0.76009429352E+02  0.47000000000E+01 0. -1.
        -11    1    6    6    0    0  0.77426439812E+01  0.34476661060E+02 -0.72553553214E+01  0.36072550152E+02  0.00000000000E+00 0.  1.
         12    1    6    6    0    0  0.91528861189E+02  0.27634039528E+02  0.66203468601E+02  0.11629304290E+03  0.00000000000E+00 0. -1.
         -5    1    3    3    0  503 -0.73849179693E+02 -0.36576995651E+02 -0.45318461260E+03  0.46064081566E+03  0.47000000000E+01 0.  1.
         13    1    4    4    0    0 -0.92703332707E+01 -0.42315435965E+02 -0.19540418764E+03  0.20014827440E+03  0.00000000000E+00 0. -1.
        -14    1    4    4    0    0  0.33564478111E+02 -0.23760691223E+02 -0.37204177846E+02  0.55455346788E+02  0.00000000000E+00 0.  1.
</event>
<event>
12    1  0.8251070E-002  0.2289830E+03  0.7818608E-02  0.1127421E+00
         21   -1    0    0  503  502  0.00000000000E+00  0.00000000000E+00  0.42593391096E+03  0.42593391096E+03  0.00000000000E+00 0. -1.
         21   -1    0    0  501  503 -0.00000000000E+00 -0.00000000000E+00 -0.14622372530E+03  0.14622372530E+03  0.00000000000E+00 0.  1.
          6    2    1    2  501    0 -0.13635894239E+03 -0.63620580616E+02  0.25713924549E+02  0.23042225961E+03  0.17260322234E+03 0.  0.
         24    2    3    3    0    0 -0.12775813811E+03 -0.68385322465E+02  0.73785829946E+02  0.18113052920E+03  0.79782364738E+02 0.  0.
         -6    2    1    2    0  502  0.13635894239E+03  0.63620580616E+02  0.25399626111E+03  0.34173537664E+03  0.17212677754E+03 0.  0.
        -24    2    5    5    0    0  0.87670581388E+02 -0.30692703771E+02  0.14017887732E+03  0.18603682508E+03  0.79570156030E+02 0.  0.
          5    1    3    3  501    0 -0.86008042782E+01  0.47647418491E+01 -0.48071905397E+02  0.49291730418E+02  0.47000000000E+01 0. -1.
        -11    1    4    4    0    0 -0.21924821109E+02 -0.43837962922E+02 -0.13560916039E+01  0.49033700230E+02  0.00000000000E+00 0.  1.
         12    1    4    4    0    0 -0.10583331700E+03 -0.24547359543E+02  0.75141921550E+02  0.13209682897E+03  0.00000000000E+00 0. -1.
         -5    1    5    5    0  502  0.48688361003E+02  0.94313284387E+02  0.11381738378E+03  0.15569855157E+03  0.47000000000E+01 0.  1.
         11    1    6    6    0    0  0.32290957197E+02 -0.10440512072E+02  0.11841499744E+03  0.12318206780E+03  0.00000000000E+00 0. -1.
        -12    1    6    6    0    0  0.55379624191E+02 -0.20252191699E+02  0.21763879881E+02  0.62854757271E+02  0.00000000000E+00 0.  1.
</event>
<event>
12    1  0.8251070E-002  0.1889050E+03  0.7818608E-02  0.1159495E+00
         21   -1    0    0  503  502  0.00000000000E+00  0.00000000000E+00  0.10371514699E+03  0.10371514699E+03  0.00000000000E+00 0.  1.
         21   -1    0    0  501  503 -0.00000000000E+00 -0.00000000000E+00 -0.40188846790E+03  0.40188846790E+03  0.00000000000E+00 0.  1.
          6    2    1    2  501    0 -0.78159588203E+02  0.22759225851E+01 -0.24519457292E+03  0.30941022056E+03  0.17175623699E+03 0.  0.
         24    2    3    3    0    0  0.13370980297E+02 -0.25904722666E+02 -0.55360135216E+02  0.96733946668E+02  0.73775836805E+02 0.  0.
         -6    2    1    2    0  502  0.78159588203E+02 -0.22759225851E+01 -0.52978747991E+02  0.19619339433E+03  0.17196220279E+03 0.  0.
        -24    2    5    5    0    0  0.36521023181E+01  0.36411537064E+02  0.14084514656E+02  0.88640355400E+02  0.79495919201E+02 0.  0.
          5    1    3    3  501    0 -0.91530568501E+02  0.28180645251E+02 -0.18983443771E+03  0.21267627389E+03  0.47000000000E+01 0. -1.
        -13    1    4    4    0    0 -0.10717433226E+02 -0.31072794517E+02  0.33741542828E+01  0.33041895393E+02  0.00000000000E+00 0.  1.
         14    1    4    4    0    0  0.24088413523E+02  0.51680718503E+01 -0.58734289499E+02  0.63692051275E+02  0.00000000000E+00 0. -1.
         -5    1    5    5    0  502  0.74507485885E+02 -0.38687459649E+02 -0.67063262647E+02  0.10755303893E+03  0.47000000000E+01 0.  1.
         13    1    6    6    0    0  0.80113674226E+01 -0.22272329437E+02 -0.91466038005E+01  0.25375165568E+02  0.00000000000E+00 0. -1.
        -14    1    6    6    0    0 -0.43592651045E+01  0.58683866501E+02  0.23231118456E+02  0.63265189832E+02  0.00000000000E+00 0.  1.
</event>
<event>
12    1  0.8251070E-002  0.2417259E+03  0.7818608E-02  0.1118820E+00
         21   -1    0    0  503  502  0.00000000000E+00  0.00000000000E+00  0.10320712237E+04  0.10320712237E+04  0.00000000000E+00 0.  1.
         21   -1    0    0  501  503 -0.00000000000E+00 -0.00000000000E+00 -0.64638502497E+02  0.64638502497E+02  0.00000000000E+00 0. -1.
          6    2    1    2  501    0  0.65397982364E+02 -0.15532753826E+03  0.67889475966E+03  0.72029829123E+03  0.17183711301E+03 0.  0.
         24    2    3    3    0    0  0.46397015849E+02 -0.14099948162E+03  0.67499085151E+03  0.69572878911E+03  0.79952244908E+02 0.  0.
         -6    2    1    2    0  502 -0.65397982364E+02  0.15532753826E+03  0.28853796155E+03  0.37641143498E+03  0.17328552418E+03 0.  0.
        -24    2    5    5    0    0 -0.41882287342E+02  0.56265402241E+02  0.52557044814E+02  0.11936012149E+03  0.81022676825E+02 0.  0.
          5    1    3    3  501    0  0.19000966515E+02 -0.14328056639E+02  0.39039081482E+01  0.24569502120E+02  0.47000000000E+01 0. -1.
        -13    1    4    4    0    0 -0.77466343051E+01 -0.14025112798E+01  0.13884499787E+03  0.13906800787E+03  0.00000000000E+00 0.  1.
         14    1    4    4    0    0  0.54143650154E+02 -0.13959697034E+03  0.53614585365E+03  0.55666078123E+03  0.00000000000E+00 0. -1.
         -5    1    5    5    0  502 -0.23515695022E+02  0.99062136017E+02  0.23598091673E+03  0.25705131349E+03  0.47000000000E+01 0.  1.
         13    1    6    6    0    0 -0.14664165369E+02  0.66918772683E+02  0.57839248086E+02  0.89657897045E+02  0.00000000000E+00 0. -1.
        -14    1    6    6    0    0 -0.27218121973E+02 -0.10653370441E+02 -0.52822032719E+01  0.29702224444E+02  0.00000000000E+00 0.  1.
</event>
<event>
12    1  0.8251070E-002  0.1833854E+03  0.7818608E-02  0.1164592E+00
         21   -1    0    0  503  502  0.00000000000E+00  0.00000000000E+00  0.57057120981E+03  0.57057120981E+03  0.00000000000E+00 0. -1.
         21   -1    0    0  501  503 -0.00000000000E+00 -0.00000000000E+00 -0.10089171230E+03  0.10089171230E+03  0.00000000000E+00 0. -1.
          6    2    1    2  501    0  0.59975731447E+02 -0.19356409373E+02  0.18222028187E+02  0.18418061911E+03  0.17210084020E+03 0.  0.
         24    2    3    3    0    0  0.29697615809E+01 -0.68546133453E+02  0.23251768337E+02  0.10857177147E+03  0.80868986234E+02 0.  0.
         -6    2    1    2    0  502 -0.59975731447E+02  0.19356409373E+02  0.45145746933E+03  0.48728230300E+03  0.17221625142E+03 0.  0.
        -24    2    5    5    0    0  0.75484894041E+01 -0.26534638173E+02  0.33414111779E+03  0.34427627170E+03  0.78197173531E+02 0.  0.
          5    1    3    3  501    0  0.57005969866E+02  0.49189724080E+02 -0.50297401501E+01  0.75608847640E+02  0.47000000000E+01 0. -1.
        -13    1    4    4    0    0 -0.33317957418E+02 -0.59924517517E+02  0.11937088495E+02  0.69595460828E+02  0.00000000000E+00 0.  1.
         14    1    4    4    0    0  0.36287718999E+02 -0.86216159366E+01  0.11314679842E+02  0.38976310644E+02  0.00000000000E+00 0. -1.
         -5    1    5    5    0  502 -0.67524220851E+02  0.45891047547E+02  0.11731635154E+03  0.14300603129E+03  0.47000000000E+01 0.  1.
         13    1    6    6    0    0 -0.21434805373E+02  0.19170877405E+02  0.11070417926E+03  0.11437827035E+03  0.00000000000E+00 0. -1.
        -14    1    6    6    0    0  0.28983294777E+02 -0.45705515578E+02  0.22343693852E+03  0.22989800135E+03  0.00000000000E+00 0.  1.
</event>
<event>
12    1  0.8251070E-002  0.2451571E+03  0.7818608E-02  0.1116470E+00
         21   -1    0    0  503  502  0.00000000000E+00  0.00000000000E+00  0.23856865100E+03  0.23856865100E+03  0.00000000000E+00 0. -1.
         21   -1    0    0  501  503 -0.00000000000E+00 -0.00000000000E+00 -0.25961729050E+03  0.25961729050E+03  0.00000000000E+00 0. -1.
          6    2    1    2  501    0  0.11216631435E+03 -0.13331738582E+03  0.33507514967E+02  0.24703189653E+03  0.17189298098E+03 0.  0.
         24    2    3    3    0    0  0.10457992886E+03 -0.33834299808E+02  0.52304851344E+02  0.14539594078E+03  0.79513902915E+02 0.  0.
         -6    2    1    2    0  502 -0.11216631435E+03  0.13331738582E+03 -0.54556154465E+02  0.25115404496E+03  0.17247368748E+03 0.  0.
        -24    2    5    5    0    0 -0.96307871419E+02  0.17286343420E+02 -0.18311562135E+02  0.12847375524E+03  0.81216800670E+02 0.  0.
          5    1    3    3  501    0  0.75863854842E+01 -0.99483086013E+02 -0.18797336377E+02  0.10163595575E+03  0.47000000000E+01 0. -1.
        -13    1    4    4    0    0  0.20430570705E+02 -0.45518911198E+02  0.11763130104E+02  0.51261591137E+02  0.00000000000E+00 0.  1.
         14    1    4    4    0    0  0.84149358157E+02  0.11684611391E+02  0.40541721240E+02  0.94134349643E+02  0.00000000000E+00 0. -1.
         -5    1    5    5    0  502 -0.15858442926E+02  0.11603104240E+03 -0.36244592330E+02  0.12268028972E+03  0.47000000000E+01 0.  1.
         13    1    6    6    0    0 -0.10881522193E+03  0.26044905470E+02 -0.15772519521E+02  0.11299496448E+03  0.00000000000E+00 0. -1.
        -14    1    6    6    0    0  0.12507350513E+02 -0.87585620498E+01 -0.25390426143E+01  0.15478790761E+02  0.00000000000E+00 0.  1.
</event>
<event>
12    1  0.8251070E-002  0.2822836E+03  0.7818608E-02  0.1094480E+00
         21   -1    0    0  501  502  0.00000000000E+00  0.00000000000E+00  0.43952410051E+02  0.43952410051E+02  0.00000000000E+00 0.  1.
         21   -1    0    0  502  503 -0.00000000000E+00 -0.00000000000E+00 -0.18117691779E+04  0.18117691779E+04  0.00000000000E+00 0. -1.
         -6    2    1    2    0  503 -0.81360481091E+02  0.20969058101E+03 -0.89570099636E+03  0.93905918855E+03  0.17018289303E+03 0.  0.
        -24    2    3    3    0    0 -0.15130765246E+02  0.19638208724E+03 -0.71545081534E+03  0.74650865226E+03  0.81304578533E+02 0.  0.
          6    2    1    2  501    0  0.81360481091E+02 -0.20969058101E+03 -0.87211577152E+03  0.91666239943E+03  0.17057071244E+03 0.  0.
         24    2    5    5    0    0 -0.55985766114E+01 -0.37577970306E+02 -0.26045402303E+03  0.27530694958E+03  0.80710411120E+02 0.  0.
          5    1    5    5  501    0  0.86959057702E+02 -0.17211261070E+03 -0.61166174849E+03  0.64135544985E+03  0.47000000000E+01 0. -1.
        -13    1    6    6    0    0  0.15832556140E+02 -0.57089118827E+02 -0.15478551160E+03  0.16573591018E+03  0.00000000000E+00 0.  1.
         14    1    6    6    0    0 -0.21431132751E+02  0.19511148520E+02 -0.10566851143E+03  0.10957103940E+03  0.00000000000E+00 0. -1.
         -5    1    3    3    0  503 -0.66229715845E+02  0.13308493769E+02 -0.18025018102E+03  0.19255053629E+03  0.47000000000E+01 0.  1.
         11    1    4    4    0    0  0.15235163242E+02  0.30878523964E+02 -0.54423584820E+02  0.64401242425E+02  0.00000000000E+00 0. -1.
        -12    1    4    4    0    0 -0.30365928489E+02  0.16550356328E+03 -0.66102723052E+03  0.68210740984E+03  0.00000000000E+00 0.  1.
</event>
<event>
12    1  0.8251070E-002  0.1749474E+03  0.7818608E-02  0.1172915E+00
         21   -1    0    0  501  502  0.00000000000E+00  0.00000000000E+00  0.11818723337E+03  0.11818723337E+03  0.00000000000E+00 0.  1.
         21   -1    0    0  502  503 -0.00000000000E+00 -0.00000000000E+00 -0.31139194148E+03  0.31139194148E+03  0.00000000000E+00 0.  1.
         -6    2    1    2    0  503 -0.33237823891E+02 -0.11252385504E+02 -0.18525854797E+03  0.25445140336E+03  0.17086081458E+03 0.  0.
        -24    2    3    3    0    0  0.45233779638E+02  0.13253294128E+02 -0.81702839999E+02  0.12214798108E+03  0.77608186368E+02 0.  0.
          6    2    1    2  501    0  0.33237823891E+02  0.11252385504E+02 -0.79461601344E+01  0.17512777149E+03  0.17139202365E+03 0.  0.
         24    2    5    5    0    0  0.12147393390E+02  0.58653951912E+02  0.37148472870E+02  0.10622689571E+03  0.79475147660E+02 0.  0.
          5    1    5    5  501    0  0.21090430501E+02 -0.47401566408E+02 -0.45094633005E+02  0.68900875774E+02  0.47000000000E+01 0. -1.
        -13    1    6    6    0    0  0.24470861239E+02  0.38836338165E+02 -0.15652797574E+02  0.48498394652E+02  0.00000000000E+00 0.  1.
         14    1    6    6    0    0 -0.12323467849E+02  0.19817613747E+02  0.52801270445E+02  0.57728501063E+02  0.00000000000E+00 0. -1.
         -5    1    3    3    0  503 -0.78471603528E+02 -0.24505679632E+02 -0.10355570797E+03  0.13230342229E+03  0.47000000000E+01 0.  1.
         13    1    4    4    0    0 -0.17636822211E+02  0.12178045471E+02 -0.43708962232E+02  0.48680957968E+02  0.00000000000E+00 0. -1.
        -14    1    4    4    0    0  0.62870601849E+02  0.10752486566E+01 -0.37993877766E+02  0.73467023107E+02  0.00000000000E+00 0.  1.
</event>
<event>
12    1  0.8251070E-002  0.1788559E+03  0.7818608E-02  0.1168989E+00
         21   -1    0    0  503  502  0.00000000000E+00  0.00000000000E+00  0.20150255196E+03  0.20150255196E+03  0.00000000000E+00 0. -1.
         21   -1    0    0  501  503 -0.00000000000E+00 -0.00000000000E+00 -0.21594100764E+03  0.21594100764E+03  0.00000000000E+00 0. -1.
          6    2    1    2  501    0  0.26948372618E+02 -0.41023690199E+02 -0.11487876704E+03  0.21231511900E+03  0.17167242264E+03 0.  0.
         24    2    3    3    0    0 -0.41794842014E+02 -0.57615535135E+02 -0.65941411926E+02  0.12618804078E+03  0.80677091683E+02 0.  0.
         -6    2    1    2    0  502 -0.26948372618E+02  0.41023690199E+02  0.10044031137E+03  0.20512844060E+03  0.17198913643E+03 0.  0.
        -24    2    5    5    0    0 -0.37710447904E+02  0.71899181815E+02  0.17700040396E+02  0.11603769648E+03  0.80993119132E+02 0.  0.
          5    1    3    3  501    0  0.68743214631E+02  0.16591844936E+02 -0.48937355118E+02  0.86127078217E+02  0.47000000000E+01 0. -1.
        -11    1    4    4    0    0 -0.19062406814E+01  0.18203840985E+02 -0.25659338950E+02  0.31518490692E+02  0.00000000000E+00 0.  1.
         12    1    4    4    0    0 -0.39888601332E+02 -0.75819376120E+02 -0.40282072976E+02  0.94669550093E+02  0.00000000000E+00 0. -1.
         -5    1    5    5    0  502  0.10762075286E+02 -0.30875491616E+02  0.82740270976E+02  0.89090744121E+02  0.47000000000E+01 0.  1.
         13    1    6    6    0    0 -0.30148716421E+02  0.33008725397E+02  0.48421979625E+02  0.65903028496E+02  0.00000000000E+00 0. -1.
        -14    1    6    6    0    0 -0.75617314832E+01  0.38890456418E+02 -0.30721939229E+02  0.50134667980E+02  0.00000000000E+00 0.  1.
</event>
<event>
12    1  0.8251070E-002  0.3111977E+03  0.7818608E-02  0.1079860E+00
         21   -1    0    0  501  502  0.00000000000E+00  0.00000000000E+00  0.37579024163E+03  0.37579024163E+03  0.00000000000E+00 0.  1.
         21   -1    0    0  502  503 -0.00000000000E+00 -0.00000000000E+00 -0.26087918865E+03  0.26087918865E+03  0.00000000000E+00 0.  1.
         -6    2    1    2    0  503  0.28325876553E+02 -0.25650172651E+03  0.19094960631E+02  0.31105506065E+03  0.17261269435E+03 0.  0.
        -24    2    3    3    0    0  0.16679571785E+02 -0.76507236973E+02 -0.44176562110E+02  0.11985090728E+03  0.79253428386E+02 0.  0.
          6    2    1    2  501    0 -0.28325876553E+02  0.25650172651E+03  0.95816092347E+02  0.32561436962E+03  0.17392096816E+03 0.  0.
         24    2    5    5    0    0 -0.74033496299E+02  0.23721815066E+03  0.81396302962E+02  0.27373891178E+03  0.80958162705E+02 0.  0.
          5    1    5    5  501    0  0.45707619745E+02  0.19283575845E+02  0.14419789385E+02  0.51875457839E+02  0.47000000000E+01 0. -1.
        -13    1    6    6    0    0  0.99593394960E+01  0.40030585952E+02  0.35782734123E+02  0.54608060909E+02  0.00000000000E+00 0.  1.
         14    1    6    6    0    0 -0.83992835795E+02  0.19718756471E+03  0.45613568839E+02  0.21913085087E+03  0.00000000000E+00 0. -1.
         -5    1    3    3    0  503  0.11646304768E+02 -0.17999448954E+03  0.63271522740E+02  0.19120415338E+03  0.47000000000E+01 0.  1.
         11    1    4    4    0    0  0.44643155026E+02 -0.23181430182E+02 -0.12583863254E+02  0.51853096439E+02  0.00000000000E+00 0. -1.
        -12    1    4    4    0    0 -0.27963583241E+02 -0.53325806791E+02 -0.31592698855E+02  0.67997810836E+02  0.00000000000E+00 0.  1.
</event>
<event>
12    1  0.8251070E-002  0.2294037E+03  0.7818608E-02  0.1127116E+00
         21   -1    0    0  501  502  0.00000000000E+00  0.00000000000E+00  0.69166977085E+03  0.69166977085E+03  0.00000000000E+00 0. -1.
         21   -1    0    0  502  503 -0.00000000000E+00 -0.00000000000E+00 -0.79065928015E+02  0.79065928015E+02  0.00000000000E+00 0.  1.
         -6    2    1    2    0  503  0.57402150742E+02 -0.13982259881E+03  0.38222252614E+03  0.44561789549E+03  0.17215075730E+03 0.  0.
        -24    2    3    3    0    0  0.69142050347E+02 -0.72776217006E+02  0.12601813474E+03  0.18048430137E+03  0.81345017484E+02 0.  0.
          6    2    1    2  501    0 -0.57402150742E+02  0.13982259881E+03  0.23038131669E+03  0.32511780338E+03  0.17257076503E+03 0.  0.
         24    2    5    5    0    0 -0.51448370689E+02  0.65870762948E+02  0.43069177753E+02  0.12359299369E+03  0.80214598172E+02 0.  0.
          5    1    5    5  501    0 -0.59537800532E+01  0.73951835862E+02  0.18731213894E+03  0.20152480969E+03  0.47000000000E+01 0. -1.
        -11    1    6    6    0    0 -0.25095703823E+02  0.69139921955E+02  0.57508214047E+02  0.93366577752E+02  0.00000000000E+00 0.  1.
         12    1    6    6    0    0 -0.26352666865E+02 -0.32691590074E+01 -0.14439036294E+02  0.30226415941E+02  0.00000000000E+00 0. -1.
         -5    1    3    3    0  503 -0.11739899605E+02 -0.67046381804E+02  0.25620439141E+03  0.26513359412E+03  0.47000000000E+01 0.  1.
         11    1    4    4    0    0  0.51581225123E+02 -0.22533136450E+02  0.11215094092E+03  0.12548385782E+03  0.00000000000E+00 0. -1.
        -12    1    4    4    0    0  0.17560825224E+02 -0.50243080556E+02  0.13867193817E+02  0.55000443549E+02  0.00000000000E+00 0.  1.
</event>
<event>
12    1  0.8251070E-002  0.2106885E+03  0.7818608E-02  0.1142435E+00
         21   -1    0    0  503  502  0.00000000000E+00  0.00000000000E+00  0.89534714060E+02  0.89534714060E+02  0.00000000000E+00 0.  1.
         21   -1    0    0  501  503 -0.00000000000E+00 -0.00000000000E+00 -0.55620543468E+03  0.55620543468E+03  0.00000000000E+00 0.  1.
          6    2    1    2  501    0 -0.48353519090E+02  0.96500712965E+02 -0.34991631184E+03  0.40486415148E+03  0.17269367520E+03 0.  0.
         24    2    3    3    0    0 -0.86007089804E+02  0.98129669124E+02 -0.21248731685E+03  0.26228342505E+03  0.81333165287E+02 0.  0.
         -6    2    1    2    0  502  0.48353519090E+02 -0.96500712965E+02 -0.11675440878E+03  0.24087599726E+03  0.18093977914E+03 0.  0.
        -24    2    5    5    0    0  0.30133425911E+02 -0.45255383448E+02  0.15826625803E+02  0.97495816186E+02  0.79365477390E+02 0.  0.
          5    1    3    3  501    0  0.37653570714E+02 -0.16289561584E+01 -0.13742899499E+03  0.14258072643E+03  0.47000000000E+01 0. -1.
        -13    1    4    4    0    0 -0.45090566364E+02  0.86459057762E+01 -0.29656496737E+02  0.54657283690E+02  0.00000000000E+00 0.  1.
         14    1    4    4    0    0 -0.40916523441E+02  0.89483763347E+02 -0.18283082011E+03  0.20762614136E+03  0.00000000000E+00 0. -1.
         -5    1    5    5    0  502  0.18220093179E+02 -0.51245329517E+02 -0.13258103458E+03  0.14338018107E+03  0.47000000000E+01 0.  1.
         11    1    6    6    0    0  0.29594712279E+02  0.12032650671E+02 -0.11587774250E+02  0.33983940165E+02  0.00000000000E+00 0. -1.
        -12    1    6    6    0    0  0.53871363196E+00 -0.57288034118E+02  0.27414400053E+02  0.63511876022E+02  0.00000000000E+00 0.  1.
</event>
<event>
12    1  0.8251070E-002  0.1737307E+03  0.7818608E-02  0.1174024E+00
         21   -1    0    0  501  502  0.00000000000E+00  0.00000000000E+00  0.37122161252E+03  0.37122161252E+03  0.00000000000E+00 0.  1.
         21   -1    0    0  502  503 -0.00000000000E+00 -0.00000000000E+00 -0.96554177589E+02  0.96554177589E+02  0.00000000000E+00 0.  1.
         -6    2    1    2    0  503  0.14592212948E+01 -0.20321969694E+02  0.44303708690E+02  0.17924535528E+03  0.17248468630E+03 0.  0.
        -24    2    3    3    0    0  0.28097300968E+02 -0.71811376747E+02  0.14102514883E+02  0.11370949918E+03  0.82368908738E+02 0.  0.
          6    2    1    2  501    0 -0.14592212948E+01  0.20321969694E+02  0.23036372624E+03  0.28853043482E+03  0.17253189176E+03 0.  0.
         24    2    5    5    0    0 -0.30404606571E+02  0.56167222947E+02  0.21412610389E+03  0.23945429104E+03  0.86076547868E+02 0.  0.
          5    1    5    5  501    0  0.28945385276E+02 -0.35845253253E+02  0.16237622346E+02  0.49076143787E+02  0.47000000000E+01 0. -1.
        -13    1    6    6    0    0 -0.34761965400E+02  0.15503476181E+02  0.18591520009E+03  0.18977147740E+03  0.00000000000E+00 0.  1.
         14    1    6    6    0    0  0.43573588290E+01  0.40663746765E+02  0.28210903806E+02  0.49682813633E+02  0.00000000000E+00 0. -1.
         -5    1    3    3    0  503 -0.26638079673E+02  0.51489407054E+02  0.30201193808E+02  0.65535856100E+02  0.47000000000E+01 0.  1.
         11    1    4    4    0    0 -0.24038516802E+02 -0.23497738202E+01  0.11670085769E+02  0.26824664563E+02  0.00000000000E+00 0. -1.
        -12    1    4    4    0    0  0.52135817770E+02 -0.69461602927E+02  0.24324291132E+01  0.86884834621E+02  0.00000000000E+00 0.  1.
</event>
<event>
12    1  0.8251070E-002  0.2338654E+03  0.7818608E-02  0.1124251E+00
         21   -1    0    0  501  502  0.00000000000E+00  0.00000000000E+00  0.86670254016E+02  0.86670254016E+02  0.00000000000E+00 0.  1.
         21   -1    0    0  502  503 -0.00000000000E+00 -0.00000000000E+00 -0.63802861840E+03  0.63802861840E+03  0.00000000000E+00 0.  1.
         -6    2    1    2    0  503 -0.20673590342E+02  0.15592248765E+03 -0.32576105557E+03  0.40101533318E+03  0.17307169794E+03 0.  0.
        -24    2    3    3    0    0 -0.50873098412E+02  0.24582048521E+02 -0.15328783828E+03  0.18208287346E+03  0.80403123018E+02 0.  0.
          6    2    1    2  501    0  0.20673590342E+02 -0.15592248765E+03 -0.22559730881E+03  0.32368353923E+03  0.17069759322E+03 0.  0.
         24    2    5    5    0    0 -0.19344474880E+02 -0.75020356669E+02 -0.42305810822E+02  0.11931998187E+03  0.80282089041E+02 0.  0.
          5    1    5    5  501    0  0.40018065222E+02 -0.80902130983E+02 -0.18329149799E+03  0.20436355736E+03  0.47000000000E+01 0. -1.
        -13    1    6    6    0    0  0.27298934130E+02 -0.42405562765E+02 -0.36196759709E+02  0.62077926604E+02  0.00000000000E+00 0.  1.
         14    1    6    6    0    0 -0.46643409010E+02 -0.32614793904E+02 -0.61090511128E+01  0.57242055265E+02  0.00000000000E+00 0. -1.
         -5    1    3    3    0  503  0.30199508070E+02  0.13134043913E+03 -0.17247321729E+03  0.21893245972E+03  0.47000000000E+01 0.  1.
         11    1    4    4    0    0 -0.28349816095E+02 -0.21426944570E+02 -0.10804124442E+03  0.11373537937E+03  0.00000000000E+00 0. -1.
        -12    1    4    4    0    0 -0.22523282317E+02  0.46008993091E+02 -0.45246593866E+02  0.68347494088E+02  0.00000000000E+00 0.  1.
</event>
<event>
12    1  0.8251070E-002  0.2489675E+03  0.7818608E-02  0.1114037E+00
         21   -1    0    0  503  502  0.00000000000E+00  0.00000000000E+00  0.97404499257E+02  0.97404499257E+02  0.00000000000E+00 0.  1.
         21   -1    0    0  501  503 -0.00000000000E+00 -0.00000000000E+00 -0.75377101048E+03  0.75377101048E+03  0.00000000000E+00 0. -1.
          6    2    1    2  501    0  0.16615623394E+03 -0.67874213426E+02 -0.49676909478E+03  0.55544561026E+03  0.17182982714E+03 0.  0.
         24    2    3    3    0    0  0.72044292530E+01 -0.42095443827E+02 -0.17034847113E+03  0.19143635938E+03  0.76192833554E+02 0.  0.
         -6    2    1    2    0  502 -0.16615623394E+03  0.67874213426E+02 -0.15959741644E+03  0.29572989948E+03  0.17253995243E+03 0.  0.
        -24    2    5    5    0    0 -0.12962703370E+03  0.47693032376E+02 -0.18646684510E+03  0.24587291666E+03  0.81276156538E+02 0.  0.
          5    1    3    3  501    0  0.15895180469E+03 -0.25778769599E+02 -0.32642062365E+03  0.36400925087E+03  0.47000000000E+01 0. -1.
        -11    1    4    4    0    0 -0.97656689589E+01 -0.86479470629E+01  0.35664517332E+01  0.13523123034E+02  0.00000000000E+00 0.  1.
         12    1    4    4    0    0  0.16970098212E+02 -0.33447496764E+02 -0.17391492287E+03  0.17791323635E+03  0.00000000000E+00 0. -1.
         -5    1    5    5    0  502 -0.36529200248E+02  0.20181181050E+02  0.26869428664E+02  0.49856982822E+02  0.47000000000E+01 0.  1.
         11    1    6    6    0    0 -0.14058153287E+02  0.16811527641E+02 -0.88736895775E+02  0.91402931065E+02  0.00000000000E+00 0. -1.
        -12    1    6    6    0    0 -0.11556888041E+03  0.30881504735E+02 -0.97729949329E+02  0.15446998559E+03  0.00000000000E+00 0.  1.
</event>
<event>
12    1  0.8251070E-002  0.1835182E+03  0.7818608E-02  0.1164663E+00
         21   -1    0    0  503  502  0.00000000000E+00  0.00000000000E+00  0.48100889000E+02  0.48100889000E+02  0.00000000000E+00 0. -1.
         21   -1    0    0  501  503 -0.00000000000E+00 -0.00000000000E+00 -0.74254267168E+03  0.74254267168E+03  0.00000000000E+00 0. -1.
          6    2    1    2  501    0 -0.31816842355E+02  0.57146710108E+02 -0.24971277338E+03  0.30989576906E+03  0.17146679141E+03 0.  0.
         24    2    3    3    0    0  0.12258001405E+02 -0.32392727027E+02 -0.11658507327E+03  0.14344764744E+03  0.76063137478E+02 0.  0.
         -6    2    1    2    0  502  0.31816842355E+02 -0.57146710108E+02 -0.44472900930E+03  0.48074779162E+03  0.17045964186E+03 0.  0.
        -24    2    5    5    0    0 -0.47488799607E+02 -0.22965322947E+02 -0.24337872032E+03  0.26160906628E+03  0.80146802213E+02 0.  0.
          5    1    3    3  501    0 -0.44074843760E+02  0.89539437135E+02 -0.13312770010E+03  0.16644812162E+03  0.47000000000E+01 0. -1.
        -11    1    4    4    0    0  0.26822999773E+02  0.16187305768E+02 -0.58314348857E+02  0.66197171144E+02  0.00000000000E+00 0.  1.
         12    1    4    4    0    0 -0.14564998368E+02 -0.48580032795E+02 -0.58270724416E+02  0.77250476294E+02  0.00000000000E+00 0. -1.
         -5    1    5    5    0  502  0.79305641963E+02 -0.34181387161E+02 -0.20135028898E+03  0.21913872535E+03  0.47000000000E+01 0.  1.
         13    1    6    6    0    0  0.65824537681E+01 -0.35967464555E+02 -0.62892576967E+02  0.72749319184E+02  0.00000000000E+00 0. -1.
        -14    1    6    6    0    0 -0.54071253375E+02  0.13002141607E+02 -0.18048614336E+03  0.18885974709E+03  0.00000000000E+00 0.  1.
</event>
<event>
12    1  0.8251070E-002  0.1788383E+03  0.7818608E-02  0.1169675E+00
         21   -1    0    0  503  502  0.00000000000E+00  0.00000000000E+00  0.33377327625E+03  0.33377327625E+03  0.00000000000E+00 0. -1.
         21   -1    0    0  501  503 -0.00000000000E+00 -0.00000000000E+00 -0.18043148366E+03  0.18043148366E+03  0.00000000000E+00 0. -1.
          6    2    1    2  501    0  0.24385995426E+02  0.42826042128E+02  0.25473434995E+03  0.31124384767E+03  0.17191392326E+03 0.  0.
         24    2    3    3    0    0 -0.49431151767E+02  0.46493637872E+01  0.15963301133E+03  0.18486036538E+03  0.78902477995E+02 0.  0.
         -6    2    1    2    0  502 -0.24385995426E+02 -0.42826042128E+02 -0.10139255736E+03  0.20296091224E+03  0.16877184171E+03 0.  0.
        -24    2    5    5    0    0  0.23187888356E+02 -0.71632810850E+02 -0.98703347467E+02  0.14708223839E+03  0.78878997778E+02 0.  0.
          5    1    3    3  501    0  0.73817147193E+02  0.38176678340E+02  0.95101338619E+02  0.12638348229E+03  0.47000000000E+01 0. -1.
        -11    1    4    4    0    0 -0.37505507088E+02  0.20131648909E+02  0.26157154069E+02  0.49961415700E+02  0.00000000000E+00 0.  1.
         12    1    4    4    0    0 -0.11925644679E+02 -0.15482285121E+02  0.13347585726E+03  0.13489894968E+03  0.00000000000E+00 0. -1.
         -5    1    5    5    0  502 -0.47573883782E+02  0.28806768723E+02 -0.26892098917E+01  0.55878673858E+02  0.47000000000E+01 0.  1.
         11    1    6    6    0    0  0.34200948256E+02 -0.70504357758E+02 -0.10743894227E+03  0.13298005730E+03  0.00000000000E+00 0. -1.
        -12    1    6    6    0    0 -0.11013059900E+02 -0.11284530922E+01  0.87355948015E+01  0.14102181082E+02  0.00000000000E+00 0.  1.
</event>
<event>
12    1  0.8251070E-002  0.1931232E+03  0.7818608E-02  0.1156648E+00
         21   -1    0    0  501  502  0.00000000000E+00  0.00000000000E+00  0.43048926717E+02  0.43048926717E+02  0.00000000000E+00 0. -1.
         21   -1    0    0  502  503 -0.00000000000E+00 -0.00000000000E+00 -0.91022691534E+03  0.91022691534E+03  0.00000000000E+00 0.  1.
         -6    2    1    2    0  503  0.79576989745E+02  0.35328884132E+02 -0.56385801197E+03  0.59601379508E+03  0.17238317468E+03 0.  0.
        -24    2    3    3    0    0  0.35563996561E+02 -0.36380742561E+01 -0.11844324972E+03  0.14671215048E+03  0.78851875421E+02 0.  0.
          6    2    1    2  501    0 -0.79576989745E+02 -0.35328884132E+02 -0.30331997665E+03  0.35726204697E+03  0.16748890895E+03 0.  0.
         24    2    5    5    0    0 -0.36077695205E+02 -0.58404863452E+02 -0.29036247738E+03  0.30612814203E+03  0.68493378584E+02 0.  0.
          5    1    5    5  501    0 -0.43499294540E+02  0.23075979320E+02 -0.12957499275E+02  0.51133904941E+02  0.47000000000E+01 0. -1.
        -11    1    6    6    0    0 -0.25814622108E+01 -0.50381308457E+02 -0.93177376531E+02  0.10595736730E+03  0.00000000000E+00 0.  1.
         12    1    6    6    0    0 -0.33496232994E+02 -0.80235549948E+01 -0.19718510085E+03  0.20017077473E+03  0.00000000000E+00 0. -1.
         -5    1    3    3    0  503  0.44012993184E+02  0.38966958388E+02 -0.44541476225E+03  0.44930164461E+03  0.47000000000E+01 0.  1.
         11    1    4    4    0    0 -0.51893322880E+01  0.31847738368E+02 -0.50000061394E+02  0.59508098173E+02  0.00000000000E+00 0. -1.
        -12    1    4    4    0    0  0.40753328849E+02 -0.35485812624E+02 -0.68443188326E+02  0.87204052303E+02  0.00000000000E+00 0.  1.
</event>
<event>
12    1  0.8251070E-002  0.2331710E+03  0.7818608E-02  0.1125166E+00
         21   -1    0    0  501  502  0.00000000000E+00  0.00000000000E+00  0.66331219375E+03  0.66331219375E+03  0.00000000000E+00 0. -1.
         21   -1    0    0  502  503 -0.00000000000E+00 -0.00000000000E+00 -0.12575679291E+03  0.12575679291E+03  0.00000000000E+00 0. -1.
         -6    2    1    2    0  503 -0.14432657218E+03 -0.62455225785E+02  0.33641779929E+02  0.23558542857E+03  0.17215664417E+03 0.  0.
        -24    2    3    3    0    0 -0.12056440645E+03 -0.50494010072E+02 -0.40833177709E+02  0.15636219639E+03  0.75474279739E+02 0.  0.
          6    2    1    2  501    0  0.14432657218E+03  0.62455225785E+02  0.50391362092E+03  0.55348355810E+03  0.16638598821E+03 0.  0.
         24    2    5    5    0    0  0.11568479193E+03  0.24632117854E+02  0.20010764285E+03  0.24595941046E+03  0.80394344039E+02 0.  0.
          5    1    5    5  501    0  0.28641780249E+02  0.37823107931E+02  0.30380597807E+03  0.30752414764E+03  0.47000000000E+01 0. -1.
        -11    1    6    6    0    0  0.11157911723E+03  0.42819922942E+02  0.14570323616E+03  0.18844860899E+03  0.00000000000E+00 0.  1.
         12    1    6    6    0    0  0.41056746991E+01 -0.18187805088E+02  0.54404406687E+02  0.57510801469E+02  0.00000000000E+00 0. -1.
         -5    1    3    3    0  503 -0.23762165722E+02 -0.11961215713E+02  0.74474957638E+02  0.79223232175E+02  0.47000000000E+01 0.  1.
         13    1    4    4    0    0 -0.38858201911E+02 -0.21951478107E+01 -0.47268960887E+02  0.61230165711E+02  0.00000000000E+00 0. -1.
        -14    1    4    4    0    0 -0.81706204542E+02 -0.48298862261E+02  0.64357831775E+01  0.95132030681E+02  0.00000000000E+00 0.  1.
</event>
<event>
12    1  0.8251070E-002  0.2737958E+03  0.7818608E-02  0.1099540E+00
         21   -1    0    0  501  502  0.00000000000E+00  0.00000000000E+00  0.12542310257E+03  0.12542310257E+03  0.00000000000E+00 0.  1.
         21   -1    0    0  502  503 -0.00000000000E+00 -0.00000000000E+00 -0.61019962726E+03  0.61019962726E+03  0.00000000000E+00 0.  1.
         -6    2    1    2    0  503  0.20766918854E+03  0.33042486485E+02 -0.30834891882E+03  0.41236292276E+03  0.17534487888E+03 0.  0.
        -24    2    3    3    0    0  0.18789507078E+03  0.30877155294E+02 -0.32540832554E+03  0.38573929134E+03  0.81524635600E+02 0.  0.
          6    2    1    2  501    0 -0.20766918854E+03 -0.33042486485E+02 -0.17642760587E+03  0.32325980707E+03  0.17073928949E+03 0.  0.
         24    2    5    5    0    0 -0.10049697618E+03  0.26951950375E+02 -0.14709280552E+03  0.19689590373E+03  0.79408145819E+02 0.  0.
          5    1    5    5  501    0 -0.10717221236E+03 -0.59994436860E+02 -0.29334800354E+02  0.12636390334E+03  0.47000000000E+01 0. -1.
        -11    1    6    6    0    0 -0.84422029326E+02 -0.15142171808E+02 -0.93582625760E+02  0.12694121571E+03  0.00000000000E+00 0.  1.
         12    1    6    6    0    0 -0.16074946855E+02  0.42094122182E+02 -0.53510179755E+02  0.69954688021E+02  0.00000000000E+00 0. -1.
         -5    1    3    3    0  503  0.19774117756E+02  0.21653311913E+01  0.17059406723E+02  0.26623631419E+02  0.47000000000E+01 0.  1.
         13    1    4    4    0    0  0.17716567987E+02  0.27017754509E+02 -0.26612278922E+02  0.41857487136E+02  0.00000000000E+00 0. -1.
        -14    1    4    4    0    0  0.17017850279E+03  0.38594007848E+01 -0.29879604662E+03  0.34388180421E+03  0.00000000000E+00 0.  1.
</event>
<event>
12    1  0.8251070E-002  0.2282505E+03  0.7818608E-02  0.1129596E+00
         21   -1    0    0  503  502  0.00000000000E+00  0.00000000000E+00  0.21586337008E+03  0.21586337008E+03  0.00000000000E+00 0. -1.
         21   -1    0    0  501  503 -0.00000000000E+00 -0.00000000000E+00 -0.23589228663E+03  0.23589228663E+03  0.00000000000E+00 0.  1.
          6    2    1    2  501    0 -0.85284538896E+02 -0.10606260581E+03  0.21169347550E+02  0.21981685243E+03  0.17131426797E+03 0.  0.
         24    2    3    3    0    0 -0.71264308685E+02 -0.10393644004E+03 -0.41772169655E+02  0.15512672935E+03  0.80237165581E+02 0.  0.
         -6    2    1    2    0  502  0.85284538896E+02  0.10606260581E+03 -0.41198264106E+02  0.23193880428E+03  0.18323641297E+03 0.  0.
        -24    2    5    5    0    0  0.61793362635E+02 -0.14828280461E+02 -0.14566186772E+01  0.10244776163E+03  0.80343789787E+02 0.  0.
          5    1    3    3  501    0 -0.14020230211E+02 -0.21261657711E+01  0.62941517205E+02  0.64690123080E+02  0.47000000000E+01 0. -1.
        -11    1    4    4    0    0  0.79244430062E+01  0.78410594736E+01  0.19824022257E+01  0.11322938188E+02  0.00000000000E+00 0.  1.
         12    1    4    4    0    0 -0.79188751691E+02 -0.11177749951E+03 -0.43754571881E+02  0.14380379116E+03  0.00000000000E+00 0. -1.
         -5    1    5    5    0  502  0.23491176261E+02  0.12089088627E+03 -0.39741645429E+02  0.12949104265E+03  0.47000000000E+01 0.  1.
         13    1    6    6    0    0 -0.10769519705E+02  0.80480743565E+01  0.19357706828E+02  0.23568514360E+02  0.00000000000E+00 0. -1.
        -14    1    6    6    0    0  0.72562882340E+02 -0.22876354817E+02 -0.20814325505E+02  0.78879247267E+02  0.00000000000E+00 0.  1.
</event>
<event>
12    1  0.8251070E-002  0.2106650E+03  0.7818608E-02  0.1141494E+00
         21   -1    0    0  501  502  0.00000000000E+00  0.00000000000E+00  0.30439701059E+03  0.30439701059E+03  0.00000000000E+00 0.  1.
         21   -1    0    0  502  503 -0.00000000000E+00 -0.00000000000E+00 -0.22255462195E+03  0.22255462195E+03  0.00000000000E+00 0.  1.
         -6    2    1    2    0  503 -0.10362610863E+03 -0.53688782711E+02 -0.11525008038E+03  0.24012976405E+03  0.17538205945E+03 0.  0.
        -24    2    3    3    0    0 -0.61617366073E+02 -0.29344797433E+02  0.10713165617E+02  0.10505129274E+03  0.79140288417E+02 0.  0.
          6    2    1    2  501    0  0.10362610863E+03  0.53688782711E+02  0.19709246902E+03  0.28682186849E+03  0.17262817593E+03 0.  0.
         24    2    5    5    0    0  0.47439709979E+02 -0.12244722385E+02  0.29891172101E+02  0.98453871801E+02  0.79995146064E+02 0.  0.
          5    1    5    5  501    0  0.56186398652E+02  0.65933505097E+02  0.16720129691E+03  0.18836799669E+03  0.47000000000E+01 0. -1.
        -13    1    6    6    0    0  0.53484273570E+02 -0.29330068935E+02  0.44228158189E+02  0.75345540278E+02  0.00000000000E+00 0.  1.
         14    1    6    6    0    0 -0.60445635906E+01  0.17085346549E+02 -0.14336986088E+02  0.23108331523E+02  0.00000000000E+00 0. -1.
         -5    1    3    3    0  503 -0.42008742558E+02 -0.24343985278E+02 -0.12596324600E+03  0.13507847131E+03  0.47000000000E+01 0.  1.
         11    1    4    4    0    0  0.33704489040E+01  0.78591646099E+00  0.30531790062E+02  0.30727313500E+02  0.00000000000E+00 0. -1.
        -12    1    4    4    0    0 -0.64987814977E+02 -0.30130713894E+02 -0.19818624446E+02  0.74323979240E+02  0.00000000000E+00 0.  1.
</event>
<event>
12    1  0.8251070E-002  0.1781972E+03  0.7818608E-02  0.1169690E+00
         21   -1    0    0  501  502  0.00000000000E+00  0.00000000000E+00  0.61340976886E+03  0.61340976886E+03  0.00000000000E+00 0. -1.
         21   -1    0    0  502  503 -0.00000000000E+00 -0.00000000000E+00 -0.42129352140E+03  0.42129352140E+03  0.00000000000E+00 0. -1.
         -6    2    1    2    0  503 -0.26474705024E+02 -0.40574603661E+02 -0.38858638278E+03  0.42727444911E+03  0.17092942845E+03 0.  0.
        -24    2    3    3    0    0 -0.49141601746E+02 -0.98892770943E+01 -0.37429105991E+03  0.38626440485E+03  0.81201589318E+02 0.  0.
          6    2    1    2  501    0  0.26474705024E+02  0.40574603661E+02  0.58070263024E+03  0.60742884115E+03  0.17148482098E+03 0.  0.
         24    2    5    5    0    0  0.56014758782E+01 -0.44305777133E+02  0.27244033452E+03  0.28697899531E+03  0.78350682543E+02 0.  0.
          5    1    5    5  501    0  0.20873229146E+02  0.84880380794E+02  0.30826229572E+03  0.32044984584E+03  0.47000000000E+01 0. -1.
        -13    1    6    6    0    0  0.39952247695E+02 -0.10323838154E+02  0.10915464154E+03  0.11669404227E+03  0.00000000000E+00 0.  1.
         14    1    6    6    0    0 -0.34350771817E+02 -0.33981938979E+02  0.16328569298E+03  0.17028495305E+03  0.00000000000E+00 0. -1.
         -5    1    3    3    0  503  0.22666896722E+02 -0.30685326566E+02 -0.14295322872E+02  0.41010044251E+02  0.47000000000E+01 0.  1.
         13    1    4    4    0    0 -0.51811712016E+02 -0.20265460928E+02 -0.37086658006E+03  0.37501621646E+03  0.00000000000E+00 0. -1.
        -14    1    4    4    0    0  0.26701102698E+01  0.10376183834E+02 -0.34244798506E+01  0.11248188390E+02  0.00000000000E+00 0.  1.
</event>
<event>
12    1  0.8251070E-002  0.2350223E+03  0.7818608E-02  0.1124537E+00
         21   -1    0    0  503  502  0.00000000000E+00  0.00000000000E+00  0.18373617139E+03  0.18373617139E+03  0.00000000000E+00 0. -1.
         21   -1    0    0  501  503 -0.00000000000E+00 -0.00000000000E+00 -0.29575512838E+03  0.29575512838E+03  0.00000000000E+00 0. -1.
          6    2    1    2  501    0  0.60793624041E+02  0.13500319453E+03 -0.88730358228E+02  0.25121420040E+03  0.18252060364E+03 0.  0.
         24    2    3    3    0    0 -0.45039617359E+02  0.54744418168E+02 -0.20356452545E+02  0.10175107068E+03  0.70095483243E+02 0.  0.
         -6    2    1    2    0  502 -0.60793624041E+02 -0.13500319453E+03 -0.23288598761E+02  0.22827709936E+03  0.17218114880E+03 0.  0.
        -24    2    5    5    0    0 -0.85021540045E+02 -0.12556622846E+03 -0.62678676215E+02  0.18084592349E+03  0.76033489924E+02 0.  0.
          5    1    3    3  501    0  0.10583324140E+03  0.80258776364E+02 -0.68373905683E+02  0.14946312972E+03  0.47000000000E+01 0. -1.
        -13    1    4    4    0    0 -0.11363536472E+02 -0.84400330293E+01  0.16073200278E+02  0.21417560222E+02  0.00000000000E+00 0.  1.
         14    1    4    4    0    0 -0.33676080887E+02  0.63184451198E+02 -0.36429652823E+02  0.80333510454E+02  0.00000000000E+00 0. -1.
         -5    1    5    5    0  502  0.24227916004E+02 -0.94369660742E+01  0.39390077454E+02  0.47431175871E+02  0.47000000000E+01 0.  1.
         11    1    6    6    0    0 -0.51171873620E+02 -0.11007861017E+03 -0.18042461292E+02  0.12272486087E+03  0.00000000000E+00 0. -1.
        -12    1    6    6    0    0 -0.33849666426E+02 -0.15487618291E+02 -0.44636214923E+02  0.58121062620E+02  0.00000000000E+00 0.  1.
</event>
<event>
12    1  0.8251070E-002  0.2422010E+03  0.7818608E-02  0.1119407E+00
         21   -1    0    0  501  502  0.00000000000E+00  0.00000000000E+00  0.95488424384E+02  0.95488424384E+02  0.00000000000E+00 0.  1.
         21   -1    0    0  502  503 -0.00000000000E+00 -0.00000000000E+00 -0.76261892109E+03  0.76261892109E+03  0.00000000000E+00 0.  1.
         -6    2    1    2    0  503 -0.12142374799E+03 -0.10770803958E+03 -0.53631258310E+03  0.58846623350E+03  0.17976810843E+03 0.  0.
        -24    2    3    3    0    0 -0.15941374078E+03 -0.93000345417E+02 -0.43431266366E+03  0.47853157387E+03  0.79392520956E+02 0.  0.
          6    2    1    2  501    0  0.12142374799E+03  0.10770803958E+03 -0.13081791361E+03  0.26964111198E+03  0.17102121034E+03 0.  0.
         24    2    5    5    0    0  0.11083008376E+03  0.90126461223E+02 -0.16310084468E+03  0.23109743212E+03  0.79987818568E+02 0.  0.
          5    1    5    5  501    0  0.10593664232E+02  0.17581578353E+02  0.32282931067E+02  0.38543679865E+02  0.47000000000E+01 0. -1.
        -13    1    6    6    0    0  0.72498458224E+02  0.80757363499E+02 -0.67833284497E+02  0.12798098566E+03  0.00000000000E+00 0.  1.
         14    1    6    6    0    0  0.38331625531E+02  0.93690977243E+01 -0.95267560179E+02  0.10311644646E+03  0.00000000000E+00 0. -1.
         -5    1    3    3    0  503  0.37989992792E+02 -0.14707694159E+02 -0.10199991944E+03  0.10993465962E+03  0.47000000000E+01 0.  1.
         13    1    4    4    0    0 -0.70973881421E+02 -0.79726133574E+01 -0.22333097225E+03  0.23447297834E+03  0.00000000000E+00 0. -1.
        -14    1    4    4    0    0 -0.88439859358E+02 -0.85027732059E+02 -0.21098169141E+03  0.24405859553E+03  0.00000000000E+00 0.  1.
</event>
<event>
12    1  0.8251070E-002  0.2945423E+03  0.7818608E-02  0.1088253E+00
         21   -1    0    0  503  502  0.00000000000E+00  0.00000000000E+00  0.29332398338E+03  0.29332398338E+03  0.00000000000E+00 0.  1.
         21   -1    0    0  501  503 -0.00000000000E+00 -0.00000000000E+00 -0.33246111769E+03  0.33246111769E+03  0.00000000000E+00 0.  1.
          6    2    1    2  501    0  0.23092768093E+03  0.57075418218E+02 -0.12620576566E+03  0.31864321631E+03  0.17035376965E+03 0.  0.
         24    2    3    3    0    0  0.42202837498E+02  0.28205534084E+02 -0.73960180309E+02  0.12064769130E+03  0.80679151576E+02 0.  0.
         -6    2    1    2    0  502 -0.23092768093E+03 -0.57075418218E+02  0.87068631354E+02  0.30714188476E+03  0.17369511687E+03 0.  0.
        -24    2    5    5    0    0 -0.41400830811E+02  0.13598006389E+02  0.18737522520E+02  0.93585357592E+02  0.80673352699E+02 0.  0.
          5    1    3    3  501    0  0.18872484343E+03  0.28869884134E+02 -0.52245585349E+02  0.19799552501E+03  0.47000000000E+01 0. -1.
        -13    1    4    4    0    0  0.46266576175E+02  0.15803929547E+02 -0.88501918642E+02  0.10110860430E+03  0.00000000000E+00 0.  1.
         14    1    4    4    0    0 -0.40637386767E+01  0.12401604537E+02  0.14541738333E+02  0.19539087002E+02  0.00000000000E+00 0. -1.
         -5    1    5    5    0  502 -0.18952685012E+03 -0.70673424607E+02  0.68331108834E+02  0.21355652717E+03  0.47000000000E+01 0.  1.
         13    1    6    6    0    0 -0.19506372667E+02 -0.26288901840E+02 -0.15907804919E+02  0.36395922738E+02  0.00000000000E+00 0. -1.
        -14    1    6    6    0    0 -0.21894458143E+02  0.39886908229E+02  0.34645327440E+02  0.57189434853E+02  0.00000000000E+00 0.  1.
</event>
<event>
12    1  0.8251070E-002  0.1920413E+03  0.7818608E-02  0.1156732E+00
         21   -1    0    0  501  502  0.00000000000E+00  0.00000000000E+00  0.11899178425E+03  0.11899178425E+03  0.00000000000E+00 0.  1.
         21   -1    0    0  502  503 -0.00000000000E+00 -0.00000000000E+00 -0.30928275433E+03  0.30928275433E+03  0.00000000000E+00 0. -1.
         -6    2    1    2    0  503 -0.59986348515E+02  0.62244977327E+02 -0.98089158036E+02  0.21524624825E+03  0.17098732482E+03 0.  0.
        -24    2    3    3    0    0 -0.38112230419E+02  0.78116649753E+02 -0.12831655541E+03  0.17442747094E+03  0.80031563463E+02 0.  0.
          6    2    1    2  501    0  0.59986348515E+02 -0.62244977327E+02 -0.92201812044E+02  0.21302829034E+03  0.17148492392E+03 0.  0.
         24    2    5    5    0    0  0.62193357329E+02 -0.10187496453E+03 -0.43214192380E+02  0.14980421538E+03  0.79544417969E+02 0.  0.
          5    1    5    5  501    0 -0.22070088140E+01  0.39629987203E+02 -0.48987619664E+02  0.63224074956E+02  0.47000000000E+01 0. -1.
        -11    1    6    6    0    0  0.75461878953E+01 -0.15583610591E+01  0.18445541554E+02  0.19990283744E+02  0.00000000000E+00 0.  1.
         12    1    6    6    0    0  0.54647169433E+02 -0.10031660347E+03 -0.61659733934E+02  0.12981393164E+03  0.00000000000E+00 0. -1.
         -5    1    3    3    0  503 -0.21874118096E+02 -0.15871672426E+02  0.30227397379E+02  0.40818777302E+02  0.47000000000E+01 0.  1.
         13    1    4    4    0    0 -0.43522751854E+02  0.50163462946E+01 -0.59469372614E+02  0.73864740833E+02  0.00000000000E+00 0. -1.
        -14    1    4    4    0    0  0.54105214354E+01  0.73100303459E+02 -0.68847182800E+02  0.10056273011E+03  0.00000000000E+00 0.  1.
</event>
<event>
12    1  0.8251070E-002  0.2217426E+03  0.7818608E-02  0.1133401E+00
         21   -1    0    0  503  502  0.00000000000E+00  0.00000000000E+00  0.36065499440E+03  0.36065499440E+03  0.00000000000E+00 0. -1.
         21   -1    0    0  501  503 -0.00000000000E+00 -0.00000000000E+00 -0.13876548523E+03  0.13876548523E+03  0.00000000000E+00 0. -1.
          6    2    1    2  501    0 -0.36507052057E+02  0.13002556399E+03  0.15771496138E+03  0.26857817229E+03  0.17035496309E+03 0.  0.
         24    2    3    3    0    0 -0.51449510356E+02  0.10353003065E+03  0.18005914113E+03  0.23054341561E+03  0.85810563519E+02 0.  0.
         -6    2    1    2    0  502  0.36507052057E+02 -0.13002556399E+03  0.64174547795E+02  0.23084230733E+03  0.17587036740E+03 0.  0.
        -24    2    5    5    0    0  0.73406350043E+02 -0.14068816880E+03  0.39305650208E+02  0.18484446607E+03  0.86260590259E+02 0.  0.
          5    1    3    3  501    0  0.14942458300E+02  0.26495533337E+02 -0.22344179757E+02  0.38034756683E+02  0.47000000000E+01 0. -1.
        -13    1    4    4    0    0  0.71325751121E+01 -0.11016888797E+02  0.30846602103E+02  0.33522504796E+02  0.00000000000E+00 0.  1.
         14    1    4    4    0    0 -0.58582085469E+02  0.11454691945E+03  0.14921253903E+03  0.19702091081E+03  0.00000000000E+00 0. -1.
         -5    1    5    5    0  502 -0.36899297987E+02  0.10662604813E+02  0.24868897587E+02  0.45997841259E+02  0.47000000000E+01 0.  1.
         11    1    6    6    0    0  0.85405786057E+02 -0.86245662428E+02  0.43502069603E+02  0.12893755326E+03  0.00000000000E+00 0. -1.
        -12    1    6    6    0    0 -0.11999436014E+02 -0.54442506377E+02 -0.41964193954E+01  0.55906912820E+02  0.00000000000E+00 0.  1.
</event>
<event>
12    1  0.8251070E-002  0.1791929E+03  0.7818608E-02  0.1169156E+00
         21   -1    0    0  501  502  0.00000000000E+00  0.00000000000E+00  0.22823127969E+04  0.22823127969E+04  0.00000000000E+00 0.  1.
         21   -1    0    0  502  503 -0.00000000000E+00 -0.00000000000E+00 -0.16541353533E+02  0.16541353533E+02  0.00000000000E+00 0. -1.
         -6    2    1    2    0  503 -0.39750703679E+02 -0.12923247537E+02  0.67868570935E+03  0.70194329742E+03  0.17424974014E+03 0.  0.
        -24    2    3    3    0    0  0.22327043520E+02  0.26584241304E+02  0.51505898774E+03  0.52247106447E+03  0.80529706342E+02 0.  0.
          6    2    1    2  501    0  0.39750703679E+02  0.12923247537E+02  0.15870857341E+04  0.15969108531E+04  0.17186045676E+03 0.  0.
         24    2    5    5    0    0  0.82573442444E+02  0.34448076090E+02  0.85512061613E+03  0.86336322062E+03  0.78484006259E+02 0.  0.
          5    1    5    5  501    0 -0.42822738766E+02 -0.21524828554E+02  0.73196511793E+03  0.73354763244E+03  0.47000000000E+01 0. -1.
        -11    1    6    6    0    0  0.58296631455E+02  0.26329901755E+02  0.80039099212E+03  0.80294302490E+03  0.00000000000E+00 0.  1.
         12    1    6    6    0    0  0.24276810989E+02  0.81181743359E+01  0.54729624013E+02  0.60420195721E+02  0.00000000000E+00 0. -1.
         -5    1    3    3    0  503 -0.62077747198E+02 -0.39507488841E+02  0.16362672161E+03  0.17947223294E+03  0.47000000000E+01 0.  1.
         13    1    4    4    0    0 -0.98369942425E+01  0.46619832392E+02  0.22828128340E+03  0.23320059944E+03  0.00000000000E+00 0. -1.
        -14    1    4    4    0    0  0.32164037762E+02 -0.20035591088E+02  0.28677770434E+03  0.28927046504E+03  0.00000000000E+00 0.  1.
</event>
<event>
12    1  0.8251070E-002  0.2647352E+03  0.7818608E-02  0.1104497E+00
         21   -1    0    0  501  502  0.00000000000E+00  0.00000000000E+00  0.63047403828E+02  0.63047403828E+02  0.00000000000E+00 0. -1.
         21   -1    0    0  502  503 -0.00000000000E+00 -0.00000000000E+00 -0.17424447816E+04  0.17424447816E+04  0.00000000000E+00 0.  1.
         -6    2    1    2    0  503  0.10516527429E+03 -0.16962300868E+03 -0.13860513192E+04  0.14111070019E+04  0.17393392808E+03 0.  0.
        -24    2    3    3    0    0 -0.15811257896E+02 -0.82492427633E+02 -0.63675622908E+03  0.64710943543E+03  0.78975500288E+02 0.  0.
          6    2    1    2  501    0 -0.10516527429E+03  0.16962300868E+03 -0.29334605856E+03  0.39438518353E+03  0.17220935783E+03 0.  0.
         24    2    5    5    0    0 -0.22161985843E+02  0.13341538232E+03 -0.10844179585E+03  0.18844292349E+03  0.73893805363E+02 0.  0.
          5    1    5    5  501    0 -0.83003288447E+02  0.36207626357E+02 -0.18490426271E+03  0.20594226003E+03  0.47000000000E+01 0. -1.
        -13    1    6    6    0    0  0.81261019972E+01 -0.68392113451E+01 -0.78665696650E+01  0.13217082272E+02  0.00000000000E+00 0.  1.
         14    1    6    6    0    0 -0.30288087840E+02  0.14025459366E+03 -0.10057522618E+03  0.17522584122E+03  0.00000000000E+00 0. -1.
         -5    1    3    3    0  503  0.12097653219E+03 -0.87130581042E+02 -0.74929509010E+03  0.76399756645E+03  0.47000000000E+01 0.  1.
         13    1    4    4    0    0  0.13108285637E+02 -0.44331168193E+02 -0.12776728330E+03  0.13587331713E+03  0.00000000000E+00 0. -1.
        -14    1    4    4    0    0 -0.28919543533E+02 -0.38161259440E+02 -0.50898894578E+03  0.51123611830E+03  0.00000000000E+00 0.  1.
</event>
<event>
12    1  0.8251070E-002  0.2165503E+03  0.7818608E-02  0.1136696E+00
         21   -1    0    0  501  502  0.00000000000E+00  0.00000000000E+00  0.13727704286E+03  0.13727704286E+03  0.00000000000E+00 0.  1.
         21   -1    0    0  502  503 -0.00000000000E+00 -0.00000000000E+00 -0.58201652158E+03  0.58201652158E+03  0.00000000000E+00 0.  1.
         -6    2    1    2    0  503  0.12673034195E+03 -0.27375161737E+02 -0.45402940712E+03  0.50254408878E+03  0.17204034292E+03 0.  0.
        -24    2    3    3    0    0  0.12431527673E+03 -0.48560517059E+00 -0.45152252186E+03  0.47502581729E+03  0.79513618337E+02 0.  0.
          6    2    1    2  501    0 -0.12673034195E+03  0.27375161737E+02  0.92899284037E+01  0.21674947565E+03  0.17344755223E+03 0.  0.
         24    2    5    5    0    0 -0.74267494048E+02  0.60144447180E+02 -0.46700225604E+02  0.13318414896E+03  0.80150428977E+02 0.  0.
          5    1    5    5  501    0 -0.52462847903E+02 -0.32769285443E+02  0.55990154008E+02  0.83565326687E+02  0.47000000000E+01 0. -1.
        -11    1    6    6    0    0 -0.89535728777E+01  0.30740112807E+02  0.17940505041E+02  0.36701263245E+02  0.00000000000E+00 0.  1.
         12    1    6    6    0    0 -0.65313921171E+02  0.29404334374E+02 -0.64640730645E+02  0.96482885720E+02  0.00000000000E+00 0. -1.
         -5    1    3    3    0  503  0.24150652191E+01 -0.26889556566E+02 -0.25068852571E+01  0.27518271494E+02  0.47000000000E+01 0.  1.
         11    1    4    4    0    0  0.80015145763E+02  0.83628552739E+01 -0.15069728376E+03  0.17082749261E+03  0.00000000000E+00 0. -1.
        -12    1    4    4    0    0  0.44300130969E+02 -0.88484604445E+01 -0.30082523811E+03  0.30419832468E+03  0.00000000000E+00 0.  1.
</event>
<event>
12    1  0.8251070E-002  0.2327597E+03  0.7818608E-02  0.1124816E+00
         21   -1    0    0  503  502  0.00000000000E+00  0.00000000000E+00  0.17665581243E+03  0.17665581243E+03  0.00000000000E+00 0. -1.
         21   -1    0    0  501  503 -0.00000000000E+00 -0.00000000000E+00 -0.34437348279E+03  0.34437348279E+03  0.00000000000E+00 0.  1.
          6    2    1    2  501    0  0.15603550684E+03 -0.72806833104E+00 -0.17084718939E+03  0.28824852310E+03  0.17190357609E+03 0.  0.
         24    2    3    3    0    0  0.13115676075E+03  0.55000718407E+02 -0.88484297347E+02  0.18563085570E+03  0.80013553811E+02 0.  0.
         -6    2    1    2    0  502 -0.15603550684E+03  0.72806833104E+00  0.31295190227E+01  0.23278077212E+03  0.17271214347E+03 0.  0.
        -24    2    5    5    0    0 -0.12178033229E+03  0.66339146656E+02 -0.27208649634E+02  0.15265134519E+03  0.57713004271E+02 0.  0.
          5    1    3    3  501    0  0.24878746082E+02 -0.55728786738E+02 -0.82362892039E+02  0.10261766740E+03  0.47000000000E+01 0. -1.
        -13    1    4    4    0    0  0.33820470556E+02  0.51436223332E+01 -0.65476655596E+02  0.73874714939E+02  0.00000000000E+00 0.  1.
         14    1    4    4    0    0  0.97336290198E+02  0.49857096073E+02 -0.23007641751E+02  0.11175614076E+03  0.00000000000E+00 0. -1.
         -5    1    5    5    0  502 -0.34255174549E+02 -0.65611078325E+02  0.30338168657E+02  0.80129426928E+02  0.47000000000E+01 0.  1.
         11    1    6    6    0    0 -0.10366345406E+03  0.41522640089E+02 -0.90978391090E-01  0.11167027189E+03  0.00000000000E+00 0. -1.
        -12    1    6    6    0    0 -0.18116878229E+02  0.24816506567E+02 -0.27117671243E+02  0.40981073297E+02  0.00000000000E+00 0.  1.
</event>
<event>
12    1  0.8251070E-002  0.2791223E+03  0.7818608E-02  0.1096201E+00
         21   -1    0    0  503  502  0.00000000000E+00  0.00000000000E+00  0.24912634880E+03  0.24912634880E+03  0.00000000000E+00 0.  1.
         21   -1    0    0  501  503 -0.00000000000E+00 -0.00000000000E+00 -0.48727884873E+03  0.48727884873E+03  0.00000000000E+00 0.  1.
          6    2    1    2  501    0  0.21180924309E+03 -0.59961455194E+02 -0.33964476959E+03  0.43962237647E+03  0.17161215813E+03 0.  0.
         24    2    3    3    0    0  0.14972161941E+03  0.25393552576E+02 -0.23431739240E+03  0.29043693231E+03  0.79922308742E+02 0.  0.
         -6    2    1    2    0  502 -0.21180924309E+03  0.59961455194E+02  0.10149226965E+03  0.29678282106E+03  0.17123326345E+03 0.  0.
        -24    2    5    5    0    0 -0.19484462243E+03  0.10117792756E+03  0.85949581002E+02  0.24934590380E+03  0.81145852331E+02 0.  0.
          5    1    3    3  501    0  0.62087623672E+02 -0.85355007770E+02 -0.10532737719E+03  0.14918544416E+03  0.47000000000E+01 0. -1.
        -11    1    4    4    0    0  0.14020613799E+03  0.32395414939E+01 -0.22384607165E+03  0.26415018371E+03  0.00000000000E+00 0.  1.
         12    1    4    4    0    0  0.95154814196E+01  0.22154011082E+02 -0.10471320752E+02  0.26286748600E+02  0.00000000000E+00 0. -1.
         -5    1    5    5    0  502 -0.16964620652E+02 -0.41216472369E+02  0.15542688653E+02  0.47436917258E+02  0.47000000000E+01 0.  1.
         11    1    6    6    0    0 -0.62667058957E+02 -0.45672239630E+01  0.92597751384E+01  0.63511914226E+02  0.00000000000E+00 0. -1.
        -12    1    6    6    0    0 -0.13217756348E+03  0.10574515153E+03  0.76689805863E+02  0.18583398957E+03  0.00000000000E+00 0.  1.
</event>
<event>
12    1  0.8251070E-002  0.3405291E+03  0.7818608E-02  0.1066755E+00
         21   -1    0    0  503  502  0.00000000000E+00  0.00000000000E+00  0.26552465018E+03  0.26552465018E+03  0.00000000000E+00 0.  1.
         21   -1    0    0  501  503 -0.00000000000E+00 -0.00000000000E+00 -0.79151011173E+03  0.79151011173E+03  0.00000000000E+00 0. -1.
          6    2    1    2  501    0 -0.76527156382E+02  0.28205340284E+03 -0.61831301996E+03  0.70588316092E+03  0.17478420552E+03 0.  0.
         24    2    3    3    0    0 -0.23022910759E+02  0.26668989882E+03 -0.55499386774E+03  0.62144296555E+03  0.80744099821E+02 0.  0.
         -6    2    1    2    0  502  0.76527156382E+02 -0.28205340284E+03  0.92327558408E+02  0.35115160099E+03  0.17138419156E+03 0.  0.
        -24    2    5    5    0    0  0.55822461202E+02 -0.16616208002E+03  0.12412405900E+03  0.22911639886E+03  0.79759376835E+02 0.  0.
          5    1    3    3  501    0 -0.53504245623E+02  0.15363504028E+02 -0.63319152221E+02  0.84440195367E+02  0.47000000000E+01 0. -1.
        -13    1    4    4    0    0  0.93999895842E+01  0.19207514463E+02 -0.10218739503E+03  0.10440092011E+03  0.00000000000E+00 0.  1.
         14    1    4    4    0    0 -0.32422900343E+02  0.24748238435E+03 -0.45280647271E+03  0.51704204545E+03  0.00000000000E+00 0. -1.
         -5    1    5    5    0  502  0.20704695180E+02 -0.11589132282E+03 -0.31796500596E+02  0.12203520213E+03  0.47000000000E+01 0.  1.
         11    1    6    6    0    0  0.75619178653E+02 -0.11587641923E+03  0.84868169006E+02  0.16232131969E+03  0.00000000000E+00 0. -1.
        -12    1    6    6    0    0 -0.19796717451E+02 -0.50285660787E+02  0.39255889998E+02  0.66795079176E+02  0.00000000000E+00 0.  1.
</event>
<event>
12    1  0.8251070E-002  0.1910657E+03  0.7818608E-02  0.1159275E+00
         21   -1    0    0  503  502  0.00000000000E+00  0.00000000000E+00  0.19421776997E+03  0.19421776997E+03  0.00000000000E+00 0. -1.
         21   -1    0    0  501  503 -0.00000000000E+00 -0.00000000000E+00 -0.19516777483E+03  0.19516777483E+03  0.00000000000E+00 0.  1.
          6    2    1    2  501    0  0.65420798847E+02 -0.89041345971E+01  0.53009855646E+02  0.19828295123E+03  0.17929562019E+03 0.  0.
         24    2    3    3    0    0  0.64884090575E+02  0.12235884676E+02  0.10142638223E+03  0.14524109495E+03  0.80299455575E+02 0.  0.
         -6    2    1    2    0  502 -0.65420798847E+02  0.89041345971E+01 -0.53959860508E+02  0.19110259357E+03  0.17102447248E+03 0.  0.
        -24    2    5    5    0    0  0.30351816119E+02  0.17181074207E+02 -0.22086064740E+02  0.89717533704E+02  0.79655630972E+02 0.  0.
          5    1    3    3  501    0  0.53670827183E+00 -0.21140019274E+02 -0.48416526589E+02  0.53041856279E+02  0.47000000000E+01 0. -1.
        -11    1    4    4    0    0  0.66073190573E+02  0.33444739645E+02  0.49332257327E+02  0.88982519269E+02  0.00000000000E+00 0.  1.
         12    1    4    4    0    0 -0.11890999976E+01 -0.21208854969E+02  0.52094124907E+02  0.56258575682E+02  0.00000000000E+00 0. -1.
         -5    1    5    5    0  502 -0.95772614967E+02 -0.82769396102E+01 -0.31873795768E+02  0.10138505986E+03  0.47000000000E+01 0.  1.
         11    1    6    6    0    0 -0.12057186739E+02  0.35495685643E+02  0.21536790706E+01  0.37549404588E+02  0.00000000000E+00 0. -1.
        -12    1    6    6    0    0  0.42409002858E+02 -0.18314611436E+02 -0.24239743811E+02  0.52168129116E+02  0.00000000000E+00 0.  1.
</event>
<event>
12    1  0.8251070E-002  0.2031193E+03  0.7818608E-02  0.1147430E+00
         21   -1    0    0  503  502  0.00000000000E+00  0.00000000000E+00  0.93184690519E+02  0.93184690519E+02  0.00000000000E+00 0. -1.
         21   -1    0    0  501  503 -0.00000000000E+00 -0.00000000000E+00 -0.48297642547E+03  0.48297642547E+03  0.00000000000E+00 0.  1.
          6    2    1    2  501    0  0.32528047475E+02 -0.10180864143E+03 -0.28181610495E+03  0.34738708481E+03  0.17272636261E+03 0.  0.
         24    2    3    3    0    0  0.79044061886E+02 -0.16162315348E+02 -0.15957343011E+03  0.19097610591E+03  0.67074654484E+02 0.  0.
         -6    2    1    2    0  502 -0.32528047475E+02  0.10180864143E+03 -0.10797563001E+03  0.22877403119E+03  0.17104311540E+03 0.  0.
        -24    2    5    5    0    0 -0.71929098305E+02  0.40844167248E+02 -0.10633217354E+03  0.15601483336E+03  0.78689617607E+02 0.  0.
          5    1    3    3  501    0 -0.46516014411E+02 -0.85646326084E+02 -0.12224267484E+03  0.15641097890E+03  0.47000000000E+01 0. -1.
        -11    1    4    4    0    0  0.22155686681E+02 -0.29900434984E+02 -0.10325061123E+03  0.10975244500E+03  0.00000000000E+00 0.  1.
         12    1    4    4    0    0  0.56888375204E+02  0.13738119636E+02 -0.56322818882E+02  0.81223660908E+02  0.00000000000E+00 0. -1.
         -5    1    5    5    0  502  0.39401050830E+02  0.60964474183E+02 -0.16434564738E+01  0.72759197825E+02  0.47000000000E+01 0.  1.
         11    1    6    6    0    0  0.15096615944E+02  0.31333955121E+01 -0.29153325104E+01  0.15691562830E+02  0.00000000000E+00 0. -1.
        -12    1    6    6    0    0 -0.87025714249E+02  0.37710771736E+02 -0.10341684102E+03  0.14032327053E+03  0.00000000000E+00 0.  1.
</event>
<event>
12    1  0.8251070E-002  0.1835366E+03  0.7818608E-02  0.1164510E+00
         21   -1    0    0  503  502  0.00000000000E+00  0.00000000000E+00  0.30252979418E+03  0.30252979418E+03  0.00000000000E+00 0.  1.
         21   -1    0    0  501  503 -0.00000000000E+00 -0.00000000000E+00 -0.15142506153E+03  0.15142506153E+03  0.00000000000E+00 0.  1.
          6    2    1    2  501    0 -0.52292998884E+02  0.40321524433E+02 -0.41488228310E+02  0.18816739075E+03  0.17124634533E+03 0.  0.
         24    2    3    3    0    0 -0.99111393350E+02  0.13250285585E+02 -0.37856862863E+02  0.13376067381E+03  0.80374980144E+02 0.  0.
         -6    2    1    2    0  502  0.52292998884E+02 -0.40321524433E+02  0.19259296096E+03  0.26578746496E+03  0.17085240664E+03 0.  0.
        -24    2    5    5    0    0 -0.33869636759E+02 -0.43285749717E+02  0.98328143643E+02  0.13795659156E+03  0.79641627927E+02 0.  0.
          5    1    3    3  501    0  0.46818394467E+02  0.27071238847E+02 -0.36313654472E+01  0.54406716940E+02  0.47000000000E+01 0. -1.
        -11    1    4    4    0    0 -0.66233732826E+02 -0.26408070351E+02 -0.40818863092E+02  0.82161262940E+02  0.00000000000E+00 0.  1.
         12    1    4    4    0    0 -0.32877660525E+02  0.39658355936E+02  0.29620002291E+01  0.51599410874E+02  0.00000000000E+00 0. -1.
         -5    1    5    5    0  502  0.86162635642E+02  0.29642252842E+01  0.94264817316E+02  0.12783087341E+03  0.47000000000E+01 0.  1.
         13    1    6    6    0    0  0.25716448795E+01  0.18356281379E+02  0.30745058512E+01  0.18788800112E+02  0.00000000000E+00 0. -1.
        -14    1    6    6    0    0 -0.36441281638E+02 -0.61642031096E+02  0.95253637791E+02  0.11916779144E+03  0.00000000000E+00 0.  1.
</event>
<event>
12    1  0.8251070E-002  0.1845573E+03  0.7818608E-02  0.1165717E+00
         21   -1    0    0  503  502  0.00000000000E+00  0.00000000000E+00  0.10022964846E+04  0.10022964846E+04  0.00000000000E+00 0. -1.
         21   -1    0    0  501  503 -0.00000000000E+00 -0.00000000000E+00 -0.32915773125E+02  0.32915773125E+02  0.00000000000E+00 0.  1.
          6    2    1    2  501    0  0.18440312528E+02  0.59415264772E+02  0.40055806251E+03  0.43719836183E+03  0.16378469811E+03 0.  0.
         24    2    3    3    0    0  0.16830996152E+02 -0.26805207301E+02  0.18862838815E+03  0.20834723866E+03  0.82620224349E+02 0.  0.
         -6    2    1    2    0  502 -0.18440312528E+02 -0.59415264772E+02  0.56882264899E+03  0.59801389591E+03  0.17375613626E+03 0.  0.
        -24    2    5    5    0    0 -0.33343186521E+02 -0.94018364964E+02  0.27877000760E+03  0.30548681174E+03  0.75221366473E+02 0.  0.
          5    1    3    3  501    0  0.16093163764E+01  0.86220472073E+02  0.21192967436E+03  0.22885112317E+03  0.47000000000E+01 0. -1.
        -11    1    4    4    0    0  0.27444344431E+02  0.36019068604E+01  0.14465600223E+02  0.31231704469E+02  0.00000000000E+00 0.  1.
         12    1    4    4    0    0 -0.10613348279E+02 -0.30407114161E+02  0.17416278793E+03  0.17711553419E+03  0.00000000000E+00 0. -1.
         -5    1    5    5    0  502  0.14902873993E+02  0.34603100192E+02  0.29005264139E+03  0.29252708417E+03  0.47000000000E+01 0.  1.
         11    1    6    6    0    0 -0.40444318812E+02 -0.11692818418E+02  0.85948867952E+02  0.95706179680E+02  0.00000000000E+00 0. -1.
        -12    1    6    6    0    0  0.71011322906E+01 -0.82325546545E+02  0.19282113965E+03  0.20978063206E+03  0.00000000000E+00 0.  1.
</event>
<event>
12    1  0.8251070E-002  0.1970298E+03  0.7818608E-02  0.1152436E+00
         21   -1    0    0  501  502  0.00000000000E+00  0.00000000000E+00  0.73762841691E+03  0.73762841691E+03  0.00000000000E+00 0.  1.
         21   -1    0    0  502  503 -0.00000000000E+00 -0.00000000000E+00 -0.80909522027E+02  0.80909522027E+02  0.00000000000E+00 0.  1.
         -6    2    1    2    0  503 -0.35263884895E+02  0.87955728549E+02  0.57078583276E+03  0.60358393106E+03  0.17186431622E+03 0.  0.
        -24    2    3    3    0    0 -0.71845881890E+02  0.70007960878E+02  0.53139659551E+03  0.54671595343E+03  0.80330857588E+02 0.  0.
          6    2    1    2  501    0  0.35263884895E+02 -0.87955728549E+02  0.85933062120E+02  0.21495400788E+03  0.17274542707E+03 0.  0.
         24    2    5    5    0    0  0.12163916217E+02 -0.20228042231E+02  0.11105603843E+03  0.13896781186E+03  0.80134103293E+02 0.  0.
          5    1    5    5  501    0  0.23099968678E+02 -0.67727686318E+02 -0.25122976309E+02  0.75986196020E+02  0.47000000000E+01 0. -1.
        -11    1    6    6    0    0 -0.24074196310E+02 -0.36271153684E+02  0.51550064815E+02  0.67472755242E+02  0.00000000000E+00 0.  1.
         12    1    6    6    0    0  0.36238112527E+02  0.16043111454E+02  0.59505973615E+02  0.71495056616E+02  0.00000000000E+00 0. -1.
         -5    1    3    3    0  503  0.36581996995E+02  0.17947767671E+02  0.39389237247E+02  0.56867977627E+02  0.47000000000E+01 0.  1.
         13    1    4    4    0    0  0.74441035682E+01 -0.12136552466E+02  0.66300329546E+02  0.67811829953E+02  0.00000000000E+00 0. -1.
        -14    1    4    4    0    0 -0.79289985459E+02  0.82144513344E+02  0.46509626597E+03  0.47890412348E+03  0.00000000000E+00 0.  1.
</event>
<event>
12    1  0.8251070E-002  0.2270007E+03  0.7818608E-02  0.1128991E+00
         21   -1    0    0  501  502  0.00000000000E+00  0.00000000000E+00  0.13444913267E+03  0.13444913267E+03  0.00000000000E+00 0.  1.
         21   -1    0    0  502  503 -0.00000000000E+00 -0.00000000000E+00 -0.41514386746E+03  0.41514386746E+03  0.00000000000E+00 0. -1.
         -6    2    1    2    0  503  0.95628741350E+02  0.11065798147E+03 -0.21860043974E+03  0.31425273166E+03  0.17198424946E+03 0.  0.
        -24    2    3    3    0    0  0.20251228745E+02  0.41924624593E+00 -0.33857396854E+02  0.86247402670E+02  0.76694218247E+02 0.  0.
          6    2    1    2  501    0 -0.95628741350E+02 -0.11065798147E+03 -0.62094295046E+02  0.23534026848E+03  0.17360672642E+03 0.  0.
         24    2    5    5    0    0 -0.85958771982E+01 -0.10670018294E+03 -0.52813829672E+01  0.13122408054E+03  0.75716894849E+02 0.  0.
          5    1    5    5  501    0 -0.87032864152E+02 -0.39577985318E+01 -0.56812912078E+02  0.10411618794E+03  0.47000000000E+01 0. -1.
        -13    1    6    6    0    0 -0.29919830618E+02 -0.10172663372E+03  0.67317126230E+01  0.10624885989E+03  0.00000000000E+00 0.  1.
         14    1    6    6    0    0  0.21323953420E+02 -0.49735492136E+01 -0.12013095590E+02  0.24975220657E+02  0.00000000000E+00 0. -1.
         -5    1    3    3    0  503  0.75377512605E+02  0.11023873522E+03 -0.18474304289E+03  0.22800532899E+03  0.47000000000E+01 0.  1.
         13    1    4    4    0    0  0.35887090745E+02  0.76977076466E+01 -0.50400808806E+02  0.62348853345E+02  0.00000000000E+00 0. -1.
        -14    1    4    4    0    0 -0.15635862000E+02 -0.72784614006E+01  0.16543411952E+02  0.23898549325E+02  0.00000000000E+00 0.  1.
</event>
<event>
12    1  0.8251070E-002  0.1825337E+03  0.7818608E-02  0.1169907E+00
         21   -1    0    0  501  502  0.00000000000E+00  0.00000000000E+00  0.34559527468E+03  0.34559527468E+03  0.00000000000E+00 0.  1.
         21   -1    0    0  502  503 -0.00000000000E+00 -0.00000000000E+00 -0.18275728067E+03  0.18275728067E+03  0.00000000000E+00 0.  1.
         -6    2    1    2    0  503  0.50028425930E+02  0.34097216488E+02 -0.10755254282E+03  0.21186344461E+03  0.17220077271E+03 0.  0.
        -24    2    3    3    0    0 -0.81746109424E+01  0.13659698194E+02 -0.12472400286E+03  0.14765881320E+03  0.77418580496E+02 0.  0.
          6    2    1    2  501    0 -0.50028425930E+02 -0.34097216488E+02  0.27039053683E+03  0.31648911074E+03  0.15293414020E+03 0.  0.
         24    2    5    5    0    0 -0.56224011567E+02 -0.72168614793E+02  0.22958404986E+03  0.26014129775E+03  0.81210900794E+02 0.  0.
          5    1    5    5  501    0  0.61955856363E+01  0.38071398305E+02  0.40806486970E+02  0.56347812993E+02  0.47000000000E+01 0. -1.
        -13    1    6    6    0    0 -0.24761727680E+02 -0.61730170778E+02  0.21286686083E+03  0.22301582361E+03  0.00000000000E+00 0.  1.
         14    1    6    6    0    0 -0.31462283887E+02 -0.10438444015E+02  0.16717189026E+02  0.37125474135E+02  0.00000000000E+00 0. -1.
         -5    1    3    3    0  503  0.58203036873E+02  0.20437518294E+02  0.17171460041E+02  0.64204631415E+02  0.47000000000E+01 0.  1.
         11    1    4    4    0    0  0.15650204827E+02 -0.25338358543E+02 -0.28918624996E+02  0.41512024722E+02  0.00000000000E+00 0. -1.
        -12    1    4    4    0    0 -0.23824815770E+02  0.38998056737E+02 -0.95805377866E+02  0.10614678848E+03  0.00000000000E+00 0.  1.
</event>
<event>
12    1  0.8251070E-002  0.2076948E+03  0.7818608E-02  0.1143831E+00
         21   -1    0    0  501  502  0.00000000000E+00  0.00000000000E+00  0.12042408885E+04  0.12042408885E+04  0.00000000000E+00 0.  1.
         21   -1    0    0  502  503 -0.00000000000E+00 -0.00000000000E+00 -0.54802937995E+02  0.54802937995E+02  0.00000000000E+00 0. -1.
         -6    2    1    2    0  503 -0.93744315448E+02  0.68965066866E+02  0.19879536693E+03  0.28597730712E+03  0.16946753421E+03 0.  0.
        -24    2    3    3    0    0 -0.91327057491E+02  0.16367933210E+01  0.67568479211E+02  0.13839165194E+03  0.79015437874E+02 0.  0.
          6    2    1    2  501    0  0.93744315448E+02 -0.68965066866E+02  0.95064258353E+03  0.97306651933E+03  0.17202602212E+03 0.  0.
         24    2    5    5    0    0  0.42163970329E+02 -0.10625517568E+03  0.72825507780E+03  0.74170235416E+03  0.81847181213E+02 0.  0.
          5    1    5    5  501    0  0.51580345119E+02  0.37290108813E+02  0.22238750573E+03  0.23136416517E+03  0.47000000000E+01 0. -1.
        -11    1    6    6    0    0  0.37352144222E+02 -0.35155042122E+02  0.49893449610E+03  0.50156424420E+03  0.00000000000E+00 0.  1.
         12    1    6    6    0    0  0.48118261066E+01 -0.71100133558E+02  0.22932058170E+03  0.24013810996E+03  0.00000000000E+00 0. -1.
         -5    1    3    3    0  503 -0.24172579563E+01  0.67328273545E+02  0.13122688772E+03  0.14758565518E+03  0.47000000000E+01 0.  1.
         13    1    4    4    0    0 -0.52966026713E+02  0.26768118647E+02  0.70841869054E+02  0.92414839570E+02  0.00000000000E+00 0. -1.
        -14    1    4    4    0    0 -0.38361030778E+02 -0.25131325326E+02 -0.32733898427E+01  0.45976812374E+02  0.00000000000E+00 0.  1.
</event>
<event>
12    1  0.8251070E-002  0.1789627E+03  0.7818608E-02  0.1168968E+00
         21   -1    0    0  501  502  0.00000000000E+00  0.00000000000E+00  0.39628444104E+02  0.39628444104E+02  0.00000000000E+00 0. -1.
         21   -1    0    0  502  503 -0.00000000000E+00 -0.00000000000E+00 -0.84180461804E+03  0.84180461804E+03  0.00000000000E+00 0. -1.
         -6    2    1    2    0  503 -0.45304266202E+02  0.39602965688E+00 -0.49355706686E+03  0.52500118451E+03  0.17313298970E+03 0.  0.
        -24    2    3    3    0    0 -0.83505511952E+02  0.15794287829E+02 -0.44968483559E+03  0.46464139485E+03  0.80327731190E+02 0.  0.
          6    2    1    2  501    0  0.45304266202E+02 -0.39602965688E+00 -0.30861910708E+03  0.35643187763E+03  0.17246824856E+03 0.  0.
         24    2    5    5    0    0  0.91978244982E+00  0.41661725962E+02 -0.27424090786E+03  0.28612691488E+03  0.70171151219E+02 0.  0.
          5    1    5    5  501    0  0.44384483752E+02 -0.42057755619E+02 -0.34378199212E+02  0.70304962746E+02  0.47000000000E+01 0. -1.
        -13    1    6    6    0    0  0.19268280776E+02  0.38067655686E+01 -0.19865189946E+03  0.19962047808E+03  0.00000000000E+00 0.  1.
         14    1    6    6    0    0 -0.18348498326E+02  0.37854960393E+02 -0.75589008402E+02  0.86506436803E+02  0.00000000000E+00 0. -1.
         -5    1    3    3    0  503  0.38201245750E+02 -0.15398258172E+02 -0.43872231272E+02  0.60359789665E+02  0.47000000000E+01 0.  1.
         13    1    4    4    0    0 -0.37962634043E+02  0.46281612154E+02 -0.27994137104E+03  0.28626966383E+03  0.00000000000E+00 0. -1.
        -14    1    4    4    0    0 -0.45542877909E+02 -0.30487324325E+02 -0.16974346454E+03  0.17837173102E+03  0.00000000000E+00 0.  1.
</event>
<event>
12    1  0.8251070E-002  0.1769135E+03  0.7818608E-02  0.1171524E+00
         21   -1    0    0  501  502  0.00000000000E+00  0.00000000000E+00  0.13112950694E+03  0.13112950694E+03  0.00000000000E+00 0. -1.
         21   -1    0    0  502  503 -0.00000000000E+00 -0.00000000000E+00 -0.56901604596E+03  0.56901604596E+03  0.00000000000E+00 0. -1.
         -6    2    1    2    0  503  0.20674455780E+02 -0.17189950516E+02 -0.48790907039E+03  0.51899292132E+03  0.17485841098E+03 0.  0.
        -24    2    3    3    0    0  0.91854868151E+01 -0.65579776240E+02 -0.17966329887E+03  0.20672521998E+03  0.77918774338E+02 0.  0.
          6    2    1    2  501    0 -0.20674455780E+02  0.17189950516E+02  0.50022531360E+02  0.18115263158E+03  0.17202062308E+03 0.  0.
         24    2    5    5    0    0 -0.10091487899E+02 -0.29010895222E+02 -0.16487404745E+02  0.99346892438E+02  0.93029567087E+02 0.  0.
          5    1    5    5  501    0 -0.10582967881E+02  0.46200845738E+02  0.66509936105E+02  0.81805739143E+02  0.47000000000E+01 0. -1.
        -13    1    6    6    0    0  0.12084599900E+02 -0.28848640174E+02  0.32786367363E+02  0.45312553222E+02  0.00000000000E+00 0.  1.
         14    1    6    6    0    0 -0.22176087799E+02 -0.16225504772E+00 -0.49273772108E+02  0.54034339216E+02  0.00000000000E+00 0. -1.
         -5    1    3    3    0  503  0.11488968965E+02  0.48389825724E+02 -0.30824577152E+03  0.31226770134E+03  0.47000000000E+01 0.  1.
         13    1    4    4    0    0  0.95653159002E+01  0.93073482261E+01 -0.84902661073E+02  0.85945237545E+02  0.00000000000E+00 0. -1.
        -14    1    4    4    0    0 -0.37982908503E+00 -0.74887124466E+02 -0.94760637797E+02  0.12077998243E+03  0.00000000000E+00 0.  1.
</event>
<event>
12    1  0.8251070E-002  0.1758761E+03  0.7818608E-02  0.1172137E+00
         21   -1    0    0  503  502  0.00000000000E+00  0.00000000000E+00  0.34336251767E+03  0.34336251767E+03  0.00000000000E+00 0.  1.
         21   -1    0    0  501  503 -0.00000000000E+00 -0.00000000000E+00 -0.14518618469E+03  0.14518618469E+03  0.00000000000E+00 0.  1.
          6    2    1    2  501    0  0.98770991868E+01  0.30870937546E+02 -0.51983279393E+02  0.18339759922E+03  0.17286366359E+03 0.  0.
         24    2    3    3    0    0 -0.43895178952E+02  0.63911873369E+02 -0.44388692535E+02  0.11965648937E+03  0.79597770885E+02 0.  0.
         -6    2    1    2    0  502 -0.98770991868E+01 -0.30870937546E+02  0.25015961237E+03  0.30515110314E+03  0.17171718671E+03 0.  0.
        -24    2    5    5    0    0  0.35346970808E+02  0.16358325105E+02  0.20995826631E+03  0.22824819043E+03  0.80608682525E+02 0.  0.
          5    1    3    3  501    0  0.53772278139E+02 -0.33040935823E+02 -0.75945868577E+01  0.63741109857E+02  0.47000000000E+01 0. -1.
        -11    1    4    4    0    0  0.63798868403E+01  0.21917720008E+02 -0.48929930160E+02  0.53992846488E+02  0.00000000000E+00 0.  1.
         12    1    4    4    0    0 -0.50275065792E+02  0.41994153361E+02  0.45412376245E+01  0.65663642879E+02  0.00000000000E+00 0. -1.
         -5    1    5    5    0  502 -0.45224069995E+02 -0.47229262651E+02  0.40201346065E+02  0.76902912707E+02  0.47000000000E+01 0.  1.
         13    1    6    6    0    0  0.50874872717E+02 -0.99750604970E+01  0.17124057513E+03  0.17891643042E+03  0.00000000000E+00 0. -1.
        -14    1    6    6    0    0 -0.15527901909E+02  0.26333385602E+02  0.38717691181E+02  0.49331760006E+02  0.00000000000E+00 0.  1.
</event>
<event>
12    1  0.8251070E-002  0.1913933E+03  0.7818608E-02  0.1157694E+00
         21   -1    0    0  501  502  0.00000000000E+00  0.00000000000E+00  0.17708475342E+03  0.17708475342E+03  0.00000000000E+00 0.  1.
         21   -1    0    0  502  503 -0.00000000000E+00 -0.00000000000E+00 -0.26124694371E+03  0.26124694371E+03  0.00000000000E+00 0.  1.
         -6    2    1    2    0  503 -0.66915006682E+02 -0.34856089929E+02 -0.14400308334E+03  0.23780158607E+03  0.17355155200E+03 0.  0.
        -24    2    3    3    0    0 -0.59604195061E+02 -0.34737905529E+02 -0.13004148883E+02  0.10651459980E+03  0.80105367691E+02 0.  0.
          6    2    1    2  501    0  0.66915006682E+02  0.34856089929E+02  0.59840893052E+02  0.20053011107E+03  0.17589436557E+03 0.  0.
         24    2    5    5    0    0 -0.28317315112E+02  0.33332067045E+02  0.51494566609E+02  0.10480514606E+03  0.80121977149E+02 0.  0.
          5    1    5    5  501    0  0.95232321794E+02  0.15240228835E+01  0.83463264423E+01  0.95724965004E+02  0.47000000000E+01 0. -1.
        -13    1    6    6    0    0 -0.15083691915E+02  0.48952372157E+02  0.63098430128E+02  0.81272777646E+02  0.00000000000E+00 0.  1.
         14    1    6    6    0    0 -0.13233623197E+02 -0.15620305112E+02 -0.11603863519E+02  0.23532368416E+02  0.00000000000E+00 0. -1.
         -5    1    3    3    0  503 -0.73108116204E+01 -0.11818439980E+00 -0.13099893446E+03  0.13128698627E+03  0.47000000000E+01 0.  1.
         11    1    4    4    0    0 -0.41009288665E+02  0.12461919361E+02  0.18623828488E+02  0.46732303373E+02  0.00000000000E+00 0. -1.
        -12    1    4    4    0    0 -0.18594906396E+02 -0.47199824890E+02 -0.31627977371E+02  0.59782296427E+02  0.00000000000E+00 0.  1.
</event>
<event>
12    1  0.8251070E-002  0.1830570E+03  0.7818608E-02  0.1165039E+00
         21   -1    0    0  501  502  0.00000000000E+00  0.00000000000E+00  0.19911690662E+03  0.19911690662E+03  0.00000000000E+00 0.  1.
         21   -1    0    0  502  503 -0.00000000000E+00 -0.00000000000E+00 -0.20736931110E+03  0.20736931110E+03  0.00000000000E+00 0.  1.
         -6    2    1    2    0  503 -0.61487561177E+02  0.18249003814E+02 -0.93052257492E+02  0.20474158953E+03  0.17072389856E+03 0.  0.
        -24    2    3    3    0    0  0.10077859247E+02  0.39920832975E+02 -0.94152970160E+02  0.12981109409E+03  0.79315207908E+02 0.  0.
          6    2    1    2  501    0  0.61487561177E+02 -0.18249003814E+02  0.84799853013E+02  0.20174462818E+03  0.17145300700E+03 0.  0.
         24    2    5    5    0    0 -0.27418616668E+01 -0.30227218944E+02  0.10331807304E+03  0.13367179315E+03  0.79197989219E+02 0.  0.
          5    1    5    5  501    0  0.64229422843E+02  0.11978215130E+02 -0.18518220028E+02  0.68072835033E+02  0.47000000000E+01 0. -1.
        -11    1    6    6    0    0  0.35317808811E+02 -0.83442243985E+01  0.68950539746E+02  0.77917588716E+02  0.00000000000E+00 0.  1.
         12    1    6    6    0    0 -0.38059670478E+02 -0.21882994546E+02  0.34367533295E+02  0.55754204433E+02  0.00000000000E+00 0. -1.
         -5    1    3    3    0  503 -0.71565420424E+02 -0.21671829160E+02  0.11007126674E+01  0.74930495447E+02  0.47000000000E+01 0.  1.
         13    1    4    4    0    0  0.35504012340E+02  0.27182520442E+00 -0.16877550862E+02  0.39312345444E+02  0.00000000000E+00 0. -1.
        -14    1    4    4    0    0 -0.25426153093E+02  0.39649007770E+02 -0.77275419298E+02  0.90498748643E+02  0.00000000000E+00 0.  1.
</event>
<event>
12    1  0.8251070E-002  0.1808996E+03  0.7818608E-02  0.1167338E+00
         21   -1    0    0  503  502  0.00000000000E+00  0.00000000000E+00  0.22349387635E+03  0.22349387635E+03  0.00000000000E+00 0. -1.
         21   -1    0    0  501  503 -0.00000000000E+00 -0.00000000000E+00 -0.24877273293E+03  0.24877273293E+03  0.00000000000E+00 0. -1.
          6    2    1    2  501    0 -0.25408796811E+02  0.40900035546E+02 -0.16505809677E+03  0.24365578658E+03  0.17264283119E+03 0.  0.
         24    2    3    3    0    0 -0.67630524393E+02 -0.97596728562E+01 -0.13458505673E+03  0.17085622268E+03  0.80059804446E+02 0.  0.
         -6    2    1    2    0  502  0.25408796811E+02 -0.40900035546E+02  0.13977924019E+03  0.22861082271E+03  0.17437388683E+03 0.  0.
        -24    2    5    5    0    0 -0.31456095874E+01 -0.92232066028E+02  0.95090926095E+02  0.15465497849E+03  0.79744775886E+02 0.  0.
          5    1    3    3  501    0  0.42221727582E+02  0.50659708402E+02 -0.30473040036E+02  0.72799563903E+02  0.47000000000E+01 0. -1.
        -11    1    4    4    0    0 -0.33849061729E+02 -0.13674965980E+02 -0.49576598068E+01  0.36842123517E+02  0.00000000000E+00 0.  1.
         12    1    4    4    0    0 -0.33781462664E+02  0.39152931233E+01 -0.12962739693E+03  0.13401409916E+03  0.00000000000E+00 0. -1.
         -5    1    5    5    0  502  0.28554406398E+02  0.51332030482E+02  0.44688314093E+02  0.73955844223E+02  0.47000000000E+01 0.  1.
         13    1    6    6    0    0  0.20945167834E+02 -0.26568658268E+02  0.74375332187E+02  0.81708528904E+02  0.00000000000E+00 0. -1.
        -14    1    6    6    0    0 -0.24090777421E+02 -0.65663407760E+02  0.20715593908E+02  0.72946449581E+02  0.00000000000E+00 0.  1.
</event>
<event>
12    1  0.8251070E-002  0.2084534E+03  0.7818608E-02  0.1142937E+00
         21   -1    0    0  503  502  0.00000000000E+00  0.00000000000E+00  0.20239673439E+03  0.20239673439E+03  0.00000000000E+00 0. -1.
         21   -1    0    0  501  503 -0.00000000000E+00 -0.00000000000E+00 -0.23100117202E+03  0.23100117202E+03  0.00000000000E+00 0.  1.
          6    2    1    2  501    0  0.10785118443E+03 -0.47143478238E+02  0.44558647435E+02  0.21247788725E+03  0.17119285612E+03 0.  0.
         24    2    3    3    0    0  0.56618529241E+02 -0.36401513876E+02 -0.53036935739E+02  0.10163041271E+03  0.54636033621E+02 0.  0.
         -6    2    1    2    0  502 -0.10785118443E+03  0.47143478238E+02 -0.73163085066E+02  0.22092001917E+03  0.17204194933E+03 0.  0.
        -24    2    5    5    0    0 -0.75849073282E+02  0.65634152414E+02  0.11225744163E+02  0.12867250078E+03  0.79810220181E+02 0.  0.
          5    1    3    3  501    0  0.51232655185E+02 -0.10741964363E+02  0.97595583175E+02  0.11084747454E+03  0.47000000000E+01 0. -1.
        -13    1    4    4    0    0  0.66437451643E+02 -0.25685744955E+02 -0.49290436652E+02  0.86621242314E+02  0.00000000000E+00 0.  1.
         14    1    4    4    0    0 -0.98189224014E+01 -0.10715768920E+02 -0.37464990879E+01  0.15009170400E+02  0.00000000000E+00 0. -1.
         -5    1    5    5    0  502 -0.32002111145E+02 -0.18490674176E+02 -0.84388829229E+02  0.92247518383E+02  0.47000000000E+01 0.  1.
         11    1    6    6    0    0 -0.28204409976E+01  0.29897634590E+02  0.32884652200E+02  0.44533400856E+02  0.00000000000E+00 0. -1.
        -12    1    6    6    0    0 -0.73028632284E+02  0.35736517825E+02 -0.21658908037E+02  0.84139099929E+02  0.00000000000E+00 0.  1.
</event>
<event>
12    1  0.8251070E-002  0.1831724E+03  0.7818608E-02  0.1165521E+00
         21   -1    0    0  503  502  0.00000000000E+00  0.00000000000E+00  0.19914495401E+03  0.19914495401E+03  0.00000000000E+00 0. -1.
         21   -1    0    0  501  503 -0.00000000000E+00 -0.00000000000E+00 -0.34275442360E+03  0.34275442360E+03  0.00000000000E+00 0. -1.
          6    2    1    2  501    0 -0.37593640943E+02 -0.39050329303E+02 -0.26629727066E+03  0.32143527009E+03  0.17166300253E+03 0.  0.
         24    2    3    3    0    0 -0.79618258289E+02 -0.33626300570E+02 -0.25265726818E+03  0.27667336421E+03  0.72406216274E+02 0.  0.
         -6    2    1    2    0  502  0.37593640943E+02  0.39050329303E+02  0.12268780107E+03  0.22046410751E+03  0.17496832888E+03 0.  0.
        -24    2    5    5    0    0 -0.34555552070E+02 -0.79011391536E+01  0.93704487662E+02  0.12951319274E+03  0.82076926758E+02 0.  0.
          5    1    3    3  501    0  0.42024617346E+02 -0.54240287336E+01 -0.13640002484E+02  0.44761905886E+02  0.47000000000E+01 0. -1.
        -11    1    4    4    0    0 -0.13449771020E+02 -0.32985387160E+01 -0.11280349578E+00  0.13848805825E+02  0.00000000000E+00 0.  1.
         12    1    4    4    0    0 -0.66168487269E+02 -0.30327761854E+02 -0.25254446468E+03  0.26282455838E+03  0.00000000000E+00 0. -1.
         -5    1    5    5    0  502  0.72149193013E+02  0.46951468457E+02  0.28983313413E+02  0.90950914779E+02  0.47000000000E+01 0.  1.
         13    1    6    6    0    0  0.68925483866E+01 -0.11989725669E+02  0.86065033061E+02  0.87169092348E+02  0.00000000000E+00 0. -1.
        -14    1    6    6    0    0 -0.41448100457E+02  0.40885865149E+01  0.76394546008E+01  0.42344100389E+02  0.00000000000E+00 0.  1.
</event>
<event>
12    1  0.8251070E-002  0.2131646E+03  0.7818608E-02  0.1139186E+00
         21   -1    0    0  501  502  0.00000000000E+00  0.00000000000E+00  0.55787359113E+02  0.55787359113E+02  0.00000000000E+00 0. -1.
         21   -1    0    0  502  503 -0.00000000000E+00 -0.00000000000E+00 -0.96843292895E+03  0.96843292895E+03  0.00000000000E+00 0.  1.
         -6    2    1    2    0  503 -0.12297090838E+03  0.28117397527E+02 -0.66133768363E+03  0.69468300693E+03  0.17118561846E+03 0.  0.
        -24    2    3    3    0    0 -0.10389791713E+03  0.13246955900E+02 -0.25593692829E+03  0.28853430083E+03  0.82329049970E+02 0.  0.
          6    2    1    2  501    0  0.12297090838E+03 -0.28117397527E+02 -0.25130788620E+03  0.32953728113E+03  0.17183344738E+03 0.  0.
         24    2    5    5    0    0  0.81221645340E+02 -0.79633322401E+02 -0.12193642797E+03  0.18408641079E+03  0.77980077337E+02 0.  0.
          5    1    5    5  501    0  0.41749263043E+02  0.51515924874E+02 -0.12937145823E+03  0.14545087035E+03  0.47000000000E+01 0. -1.
        -13    1    6    6    0    0 -0.10648181989E+02 -0.20570248206E+02 -0.44613373196E+02  0.50268001341E+02  0.00000000000E+00 0.  1.
         14    1    6    6    0    0  0.91869827329E+02 -0.59063074195E+02 -0.77323054777E+02  0.13381840945E+03  0.00000000000E+00 0. -1.
         -5    1    3    3    0  503 -0.19072991252E+02  0.14870441627E+02 -0.40540075534E+03  0.40614870610E+03  0.47000000000E+01 0.  1.
         11    1    4    4    0    0 -0.10016960545E+03 -0.10404547459E+02 -0.23857065504E+03  0.25895590727E+03  0.00000000000E+00 0. -1.
        -12    1    4    4    0    0 -0.37283116838E+01  0.23651503360E+02 -0.17366273252E+02  0.29578393564E+02  0.00000000000E+00 0.  1.
</event>
<event>
12    1  0.8251070E-002  0.2614772E+03  0.7818608E-02  0.1106285E+00
         21   -1    0    0  501  502  0.00000000000E+00  0.00000000000E+00  0.78311905097E+03  0.78311905097E+03  0.00000000000E+00 0.  1.
         21   -1    0    0  502  503 -0.00000000000E+00 -0.00000000000E+00 -0.94111687979E+02  0.94111687979E+02  0.00000000000E+00 0.  1.
         -6    2    1    2    0  503 -0.57132625390E+02  0.18860153002E+03  0.22594658703E+03  0.34544544483E+03  0.17159842993E+03 0.  0.
        -24    2    3    3    0    0 -0.84122702909E+02  0.11595378606E+03  0.20948940394E+03  0.26607865163E+03  0.79938281471E+02 0.  0.
          6    2    1    2  501    0  0.57132625390E+02 -0.18860153002E+03  0.46306077596E+03  0.53178529412E+03  0.17185936924E+03 0.  0.
         24    2    5    5    0    0  0.73047163723E+02 -0.65553177547E+02  0.30722237720E+03  0.33253202286E+03  0.80986727074E+02 0.  0.
          5    1    5    5  501    0 -0.15914538333E+02 -0.12304835248E+03  0.15583839877E+03  0.19925327126E+03  0.47000000000E+01 0. -1.
        -11    1    6    6    0    0 -0.17412094216E+02 -0.11878170144E+02  0.68357281308E+02  0.71533138186E+02  0.00000000000E+00 0.  1.
         12    1    6    6    0    0  0.90459257939E+02 -0.53675007403E+02  0.23886509589E+03  0.26099888467E+03  0.00000000000E+00 0. -1.
         -5    1    3    3    0  503  0.26990077519E+02  0.72647743963E+02  0.16457183086E+02  0.79366793198E+02  0.47000000000E+01 0. -1.
         13    1    4    4    0    0 -0.77242492525E+02  0.49127854269E+02  0.15305178044E+03  0.17833899241E+03  0.00000000000E+00 0. -1.
        -14    1    4    4    0    0 -0.68802103840E+01  0.66825931791E+02  0.56437623500E+02  0.87739659225E+02  0.00000000000E+00 0.  1.
</event>
<event>
12    1  0.8251070E-002  0.2018790E+03  0.7818608E-02  0.1148294E+00
         21   -1    0    0  501  502  0.00000000000E+00  0.00000000000E+00  0.14594266756E+04  0.14594266756E+04  0.00000000000E+00 0.  1.
         21   -1    0    0  502  503 -0.00000000000E+00 -0.00000000000E+00 -0.82832189780E+02  0.82832189780E+02  0.00000000000E+00 0. -1.
         -6    2    1    2    0  503 -0.10099774774E+01 -0.10336721840E+03  0.59618390078E+02  0.20989961208E+03  0.17267800329E+03 0.  0.
        -24    2    3    3    0    0 -0.30090732251E+02 -0.95721617228E+00  0.64077567846E+02  0.10324374904E+03  0.75146314510E+02 0.  0.
          6    2    1    2  501    0  0.10099774774E+01  0.10336721840E+03  0.13169760957E+04  0.13323592533E+04  0.17340513605E+03 0.  0.
         24    2    5    5    0    0 -0.47310117246E+02  0.11253808686E+03  0.84865476212E+03  0.86143898627E+03  0.83421541552E+02 0.  0.
          5    1    5    5  501    0  0.48320094724E+02 -0.91708684644E+01  0.46832133362E+03  0.47092026704E+03  0.47000000000E+01 0. -1.
        -11    1    6    6    0    0  0.90484933876E+01  0.78872530433E+02  0.54638248970E+03  0.55212007420E+03  0.00000000000E+00 0.  1.
         12    1    6    6    0    0 -0.56358610634E+02  0.33665556431E+02  0.30227227243E+03  0.30931891206E+03  0.00000000000E+00 0. -1.
         -5    1    3    3    0  503  0.29080754773E+02 -0.10241000223E+03 -0.44591777682E+01  0.10665586304E+03  0.47000000000E+01 0.  1.
         11    1    4    4    0    0 -0.34302849414E+02  0.65457951865E+01 -0.35218173389E+01  0.35098947419E+02  0.00000000000E+00 0. -1.
        -12    1    4    4    0    0  0.42121171632E+01 -0.75030113587E+01  0.67599385185E+02  0.68144801620E+02  0.00000000000E+00 0.  1.
</event>
<event>
12    1  0.8251070E-002  0.2552530E+03  0.7818608E-02  0.1111752E+00
         21   -1    0    0  501  502  0.00000000000E+00  0.00000000000E+00  0.24628327348E+04  0.24628327348E+04  0.00000000000E+00 0.  1.
         21   -1    0    0  502  503 -0.00000000000E+00 -0.00000000000E+00 -0.36470580845E+02  0.36470580845E+02  0.00000000000E+00 0.  1.
         -6    2    1    2    0  503 -0.15720814346E+03  0.73411268275E+02  0.54118031390E+03  0.59835626353E+03  0.18721771091E+03 0.  0.
        -24    2    3    3    0    0 -0.92895913685E+02 -0.19722686659E+02  0.38985745565E+03  0.40933062007E+03  0.80895523042E+02 0.  0.
          6    2    1    2  501    0  0.15720814346E+03 -0.73411268275E+02  0.18851818401E+04  0.19009470521E+04  0.17200438999E+03 0.  0.
         24    2    5    5    0    0  0.18575927366E+03 -0.55258843370E+02  0.15713877917E+04  0.15852993492E+04  0.79714410047E+02 0.  0.
          5    1    5    5  501    0 -0.28551130200E+02 -0.18152424905E+02  0.31379404836E+03  0.31564770291E+03  0.47000000000E+01 0. -1.
        -13    1    6    6    0    0  0.16786867367E+03 -0.46170556558E+02  0.15229526096E+04  0.15328719004E+04  0.00000000000E+00 0.  1.
         14    1    6    6    0    0  0.17890599983E+02 -0.90882868110E+01  0.48435182072E+02  0.52427448796E+02  0.00000000000E+00 0. -1.
         -5    1    3    3    0  503 -0.64312229772E+02  0.93133954934E+02  0.15132285825E+03  0.18902564347E+03  0.47000000000E+01 0.  1.
         11    1    4    4    0    0 -0.46481171095E+02  0.10115283730E+02  0.30099401243E+03  0.30472973886E+03  0.00000000000E+00 0. -1.
        -12    1    4    4    0    0 -0.46414742589E+02 -0.29837970389E+02  0.88863443227E+02  0.10460088120E+03  0.00000000000E+00 0.  1.
</event>
<event>
12    1  0.8251070E-002  0.2132190E+03  0.7818608E-02  0.1139158E+00
         21   -1    0    0  501  502  0.00000000000E+00  0.00000000000E+00  0.10816698553E+03  0.10816698553E+03  0.00000000000E+00 0. -1.
         21   -1    0    0  502  503 -0.00000000000E+00 -0.00000000000E+00 -0.58473855335E+03  0.58473855335E+03  0.00000000000E+00 0. -1.
         -6    2    1    2    0  503  0.12188700137E+03  0.31661410465E+02 -0.42290216228E+03  0.47361228606E+03  0.17205659718E+03 0.  0.
        -24    2    3    3    0    0  0.12226117346E+03 -0.12433741054E+01 -0.41405935191E+03  0.43921533637E+03  0.80719417056E+02 0.  0.
          6    2    1    2  501    0 -0.12188700137E+03 -0.31661410465E+02 -0.53669405540E+02  0.21929325282E+03  0.17131911634E+03 0.  0.
         24    2    5    5    0    0 -0.84507668359E+02 -0.47325244671E+02  0.26976775528E+02  0.12891368234E+03  0.80683122665E+02 0.  0.
          5    1    5    5  501    0 -0.37379333014E+02  0.15663834206E+02 -0.80646181068E+02  0.90379570476E+02  0.47000000000E+01 0. -1.
        -13    1    6    6    0    0 -0.61469960204E+02 -0.49896439276E+02 -0.15358082000E+02  0.80647884923E+02  0.00000000000E+00 0.  1.
         14    1    6    6    0    0 -0.23037708155E+02  0.25711946049E+01  0.42334857528E+02  0.48265797420E+02  0.00000000000E+00 0. -1.
         -5    1    3    3    0  503 -0.37417208454E+00  0.32904784571E+02 -0.88428103682E+01  0.34396949685E+02  0.47000000000E+01 0.  1.
         11    1    4    4    0    0  0.10890524225E+03 -0.11677133042E+02 -0.23405948897E+03  0.25841933288E+03  0.00000000000E+00 0. -1.
        -12    1    4    4    0    0  0.13355931202E+02  0.10433758936E+02 -0.17999986293E+03  0.18079600350E+03  0.00000000000E+00 0.  1.
</event>
<event>
12    1  0.8251070E-002  0.1797601E+03  0.7818608E-02  0.1168076E+00
         21   -1    0    0  503  502  0.00000000000E+00  0.00000000000E+00  0.11075830923E+04  0.11075830923E+04  0.00000000000E+00 0. -1.
         21   -1    0    0  501  503 -0.00000000000E+00 -0.00000000000E+00 -0.63278031924E+02  0.63278031924E+02  0.00000000000E+00 0. -1.
          6    2    1    2  501    0  0.50059721204E+02 -0.32302355586E+01  0.92090630634E+02  0.20182758622E+03  0.17244500631E+03 0.  0.
         24    2    3    3    0    0 -0.19656400001E+02  0.31573992146E+02  0.87659713626E+02  0.12363938476E+03  0.78861784349E+02 0.  0.
         -6    2    1    2    0  502 -0.50059721204E+02  0.32302355586E+01  0.95221442972E+03  0.96903353798E+03  0.17261885022E+03 0.  0.
        -24    2    5    5    0    0 -0.24495624102E+02 -0.65298581896E+02  0.59853747452E+03  0.60784217524E+03  0.79756261126E+02 0.  0.
          5    1    3    3  501    0  0.69716121205E+02 -0.34804227705E+02  0.44309170076E+01  0.78188201460E+02  0.47000000000E+01 0. -1.
        -11    1    4    4    0    0 -0.14176918176E+02  0.40813703918E+02  0.88525126105E+01  0.44103405945E+02  0.00000000000E+00 0.  1.
         12    1    4    4    0    0 -0.54794818246E+01 -0.92397117714E+01  0.78807201016E+02  0.79535978819E+02  0.00000000000E+00 0. -1.
         -5    1    5    5    0  502 -0.25564097102E+02  0.68528817455E+02  0.35367695519E+03  0.36119136274E+03  0.47000000000E+01 0.  1.
         11    1    6    6    0    0  0.36613756222E+01 -0.29164890379E+02  0.47785237491E+03  0.47875556259E+03  0.00000000000E+00 0. -1.
        -12    1    6    6    0    0 -0.28156999724E+02 -0.36133691517E+02  0.12068509962E+03  0.12908661265E+03  0.00000000000E+00 0.  1.
</event>
<event>
12    1  0.8251070E-002  0.1940858E+03  0.7818608E-02  0.1155070E+00
         21   -1    0    0  503  502  0.00000000000E+00  0.00000000000E+00  0.73021470274E+03  0.73021470274E+03  0.00000000000E+00 0.  1.
         21   -1    0    0  501  503 -0.00000000000E+00 -0.00000000000E+00 -0.58396396913E+02  0.58396396913E+02  0.00000000000E+00 0.  1.
          6    2    1    2  501    0  0.79230545273E+02  0.36740894903E+02  0.47426179359E+03  0.51243881527E+03  0.17332604498E+03 0.  0.
         24    2    3    3    0    0  0.25468613062E+02  0.78842006417E+02  0.38208093283E+03  0.39762483512E+03  0.72491089436E+02 0.  0.
         -6    2    1    2    0  502 -0.79230545273E+02 -0.36740894903E+02  0.19755651224E+03  0.27617228439E+03  0.17209062285E+03 0.  0.
        -24    2    5    5    0    0 -0.74231948156E+02 -0.92431358934E+01  0.41411875952E+02  0.11747650573E+03  0.80560339124E+02 0.  0.
          5    1    3    3  501    0  0.53761932211E+02 -0.42101111514E+02  0.92180860759E+02  0.11481398014E+03  0.47000000000E+01 0. -1.
        -13    1    4    4    0    0 -0.17235885942E+02  0.11229778139E+02  0.16509618503E+03  0.16637287638E+03  0.00000000000E+00 0.  1.
         14    1    4    4    0    0  0.42704499004E+02  0.67612228278E+02  0.21698474780E+03  0.23125195875E+03  0.00000000000E+00 0. -1.
         -5    1    5    5    0  502 -0.49985971172E+01 -0.27497759010E+02  0.15614463628E+03  0.15869577866E+03  0.47000000000E+01 0.  1.
         11    1    6    6    0    0 -0.49746506023E+02  0.21709045133E+02  0.53488720313E+02  0.76203941517E+02  0.00000000000E+00 0. -1.
        -12    1    6    6    0    0 -0.24485442133E+02 -0.30952181026E+02 -0.12076844361E+02  0.41272564210E+02  0.00000000000E+00 0.  1.
</event>
<event>
12    1  0.8251070E-002  0.2391449E+03  0.7818608E-02  0.1120481E+00
         21   -1    0    0  501  502  0.00000000000E+00  0.00000000000E+00  0.11939445100E+03  0.11939445100E+03  0.00000000000E+00 0.  1.
         21   -1    0    0  502  503 -0.00000000000E+00 -0.00000000000E+00 -0.58291411140E+03  0.58291411140E+03  0.00000000000E+00 0. -1.
         -6    2    1    2    0  503  0.10494707272E+03 -0.12840704664E+03 -0.38129431875E+03  0.45008403517E+03  0.17230212854E+03 0.  0.
        -24    2    3    3    0    0  0.13362830455E+03 -0.96269274379E+02 -0.23680597318E+03  0.29923834756E+03  0.79638073482E+02 0.  0.
          6    2    1    2  501    0 -0.10494707272E+03  0.12840704664E+03 -0.82225341650E+02  0.25222452723E+03  0.17132993792E+03 0.  0.
         24    2    5    5    0    0 -0.14127178484E+03  0.91198411251E+02 -0.68915152493E+02  0.19834300542E+03  0.79471895334E+02 0.  0.
          5    1    5    5  501    0  0.36324712115E+02  0.37208635384E+02 -0.13310189157E+02  0.53881521812E+02  0.47000000000E+01 0. -1.
        -13    1    6    6    0    0 -0.57106859270E+02  0.23342186676E+02  0.12571489548E+02  0.62961046719E+02  0.00000000000E+00 0.  1.
         14    1    6    6    0    0 -0.84164925569E+02  0.67856224575E+02 -0.81486642041E+02  0.13538195870E+03  0.00000000000E+00 0. -1.
         -5    1    3    3    0  503 -0.28681231825E+02 -0.32137772257E+02 -0.14448834557E+03  0.15084568761E+03  0.47000000000E+01 0.  1.
         11    1    4    4    0    0 -0.73799618105E+01 -0.12778556134E+02 -0.42868578571E+02  0.45337295485E+02  0.00000000000E+00 0. -1.
        -12    1    4    4    0    0  0.14100826636E+03 -0.83490718245E+02 -0.19393739461E+03  0.25390105207E+03  0.00000000000E+00 0.  1.
</event>
<event>
12    1  0.8251070E-002  0.1804758E+03  0.7818608E-02  0.1168103E+00
         21   -1    0    0  501  502  0.00000000000E+00  0.00000000000E+00  0.20333259414E+03  0.20333259414E+03  0.00000000000E+00 0. -1.
         21   -1    0    0  502  503 -0.00000000000E+00 -0.00000000000E+00 -0.28099513929E+03  0.28099513929E+03  0.00000000000E+00 0. -1.
         -6    2    1    2    0  503  0.34398841505E+02 -0.19055893263E+02 -0.19922466570E+03  0.26672978603E+03  0.17293901806E+03 0.  0.
        -24    2    3    3    0    0  0.62593321171E+02 -0.32897933150E+02 -0.20834191676E+03  0.23368822101E+03  0.78763141765E+02 0.  0.
          6    2    1    2  501    0 -0.34398841505E+02  0.19055893263E+02  0.12156212056E+03  0.21759794740E+03  0.17613946233E+03 0.  0.
         24    2    5    5    0    0 -0.81021780710E+02  0.21955501579E+02  0.12446617120E+03  0.17055934943E+03  0.80944986920E+02 0.  0.
          5    1    5    5  501    0  0.46622939205E+02 -0.28996083159E+01 -0.29040506357E+01  0.47038597966E+02  0.47000000000E+01 0. -1.
        -11    1    6    6    0    0 -0.33345812171E+02 -0.29754911494E+02  0.62414577291E+02  0.76765079338E+02  0.00000000000E+00 0.  1.
         12    1    6    6    0    0 -0.47675968540E+02  0.51710413073E+02  0.62051593904E+02  0.93794270094E+02  0.00000000000E+00 0. -1.
         -5    1    3    3    0  503 -0.28194479665E+02  0.13842039887E+02  0.91172510596E+01  0.33041565016E+02  0.47000000000E+01 0.  1.
         11    1    4    4    0    0  0.31080709281E+02 -0.54503057430E+02 -0.93023291719E+02  0.11220484197E+03  0.00000000000E+00 0. -1.
        -12    1    4    4    0    0  0.31512611890E+02  0.21605124280E+02 -0.11531862504E+03  0.12148337905E+03  0.00000000000E+00 0.  1.
</event>
<event>
12    1  0.8251070E-002  0.2068802E+03  0.7818608E-02  0.1144264E+00
         21   -1    0    0  501  502  0.00000000000E+00  0.00000000000E+00  0.11232327209E+04  0.11232327209E+04  0.00000000000E+00 0. -1.
         21   -1    0    0  502  503 -0.00000000000E+00 -0.00000000000E+00 -0.54882214942E+02  0.54882214942E+02  0.00000000000E+00 0. -1.
         -6    2    1    2    0  503  0.50447602435E+02 -0.10364201409E+03  0.20758532700E+03  0.29307181651E+03  0.17179288101E+03 0.  0.
        -24    2    3    3    0    0  0.77303821511E+02 -0.10507888163E+03  0.10156802522E+03  0.18359542924E+03  0.79835867297E+02 0.  0.
          6    2    1    2  501    0 -0.50447602435E+02  0.10364201409E+03  0.86076517899E+03  0.88504311937E+03  0.17058136507E+03 0.  0.
         24    2    5    5    0    0 -0.58288613264E+02  0.26848853324E+02  0.69036644711E+03  0.69791618700E+03  0.79766844164E+02 0.  0.
          5    1    5    5  501    0  0.78410108291E+01  0.76793160762E+02  0.17039873188E+03  0.18712693237E+03  0.47000000000E+01 0. -1.
        -11    1    6    6    0    0 -0.24054482785E+02 -0.70720982239E+01  0.52683236376E+03  0.52742864183E+03  0.00000000000E+00 0.  1.
         12    1    6    6    0    0 -0.34234130479E+02  0.33920951547E+02  0.16353408335E+03  0.17048754517E+03  0.00000000000E+00 0. -1.
         -5    1    3    3    0  503 -0.26856219076E+02  0.14368675402E+01  0.10601730178E+03  0.10947638726E+03  0.47000000000E+01 0.  1.
         13    1    4    4    0    0  0.70088423126E+01 -0.68094805269E+02  0.23910296371E+02  0.72510196853E+02  0.00000000000E+00 0. -1.
        -14    1    4    4    0    0  0.70294979198E+02 -0.36984076357E+02  0.77657728852E+02  0.11108523239E+03  0.00000000000E+00 0.  1.
</event>
<event>
12    1  0.8251070E-002  0.2521497E+03  0.7818608E-02  0.1112019E+00
         21   -1    0    0  503  502  0.00000000000E+00  0.00000000000E+00  0.40807422043E+03  0.40807422043E+03  0.00000000000E+00 0. -1.
         21   -1    0    0  501  503 -0.00000000000E+00 -0.00000000000E+00 -0.18518613032E+03  0.18518613032E+03  0.00000000000E+00 0.  1.
          6    2    1    2  501    0  0.18305268724E+03 -0.20612074193E+02  0.23003847388E+03  0.34100924843E+03  0.17157058065E+03 0.  0.
         24    2    3    3    0    0  0.10051553580E+03 -0.72888609171E+02  0.98009665956E+02  0.17669578703E+03  0.78736168617E+02 0.  0.
         -6    2    1    2    0  502 -0.18305268724E+03  0.20612074193E+02 -0.71503837698E+01  0.25225110232E+03  0.17218114509E+03 0.  0.
        -24    2    5    5    0    0 -0.50521357845E+02  0.60549988007E+02 -0.11388289257E+02  0.11368833649E+03  0.81096461545E+02 0.  0.
          5    1    3    3  501    0  0.82537151438E+02  0.52276534977E+02  0.13202880792E+03  0.16431346140E+03  0.47000000000E+01 0. -1.
        -13    1    4    4    0    0  0.23013597030E+02 -0.61862831484E+02  0.61891179325E+02  0.90482891453E+02  0.00000000000E+00 0.  1.
         14    1    4    4    0    0  0.77501938772E+02 -0.11025777687E+02  0.36118486631E+02  0.86212895576E+02  0.00000000000E+00 0. -1.
         -5    1    5    5    0  502 -0.13253132940E+03 -0.39937913814E+02  0.42379054873E+01  0.13856276583E+03  0.47000000000E+01 0.  1.
         11    1    6    6    0    0 -0.22322909343E+02  0.62433857840E+01  0.31394359532E+02  0.39024325209E+02  0.00000000000E+00 0. -1.
        -12    1    6    6    0    0 -0.28198448502E+02  0.54306602223E+02 -0.42782648789E+02  0.74664011280E+02  0.00000000000E+00 0.  1.
</event>
<event>
12    1  0.8251070E-002  0.1766890E+03  0.7818608E-02  0.1171844E+00
         21   -1    0    0  503  502  0.00000000000E+00  0.00000000000E+00  0.71876429188E+02  0.71876429188E+02  0.00000000000E+00 0.  1.
         21   -1    0    0  501  503 -0.00000000000E+00 -0.00000000000E+00 -0.79540437785E+03  0.79540437785E+03  0.00000000000E+00 0. -1.
          6    2    1    2  501    0  0.27714530863E+02 -0.14679115876E+01 -0.68234475962E+02  0.18940682425E+03  0.17449570590E+03 0.  0.
         24    2    3    3    0    0  0.12104471114E+02 -0.64216926532E+02 -0.68408392530E+02  0.12457447824E+03  0.81047890694E+02 0.  0.
         -6    2    1    2    0  502 -0.27714530863E+02  0.14679115876E+01 -0.65529347270E+03  0.67787398279E+03  0.17126981987E+03 0.  0.
        -24    2    5    5    0    0  0.39764712620E+01  0.10669999377E+02 -0.63218453526E+03  0.63731401454E+03  0.79888705649E+02 0.  0.
          5    1    3    3  501    0  0.15610059748E+02  0.62749014944E+02  0.17391656735E+00  0.64832346007E+02  0.47000000000E+01 0. -1.
        -13    1    4    4    0    0 -0.19544273083E+01 -0.81663418328E+02 -0.52722606799E+02  0.97223489686E+02  0.00000000000E+00 0.  1.
         14    1    4    4    0    0  0.14058898423E+02  0.17446491796E+02 -0.15685785731E+02  0.27350988554E+02  0.00000000000E+00 0. -1.
         -5    1    5    5    0  502 -0.31691002125E+02 -0.92020877897E+01 -0.23108937437E+02  0.40559968255E+02  0.47000000000E+01 0.  1.
         13    1    6    6    0    0 -0.32036464180E+02 -0.13090622992E+02 -0.19907290047E+03  0.20205870224E+03  0.00000000000E+00 0. -1.
        -14    1    6    6    0    0  0.36012935442E+02  0.23760622369E+02 -0.43311163479E+03  0.43525531230E+03  0.00000000000E+00 0.  1.
</event>
<event>
12    1  0.8251070E-002  0.2303415E+03  0.7818608E-02  0.1126716E+00
         21   -1    0    0  501  502  0.00000000000E+00  0.00000000000E+00  0.46698326222E+03  0.46698326222E+03  0.00000000000E+00 0. -1.
         21   -1    0    0  502  503 -0.00000000000E+00 -0.00000000000E+00 -0.11701936675E+03  0.11701936675E+03  0.00000000000E+00 0. -1.
         -6    2    1    2    0  503  0.14982862375E+03  0.29141397028E+02  0.11843975981E+03  0.25741320214E+03  0.17010509227E+03 0.  0.
        -24    2    3    3    0    0  0.12180699190E+03 -0.40679457345E+02  0.69528430805E+02  0.16755458173E+03  0.82149702631E+02 0.  0.
          6    2    1    2  501    0 -0.14982862375E+03 -0.29141397028E+02  0.23152413566E+03  0.32658942683E+03  0.17250910357E+03 0.  0.
         24    2    5    5    0    0 -0.39894421720E+02 -0.28083600474E+02  0.17045527484E+03  0.20073974082E+03  0.94133890401E+02 0.  0.
          5    1    5    5  501    0 -0.10993420203E+03 -0.10577965543E+01  0.61068860815E+02  0.12584968602E+03  0.47000000000E+01 0. -1.
        -13    1    6    6    0    0 -0.52938511611E+02 -0.47425585166E+02  0.16019376916E+03  0.17525329046E+03  0.00000000000E+00 0.  1.
         14    1    6    6    0    0  0.13044089891E+02  0.19341984693E+02  0.10261505685E+02  0.25486450358E+02  0.00000000000E+00 0. -1.
         -5    1    3    3    0  503  0.28021631854E+02  0.69820854373E+02  0.48911329004E+02  0.89858620410E+02  0.47000000000E+01 0.  1.
         11    1    4    4    0    0  0.83272185181E+02 -0.46353717378E+02  0.82959603615E+02  0.12635355069E+03  0.00000000000E+00 0. -1.
        -12    1    4    4    0    0  0.38534806715E+02  0.56742600334E+01 -0.13431172810E+02  0.41201031038E+02  0.00000000000E+00 0.  1.
</event>
<event>
12    1  0.8251070E-002  0.2512155E+03  0.7818608E-02  0.1112807E+00
         21   -1    0    0  501  502  0.00000000000E+00  0.00000000000E+00  0.59585691967E+02  0.59585691967E+02  0.00000000000E+00 0.  1.
         21   -1    0    0  502  503 -0.00000000000E+00 -0.00000000000E+00 -0.11690165012E+04  0.11690165012E+04  0.00000000000E+00 0. -1.
         -6    2    1    2    0  503  0.13978622819E+03 -0.11531821761E+03 -0.36203071427E+03  0.44065346883E+03  0.17398494362E+03 0.  0.
        -24    2    3    3    0    0  0.97006230979E+02 -0.65339954767E+02 -0.10847931340E+03  0.17866423660E+03  0.80458868165E+02 0.  0.
          6    2    1    2  501    0 -0.13978622819E+03  0.11531821761E+03 -0.74740009500E+03  0.78794872438E+03  0.17151620722E+03 0.  0.
         24    2    5    5    0    0 -0.13948279659E+03  0.13905821186E+03 -0.72268799524E+03  0.75335888089E+03  0.80492410387E+02 0.  0.
          5    1    5    5  501    0 -0.30343159863E+00 -0.23739994250E+02 -0.24712099766E+02  0.34589843489E+02  0.47000000000E+01 0. -1.
        -11    1    6    6    0    0 -0.82066659192E+02  0.10086210516E+03 -0.33059994625E+03  0.35525262176E+03  0.00000000000E+00 0.  1.
         12    1    6    6    0    0 -0.57416137402E+02  0.38196106703E+02 -0.39208804899E+03  0.39810625914E+03  0.00000000000E+00 0. -1.
         -5    1    3    3    0  503  0.42779997213E+02 -0.49978262848E+02 -0.25355140087E+03  0.26198923223E+03  0.47000000000E+01 0.  1.
         11    1    4    4    0    0  0.49945343522E+02 -0.63482985325E+02 -0.10352188299E+03  0.13130653839E+03  0.00000000000E+00 0. -1.
        -12    1    4    4    0    0  0.47060887457E+02 -0.18569694411E+01 -0.49574304109E+01  0.47357698213E+02  0.00000000000E+00 0.  1.
</event>
<event>
12    1  0.8251070E-002  0.1874673E+03  0.7818608E-02  0.1161029E+00
         21   -1    0    0  501  502  0.00000000000E+00  0.00000000000E+00  0.13655511901E+03  0.13655511901E+03  0.00000000000E+00 0.  1.
         21   -1    0    0  502  503 -0.00000000000E+00 -0.00000000000E+00 -0.32920484451E+03  0.32920484451E+03  0.00000000000E+00 0.  1.
         -6    2    1    2    0  503 -0.35139137554E+02  0.64295626920E+02 -0.20606591959E+03  0.27781316430E+03  0.17131346827E+03 0.  0.
        -24    2    3    3    0    0 -0.22471648829E+02  0.90588106281E+02 -0.77035377517E+02  0.14543971330E+03  0.80666478880E+02 0.  0.
          6    2    1    2  501    0  0.35139137554E+02 -0.64295626920E+02  0.13416194090E+02  0.18794679922E+03  0.17255526200E+03 0.  0.
         24    2    5    5    0    0  0.55924386345E+02 -0.30190316826E+02 -0.48048709126E+02  0.11449461701E+03  0.82227408186E+02 0.  0.
          5    1    5    5  501    0 -0.20785248791E+02 -0.34105310094E+02  0.61464903216E+02  0.73452182209E+02  0.47000000000E+01 0. -1.
        -11    1    6    6    0    0  0.17295049562E+02 -0.33291535833E+02  0.15068990192E+02  0.40429191964E+02  0.00000000000E+00 0.  1.
         12    1    6    6    0    0  0.38629336783E+02  0.31012190070E+01 -0.63117699318E+02  0.74065425043E+02  0.00000000000E+00 0. -1.
         -5    1    3    3    0  503 -0.12667488725E+02 -0.26292479360E+02 -0.12903054208E+03  0.13237345100E+03  0.47000000000E+01 0.  1.
         13    1    4    4    0    0 -0.47675175474E+02  0.57168365197E+02 -0.24712183824E+02  0.78433643070E+02  0.00000000000E+00 0. -1.
        -14    1    4    4    0    0  0.25203526645E+02  0.33419741084E+02 -0.52323193692E+02  0.67006070230E+02  0.00000000000E+00 0.  1.
</event>
<event>
12    1  0.8251070E-002  0.2518176E+03  0.7818608E-02  0.1112215E+00
         21   -1    0    0  501  502  0.00000000000E+00  0.00000000000E+00  0.15190295493E+03  0.15190295493E+03  0.00000000000E+00 0. -1.
         21   -1    0    0  502  503 -0.00000000000E+00 -0.00000000000E+00 -0.52505107352E+03  0.52505107352E+03  0.00000000000E+00 0.  1.
         -6    2    1    2    0  503  0.98127992986E+02  0.15541047580E+03 -0.34010223492E+03  0.42297739364E+03  0.17163573734E+03 0.  0.
        -24    2    3    3    0    0  0.44256321724E+01  0.22267900899E+02 -0.15875132676E+03  0.17922071257E+03  0.80016463526E+02 0.  0.
          6    2    1    2  501    0 -0.98127992986E+02 -0.15541047580E+03 -0.33045883670E+02  0.25397663482E+03  0.17213535840E+03 0.  0.
         24    2    5    5    0    0 -0.12833878155E+03 -0.15718833764E+03 -0.46705950786E+02  0.22044247355E+03  0.72349305218E+02 0.  0.
          5    1    5    5  501    0  0.30210788564E+02  0.17778618422E+01  0.13660067117E+02  0.33534161269E+02  0.47000000000E+01 0. -1.
        -13    1    6    6    0    0 -0.50169994388E+02 -0.11237727450E+03 -0.42651767272E+02  0.13024919736E+03  0.00000000000E+00 0.  1.
         14    1    6    6    0    0 -0.78168787162E+02 -0.44811063144E+02 -0.40541835141E+01  0.90193276193E+02  0.00000000000E+00 0. -1.
         -5    1    3    3    0  503  0.93702360814E+02  0.13314257490E+03 -0.18135090817E+03  0.24375668107E+03  0.47000000000E+01 0.  1.
         11    1    4    4    0    0 -0.14828760429E+02 -0.17247990395E+01  0.24340856860E+01  0.15125866611E+02  0.00000000000E+00 0. -1.
        -12    1    4    4    0    0  0.19254392602E+02  0.23992699939E+02 -0.16118541244E+03  0.16409484595E+03  0.00000000000E+00 0.  1.
</event>
<event>
12    1  0.8251070E-002  0.1760949E+03  0.7818608E-02  0.1171925E+00
         21   -1    0    0  503  502  0.00000000000E+00  0.00000000000E+00  0.57372727403E+02  0.57372727403E+02  0.00000000000E+00 0. -1.
         21   -1    0    0  501  503 -0.00000000000E+00 -0.00000000000E+00 -0.86676265029E+03  0.86676265029E+03  0.00000000000E+00 0.  1.
          6    2    1    2  501    0 -0.12560584028E+01  0.41365234326E+02 -0.69054072675E+03  0.71264009496E+03  0.17116293219E+03 0.  0.
         24    2    3    3    0    0 -0.32937018109E+02  0.42801036648E+02 -0.19997064215E+03  0.22102353438E+03  0.77112704061E+02 0.  0.
         -6    2    1    2    0  502  0.12560584028E+01 -0.41365234326E+02 -0.11884919614E+03  0.21149528273E+03  0.16997783062E+03 0.  0.
        -24    2    5    5    0    0  0.46902992366E+02 -0.52349621823E+02 -0.29067451349E+02  0.11006968909E+03  0.79561587022E+02 0.  0.
          5    1    3    3  501    0  0.31680959706E+02 -0.14358023219E+01 -0.49057008460E+03  0.49161656058E+03  0.47000000000E+01 0. -1.
        -13    1    4    4    0    0 -0.98636264051E+01  0.38628581156E+01 -0.16085133113E+03  0.16119976279E+03  0.00000000000E+00 0.  1.
         14    1    4    4    0    0 -0.23073391704E+02  0.38938178532E+02 -0.39119311023E+02  0.59823771588E+02  0.00000000000E+00 0. -1.
         -5    1    5    5    0  502 -0.45646933963E+02  0.10984387497E+02 -0.89781744791E+02  0.10142559365E+03  0.47000000000E+01 0.  1.
         11    1    6    6    0    0  0.27154646231E+01 -0.61063358433E+02 -0.16771551610E+02  0.63382903330E+02  0.00000000000E+00 0. -1.
        -12    1    6    6    0    0  0.44187527743E+02  0.87137366099E+01 -0.12295899739E+02  0.46686785755E+02  0.00000000000E+00 0.  1.
</event>
<event>
12    1  0.8251070E-002  0.2823757E+03  0.7818608E-02  0.1094744E+00
         21   -1    0    0  501  502  0.00000000000E+00  0.00000000000E+00  0.10039661656E+04  0.10039661656E+04  0.00000000000E+00 0.  1.
         21   -1    0    0  502  503 -0.00000000000E+00 -0.00000000000E+00 -0.13455427369E+03  0.13455427369E+03  0.00000000000E+00 0. -1.
         -6    2    1    2    0  503  0.93133887600E+02 -0.20196161200E+03  0.69114441295E+02  0.29071094161E+03  0.17399319478E+03 0.  0.
        -24    2    3    3    0    0  0.64578683432E+02 -0.19913553594E+03  0.10281601205E+03  0.24619945699E+03  0.78852217876E+02 0.  0.
          6    2    1    2  501    0 -0.93133887600E+02  0.20196161200E+03  0.80029745065E+03  0.84780949772E+03  0.16983086046E+03 0.  0.
         24    2    5    5    0    0 -0.14593575814E+02  0.22238178702E+02  0.22769055633E+03  0.24252457434E+03  0.79168621737E+02 0.  0.
          5    1    5    5  501    0 -0.78540311785E+02  0.17972343330E+03  0.57260689432E+03  0.60528492338E+03  0.47000000000E+01 0. -1.
        -13    1    6    6    0    0  0.36078235733E+01  0.46738117442E+02  0.17918631832E+03  0.18521664258E+03  0.00000000000E+00 0.  1.
         14    1    6    6    0    0 -0.18201399388E+02 -0.24499938740E+02  0.48504238010E+02  0.57307931763E+02  0.00000000000E+00 0. -1.
         -5    1    3    3    0  503  0.28555204168E+02 -0.28260760677E+01 -0.33701570754E+02  0.44511484611E+02  0.47000000000E+01 0.  1.
         11    1    4    4    0    0  0.36463556037E+02 -0.18025541942E+03  0.64089817491E+02  0.19475397777E+03  0.00000000000E+00 0. -1.
        -12    1    4    4    0    0  0.28115127395E+02 -0.18880116515E+02  0.38726194557E+02  0.51445479228E+02  0.00000000000E+00 0.  1.
</event>
<event>
12    1  0.8251070E-002  0.2698357E+03  0.7818608E-02  0.1101458E+00
         21   -1    0    0  501  502  0.00000000000E+00  0.00000000000E+00  0.44055671774E+03  0.44055671774E+03  0.00000000000E+00 0. -1.
         21   -1    0    0  502  503 -0.00000000000E+00 -0.00000000000E+00 -0.18865395513E+03  0.18865395513E+03  0.00000000000E+00 0. -1.
         -6    2    1    2    0  503 -0.17514650922E+03  0.10965706230E+03  0.14219360922E+02  0.26962106949E+03  0.17260463459E+03 0.  0.
        -24    2    3    3    0    0 -0.18593385495E+02  0.69726001384E+02  0.77165380348E+01  0.10785658983E+03  0.79787654164E+02 0.  0.
          6    2    1    2  501    0  0.17514650922E+03 -0.10965706230E+03  0.23768340168E+03  0.35958960338E+03  0.17352323309E+03 0.  0.
         24    2    5    5    0    0  0.10740716721E+03 -0.12609216666E+01  0.16558620954E+03  0.21276168753E+03  0.79440879884E+02 0.  0.
          5    1    5    5  501    0  0.67739342004E+02 -0.10839614063E+03  0.72097192138E+02  0.14682791585E+03  0.47000000000E+01 0. -1.
        -11    1    6    6    0    0 -0.50269359569E+01 -0.17873315346E+02  0.35177323621E+02  0.39776495367E+02  0.00000000000E+00 0.  1.
         12    1    6    6    0    0  0.11243410317E+03  0.16612393679E+02  0.13040888592E+03  0.17298519216E+03  0.00000000000E+00 0. -1.
         -5    1    3    3    0  503 -0.15655312372E+03  0.39931060917E+02  0.65028228869E+01  0.16176447966E+03  0.47000000000E+01 0.  1.
         11    1    4    4    0    0 -0.43502448803E+02  0.19500555056E+02 -0.10675444455E+02  0.48853861809E+02  0.00000000000E+00 0. -1.
        -12    1    4    4    0    0  0.24909063308E+02  0.50225446328E+02  0.18391982490E+02  0.59002728019E+02  0.00000000000E+00 0.  1.
</event>
<event>
12    1  0.8251070E-002  0.2199590E+03  0.7818608E-02  0.1134758E+00
         21   -1    0    0  501  502  0.00000000000E+00  0.00000000000E+00  0.29533941787E+02  0.29533941787E+02  0.00000000000E+00 0.  1.
         21   -1    0    0  502  503 -0.00000000000E+00 -0.00000000000E+00 -0.17825473594E+04  0.17825473594E+04  0.00000000000E+00 0. -1.
         -6    2    1    2    0  503 -0.10467191108E+03 -0.89416276618E+02 -0.11705670794E+04  0.11910538307E+04  0.17155308442E+03 0.  0.
        -24    2    3    3    0    0 -0.65794510928E+02 -0.11154164190E+03 -0.61636743608E+03  0.63503196181E+03  0.81156150222E+02 0.  0.
          6    2    1    2  501    0  0.10467191108E+03  0.89416276618E+02 -0.58244633822E+03  0.62102747049E+03  0.16577063281E+03 0.  0.
         24    2    5    5    0    0  0.13281817938E+03  0.88521607983E+02 -0.42692209510E+03  0.46290443912E+03  0.80878307466E+02 0.  0.
          5    1    5    5  501    0 -0.28146268301E+02  0.89466863536E+00 -0.15552424312E+03  0.15812303137E+03  0.47000000000E+01 0. -1.
        -13    1    6    6    0    0  0.59745640808E+02  0.50069747360E+02 -0.10629074334E+03  0.13181139297E+03  0.00000000000E+00 0.  1.
         14    1    6    6    0    0  0.73072538568E+02  0.38451860623E+02 -0.32063135176E+03  0.33109304615E+03  0.00000000000E+00 0. -1.
         -5    1    3    3    0  503 -0.38877400148E+02  0.22125365280E+02 -0.55419964335E+03  0.55602186893E+03  0.47000000000E+01 0.  1.
         13    1    4    4    0    0 -0.44343187701E+02 -0.43678547954E+02 -0.44707493060E+03  0.45138689327E+03  0.00000000000E+00 0. -1.
        -14    1    4    4    0    0 -0.21451323227E+02 -0.67863093944E+02 -0.16929250548E+03  0.18364506855E+03  0.00000000000E+00 0.  1.
</event>
<event>
12    1  0.8251070E-002  0.2094646E+03  0.7818608E-02  0.1142564E+00
         21   -1    0    0  501  502  0.00000000000E+00  0.00000000000E+00  0.59429753333E+02  0.59429753333E+02  0.00000000000E+00 0.  1.
         21   -1    0    0  502  503 -0.00000000000E+00 -0.00000000000E+00 -0.15089983923E+04  0.15089983923E+04  0.00000000000E+00 0.  1.
         -6    2    1    2    0  503 -0.47066155996E+02 -0.10867002478E+03 -0.12912899203E+04  0.13081685987E+04  0.17277449801E+03 0.  0.
        -24    2    3    3    0    0  0.39764432365E+02 -0.79778025167E+02 -0.65526715743E+03  0.66557903799E+03  0.75330371154E+02 0.  0.
          6    2    1    2  501    0  0.47066155996E+02  0.10867002478E+03 -0.15827871875E+03  0.26025954696E+03  0.16928816157E+03 0.  0.
         24    2    5    5    0    0  0.34810106080E+02 -0.72650494202E+01 -0.48717389311E+02  0.10020665852E+03  0.80021659332E+02 0.  0.
          5    1    5    5  501    0  0.12256049917E+02  0.11593507420E+03 -0.10956132944E+03  0.16005288844E+03  0.47000000000E+01 0. -1.
        -11    1    6    6    0    0  0.96205082346E+01  0.31321524095E+02  0.51964632460E+00  0.32769834949E+02  0.00000000000E+00 0.  1.
         12    1    6    6    0    0  0.25189597845E+02 -0.38586573515E+02 -0.49237035635E+02  0.67436823571E+02  0.00000000000E+00 0. -1.
         -5    1    3    3    0  503 -0.86830588361E+02 -0.28891999618E+02 -0.63602276283E+03  0.64258956072E+03  0.47000000000E+01 0.  1.
         13    1    4    4    0    0  0.28088695416E+01 -0.36196627089E+02 -0.84637007019E+02  0.92095105830E+02  0.00000000000E+00 0. -1.
        -14    1    4    4    0    0  0.36955562823E+02 -0.43581398078E+02 -0.57063015041E+03  0.57348393216E+03  0.00000000000E+00 0.  1.
</event>
<event>
12    1  0.8251070E-002  0.2125512E+03  0.7818608E-02  0.1140355E+00
         21   -1    0    0  501  502  0.00000000000E+00  0.00000000000E+00  0.48194130176E+03  0.48194130176E+03  0.00000000000E+00 0. -1.
         21   -1    0    0  502  503 -0.00000000000E+00 -0.00000000000E+00 -0.33498353738E+03  0.33498353738E+03  0.00000000000E+00 0. -1.
         -6    2    1    2    0  503  0.99936682399E+02 -0.65545144601E+02 -0.27422282003E+03  0.34695270384E+03  0.17576836237E+03 0.  0.
        -24    2    3    3    0    0  0.55778077172E+01  0.34914824060E+01 -0.50416655578E+02  0.94403812841E+02  0.79542053852E+02 0.  0.
          6    2    1    2  501    0 -0.99936682399E+02  0.65545144601E+02  0.42118058440E+03  0.46997213531E+03  0.17087193104E+03 0.  0.
         24    2    5    5    0    0 -0.26936888074E+02  0.88842279426E+02  0.32351515458E+03  0.34574511472E+03  0.79114363759E+02 0.  0.
          5    1    5    5  501    0 -0.72999794325E+02 -0.23297134825E+02  0.97665429821E+02  0.12422702059E+03  0.47000000000E+01 0. -1.
        -13    1    6    6    0    0  0.27153452229E+02  0.29860072672E+02  0.13609884668E+03  0.14195714134E+03  0.00000000000E+00 0.  1.
         14    1    6    6    0    0 -0.54090340303E+02  0.58982206755E+02  0.18741630790E+03  0.20378797338E+03  0.00000000000E+00 0. -1.
         -5    1    3    3    0  503  0.94358874682E+02 -0.69036627007E+02 -0.22380616445E+03  0.25254889100E+03  0.47000000000E+01 0.  1.
         11    1    4    4    0    0 -0.23994641479E+02 -0.88860492586E+01 -0.56271076043E+02  0.61815359662E+02  0.00000000000E+00 0. -1.
        -12    1    4    4    0    0  0.29572449196E+02  0.12377531665E+02  0.58544204653E+01  0.32588453178E+02  0.00000000000E+00 0.  1.
</event>
<event>
12    1  0.8251070E-002  0.1928242E+03  0.7818608E-02  0.1156177E+00
         21   -1    0    0  501  502  0.00000000000E+00  0.00000000000E+00  0.19414074744E+03  0.19414074744E+03  0.00000000000E+00 0.  1.
         21   -1    0    0  502  503 -0.00000000000E+00 -0.00000000000E+00 -0.23123718690E+03  0.23123718690E+03  0.00000000000E+00 0.  1.
         -6    2    1    2    0  503  0.13284823908E+02 -0.85624585801E+02 -0.10791586576E+03  0.22096830363E+03  0.17225881948E+03 0.  0.
        -24    2    3    3    0    0 -0.17587809654E+02 -0.10078491711E+03 -0.12820884384E+03  0.18075822892E+03  0.75954585889E+02 0.  0.
          6    2    1    2  501    0 -0.13284823908E+02  0.85624585801E+02  0.70819426298E+02  0.20440963072E+03  0.17105510735E+03 0.  0.
         24    2    5    5    0    0  0.54093935657E+02  0.49735262078E+02  0.16642244951E+02  0.11068024484E+03  0.81076520107E+02 0.  0.
          5    1    5    5  501    0 -0.67378759565E+02  0.35889323722E+02  0.54177181347E+02  0.93729385875E+02  0.47000000000E+01 0. -1.
        -13    1    6    6    0    0 -0.11000348088E+02  0.24070793103E+02  0.29398467228E+02  0.39556043963E+02  0.00000000000E+00 0.  1.
         14    1    6    6    0    0  0.65094283745E+02  0.25664468975E+02 -0.12756222277E+02  0.71124200880E+02  0.00000000000E+00 0. -1.
         -5    1    3    3    0  503  0.30872633562E+02  0.15160331313E+02  0.20292978084E+02  0.40210074709E+02  0.47000000000E+01 0.  1.
         13    1    4    4    0    0  0.29044121506E+02 -0.42157861732E+02 -0.39569193774E+02  0.64703689198E+02  0.00000000000E+00 0. -1.
        -14    1    4    4    0    0 -0.46631931160E+02 -0.58627055382E+02 -0.88639650068E+02  0.11605453972E+03  0.00000000000E+00 0.  1.
</event>
<event>
12    1  0.8251070E-002  0.2415978E+03  0.7818608E-02  0.1119070E+00
         21   -1    0    0  501  502  0.00000000000E+00  0.00000000000E+00  0.26312498165E+03  0.26312498165E+03  0.00000000000E+00 0.  1.
         21   -1    0    0  502  503 -0.00000000000E+00 -0.00000000000E+00 -0.30287303323E+03  0.30287303323E+03  0.00000000000E+00 0. -1.
         -6    2    1    2    0  503  0.94598781172E+01  0.16620823739E+03 -0.16799640965E+03  0.29426568458E+03  0.17508521353E+03 0.  0.
        -24    2    3    3    0    0 -0.29764250920E+02  0.16596271674E+03 -0.17338815392E+03  0.25439397174E+03  0.78887939243E+02 0.  0.
          6    2    1    2  501    0 -0.94598781172E+01 -0.16620823739E+03  0.12824835807E+03  0.27173233029E+03  0.17226767110E+03 0.  0.
         24    2    5    5    0    0 -0.68209067136E+02 -0.81763035083E+02  0.93706777179E+02  0.16311524962E+03  0.80547835625E+02 0.  0.
          5    1    5    5  501    0  0.58749189018E+02 -0.84445202307E+02  0.34541580896E+02  0.10861708067E+03  0.47000000000E+01 0. -1.
        -11    1    6    6    0    0  0.17581314071E+02 -0.13337139446E+02  0.66725984756E+01  0.23054402258E+02  0.00000000000E+00 0.  1.
         12    1    6    6    0    0 -0.85790381206E+02 -0.68425895638E+02  0.87034178703E+02  0.14006084736E+03  0.00000000000E+00 0. -1.
         -5    1    3    3    0  503  0.39224129037E+02  0.24552065143E+00  0.53917442639E+01  0.39871712846E+02  0.47000000000E+01 0.  1.
         11    1    4    4    0    0 -0.34508000743E+02  0.19941166428E+02 -0.32442621424E+02  0.51390426333E+02  0.00000000000E+00 0. -1.
        -12    1    4    4    0    0  0.47437498234E+01  0.14602155031E+03 -0.14094553249E+03  0.20300354540E+03  0.00000000000E+00 0.  1.
</event>
<event>
12    1  0.8251070E-002  0.3909945E+03  0.7818608E-02  0.1046976E+00
         21   -1    0    0  501  502  0.00000000000E+00  0.00000000000E+00  0.53846512667E+03  0.53846512667E+03  0.00000000000E+00 0.  1.
         21   -1    0    0  502  503 -0.00000000000E+00 -0.00000000000E+00 -0.40787647165E+03  0.40787647165E+03  0.00000000000E+00 0. -1.
         -6    2    1    2    0  503  0.85245463647E+02  0.33980088083E+03  0.32641084978E+03  0.50905100420E+03  0.17279309690E+03 0.  0.
        -24    2    3    3    0    0  0.63147307273E+02  0.35051009317E+03  0.29940434122E+03  0.47224805257E+03  0.80810616785E+02 0.  0.
          6    2    1    2  501    0 -0.85245463647E+02 -0.33980088083E+03 -0.19582219476E+03  0.43729059412E+03  0.17362403076E+03 0.  0.
         24    2    5    5    0    0 -0.81942865050E+02 -0.21187607985E+03 -0.51928232635E+02  0.24466862185E+03  0.74565989766E+02 0.  0.
          5    1    5    5  501    0 -0.33025985971E+01 -0.12792480098E+03 -0.14389396212E+03  0.19262197227E+03  0.47000000000E+01 0. -1.
        -11    1    6    6    0    0  0.15922725056E+01 -0.91244795170E+02 -0.85422619282E+01  0.91657614066E+02  0.00000000000E+00 0.  1.
         12    1    6    6    0    0 -0.83535137556E+02 -0.12063128468E+03 -0.43385970706E+02  0.15301100779E+03  0.00000000000E+00 0. -1.
         -5    1    3    3    0  503  0.22098156374E+02 -0.10709212338E+02  0.27006508564E+02  0.36802951633E+02  0.47000000000E+01 0.  1.
         13    1    4    4    0    0  0.65458571889E+02  0.14112424727E+03  0.11916949003E+03  0.19596490797E+03  0.00000000000E+00 0. -1.
        -14    1    4    4    0    0 -0.23112646160E+01  0.20938584590E+03  0.18023485119E+03  0.27628314460E+03  0.00000000000E+00 0.  1.
</event>
<event>
12    1  0.8251070E-002  0.1815922E+03  0.7818608E-02  0.1166644E+00
         21   -1    0    0  501  502  0.00000000000E+00  0.00000000000E+00  0.55727117875E+03  0.55727117875E+03  0.00000000000E+00 0. -1.
         21   -1    0    0  502  503 -0.00000000000E+00 -0.00000000000E+00 -0.64982878350E+02  0.64982878350E+02  0.00000000000E+00 0.  1.
         -6    2    1    2    0  503 -0.42274432077E+02  0.38613649646E+02  0.15011548450E+03  0.23560640570E+03  0.17232985282E+03 0.  0.
        -24    2    3    3    0    0 -0.79997911248E+02 -0.98020010304E+01  0.12751497089E+03  0.17003194934E+03  0.78454132880E+02 0.  0.
          6    2    1    2  501    0  0.42274432077E+02 -0.38613649646E+02  0.34217281590E+03  0.38664765140E+03  0.17069279085E+03 0.  0.
         24    2    5    5    0    0  0.98849914027E+01 -0.11451920752E+02  0.61076586699E+02  0.10235200343E+03  0.80726226344E+02 0.  0.
          5    1    5    5  501    0  0.32389440674E+02 -0.27161728894E+02  0.28109622920E+03  0.28429564797E+03  0.47000000000E+01 0. -1.
        -11    1    6    6    0    0  0.52441304104E+01 -0.34162292902E+02  0.69556185384E+02  0.77669981881E+02  0.00000000000E+00 0.  1.
         12    1    6    6    0    0  0.46408609923E+01  0.22710372150E+02 -0.84795986858E+01  0.24682021551E+02  0.00000000000E+00 0. -1.
         -5    1    3    3    0  503  0.37723479171E+02  0.48415650676E+02  0.22600513604E+02  0.65574456356E+02  0.47000000000E+01 0.  1.
         13    1    4    4    0    0 -0.45057957952E+00  0.82590039245E+01  0.69361885206E+02  0.69853312642E+02  0.00000000000E+00 0. -1.
        -14    1    4    4    0    0 -0.79547331669E+02 -0.18061004955E+02  0.58153085688E+02  0.10017863670E+03  0.00000000000E+00 0.  1.
</event>
<event>
12    1  0.8251070E-002  0.1727106E+03  0.7818608E-02  0.1175239E+00
         21   -1    0    0  501  502  0.00000000000E+00  0.00000000000E+00  0.25540982410E+03  0.25540982410E+03  0.00000000000E+00 0. -1.
         21   -1    0    0  502  503 -0.00000000000E+00 -0.00000000000E+00 -0.16003490514E+03  0.16003490514E+03  0.00000000000E+00 0. -1.
         -6    2    1    2    0  503  0.10809853084E+02  0.12955716476E+02 -0.60840289584E+02  0.18311329704E+03  0.17188436579E+03 0.  0.
        -24    2    3    3    0    0 -0.52837327840E+02  0.32975126882E+02 -0.63876664558E+02  0.11615771471E+03  0.74385779586E+02 0.  0.
          6    2    1    2  501    0 -0.10809853084E+02 -0.12955716476E+02  0.15621520854E+03  0.23233143219E+03  0.17114321340E+03 0.  0.
         24    2    5    5    0    0 -0.31997766558E+02  0.48412519475E+02  0.12614644661E+03  0.16062921113E+03  0.80753875262E+02 0.  0.
          5    1    5    5  501    0  0.21187913474E+02 -0.61368235951E+02  0.30068761930E+02  0.71702221061E+02  0.47000000000E+01 0. -1.
        -11    1    6    6    0    0 -0.37167772005E+02  0.66239571551E+02  0.77285108578E+02  0.10836102677E+03  0.00000000000E+00 0.  1.
         12    1    6    6    0    0  0.51700054470E+01 -0.17827052076E+02  0.48861338034E+02  0.52268184362E+02  0.00000000000E+00 0. -1.
         -5    1    3    3    0  503  0.63647180924E+02 -0.20019410405E+02  0.30363749740E+01  0.66955582333E+02  0.47000000000E+01 0.  1.
         13    1    4    4    0    0 -0.14143155801E+02  0.39804676616E+02 -0.12936934460E+01  0.42262451174E+02  0.00000000000E+00 0. -1.
        -14    1    4    4    0    0 -0.38694172039E+02 -0.68295497339E+01 -0.62582971112E+02  0.73895263532E+02  0.00000000000E+00 0.  1.
</event>
<event>
12    1  0.8251070E-002  0.2376567E+03  0.7818608E-02  0.1121778E+00
         21   -1    0    0  501  502  0.00000000000E+00  0.00000000000E+00  0.13933900655E+03  0.13933900655E+03  0.00000000000E+00 0. -1.
         21   -1    0    0  502  503 -0.00000000000E+00 -0.00000000000E+00 -0.68108605530E+03  0.68108605530E+03  0.00000000000E+00 0.  1.
         -6    2    1    2    0  503  0.10922726775E+03 -0.12098459050E+03 -0.53301626099E+03  0.58260809452E+03  0.16958180963E+03 0.  0.
        -24    2    3    3    0    0  0.50669704414E+02 -0.11964824026E+03 -0.23527948552E+03  0.27912819152E+03  0.75319258171E+02 0.  0.
          6    2    1    2  501    0 -0.10922726775E+03  0.12098459050E+03 -0.87307877639E+01  0.23781696734E+03  0.17295321951E+03 0.  0.
         24    2    5    5    0    0 -0.12703351762E+03  0.12357280607E+03 -0.42681359344E+02  0.19910659786E+03  0.80087364019E+02 0.  0.
          5    1    5    5  501    0  0.17806249873E+02 -0.25882155756E+01  0.33950571580E+02  0.38710369477E+02  0.47000000000E+01 0. -1.
        -13    1    6    6    0    0  0.11361003922E+02  0.13364029210E+02 -0.29896913757E+01  0.17793480305E+02  0.00000000000E+00 0.  1.
         14    1    6    6    0    0 -0.13839452155E+03  0.11020877686E+03 -0.39691667969E+02  0.18131311756E+03  0.00000000000E+00 0. -1.
         -5    1    3    3    0  503  0.58557563337E+02 -0.13363502373E+01 -0.29773677547E+03  0.30347990299E+03  0.47000000000E+01 0.  1.
         11    1    4    4    0    0  0.61752992838E+02 -0.70892993685E+02 -0.11284715375E+03  0.14687998090E+03  0.00000000000E+00 0. -1.
        -12    1    4    4    0    0 -0.11083288424E+02 -0.48755246575E+02 -0.12243233177E+03  0.13224821062E+03  0.00000000000E+00 0.  1.
</event>
<event>
12    1  0.8251070E-002  0.2249937E+03  0.7818608E-02  0.1130308E+00
         21   -1    0    0  503  502  0.00000000000E+00  0.00000000000E+00  0.14082489103E+04  0.14082489103E+04  0.00000000000E+00 0.  1.
         21   -1    0    0  501  503 -0.00000000000E+00 -0.00000000000E+00 -0.52401931859E+02  0.52401931859E+02  0.00000000000E+00 0.  1.
          6    2    1    2  501    0  0.60271647504E+02 -0.13091803786E+03  0.26817481147E+03  0.35005696975E+03  0.17277137621E+03 0.  0.
         24    2    3    3    0    0  0.93657370425E+02 -0.14178297074E+03  0.20139799409E+03  0.27446671508E+03  0.76790050385E+02 0.  0.
         -6    2    1    2    0  502 -0.60271647504E+02  0.13091803786E+03  0.10876721669E+04  0.11105938724E+04  0.17209242428E+03 0.  0.
        -24    2    5    5    0    0  0.19730324328E+02  0.47378782164E+02  0.29795614991E+03  0.31243812298E+03  0.78776130428E+02 0.  0.
          5    1    3    3  501    0 -0.33385722921E+02  0.10864932884E+02  0.66776817384E+02  0.75590254673E+02  0.47000000000E+01 0. -1.
        -11    1    4    4    0    0  0.60451531128E+02 -0.11693880173E+03  0.19055103013E+03  0.23160044484E+03  0.00000000000E+00 0.  1.
         12    1    4    4    0    0  0.33205839297E+02 -0.24844169010E+02  0.10846963953E+02  0.42866270239E+02  0.00000000000E+00 0. -1.
         -5    1    5    5    0  502 -0.80001971832E+02  0.83539255691E+02  0.78971601703E+03  0.79815574939E+03  0.47000000000E+01 0.  1.
         11    1    6    6    0    0 -0.30585766635E+02  0.15634005298E+02  0.11843733596E+03  0.12331793783E+03  0.00000000000E+00 0. -1.
        -12    1    6    6    0    0  0.50316090963E+02  0.31744776866E+02  0.17951881395E+03  0.18912018515E+03  0.00000000000E+00 0.  1.
</event>
<event>
12    1  0.8251070E-002  0.1874196E+03  0.7818608E-02  0.1160845E+00
         21   -1    0    0  501  502  0.00000000000E+00  0.00000000000E+00  0.11129287907E+03  0.11129287907E+03  0.00000000000E+00 0.  1.
         21   -1    0    0  502  503 -0.00000000000E+00 -0.00000000000E+00 -0.39090834575E+03  0.39090834575E+03  0.00000000000E+00 0. -1.
         -6    2    1    2    0  503 -0.61322271816E+01 -0.74455795230E+02 -0.25024312771E+03  0.31264633942E+03  0.17188612781E+03 0.  0.
        -24    2    3    3    0    0  0.56272157248E+02 -0.21944059047E+02 -0.17108463544E+03  0.19889245363E+03  0.81487165992E+02 0.  0.
          6    2    1    2  501    0  0.61322271816E+01  0.74455795230E+02 -0.29372338970E+02  0.18955488539E+03  0.17171793915E+03 0.  0.
         24    2    5    5    0    0  0.36796064097E+01  0.11741336801E+03 -0.34627443398E+02  0.14595357199E+03  0.79397398268E+02 0.  0.
          5    1    5    5  501    0  0.24526207720E+01 -0.42957572776E+02  0.52551044280E+01  0.43601313398E+02  0.47000000000E+01 0. -1.
        -11    1    6    6    0    0 -0.36954203387E+02  0.64478564487E+02 -0.10816961918E+02  0.75100633096E+02  0.00000000000E+00 0.  1.
         12    1    6    6    0    0  0.40633809797E+02  0.52934803519E+02 -0.23810481480E+02  0.70852938899E+02  0.00000000000E+00 0. -1.
         -5    1    3    3    0  503 -0.62404384430E+02 -0.52511736184E+02 -0.79158492274E+02  0.11375388579E+03  0.47000000000E+01 0.  1.
         11    1    4    4    0    0  0.10434220376E+01 -0.42117953537E+02 -0.61806246009E+02  0.74799884930E+02  0.00000000000E+00 0. -1.
        -12    1    4    4    0    0  0.55228735210E+02  0.20173894491E+02 -0.10927838943E+03  0.12409256870E+03  0.00000000000E+00 0.  1.
</event>
<event>
12    1  0.8251070E-002  0.2956985E+03  0.7818608E-02  0.1087444E+00
         21   -1    0    0  503  502  0.00000000000E+00  0.00000000000E+00  0.17362116824E+03  0.17362116824E+03  0.00000000000E+00 0. -1.
         21   -1    0    0  501  503 -0.00000000000E+00 -0.00000000000E+00 -0.52256386766E+03  0.52256386766E+03  0.00000000000E+00 0.  1.
          6    2    1    2  501    0  0.23092790058E+03  0.61873983739E+02 -0.10733282051E+03  0.31433039697E+03  0.17357182655E+03 0.  0.
         24    2    3    3    0    0  0.27965668783E+02  0.14422939144E+02 -0.23061737454E+02  0.89454932307E+02  0.80499946433E+02 0.  0.
         -6    2    1    2    0  502 -0.23092790058E+03 -0.61873983739E+02 -0.24160987891E+03  0.38185463893E+03  0.17401593765E+03 0.  0.
        -24    2    5    5    0    0 -0.81938653845E+02 -0.60822878389E+02 -0.17710707240E+03  0.21943049506E+03  0.79808906375E+02 0.  0.
          5    1    3    3  501    0  0.20296223180E+03  0.47451044595E+02 -0.84271083056E+02  0.22487546467E+03  0.47000000000E+01 0. -1.
        -11    1    4    4    0    0  0.18324106511E+02 -0.20008708716E+02  0.19836101717E+02  0.33609406946E+02  0.00000000000E+00 0.  1.
         12    1    4    4    0    0  0.96415622723E+01  0.34431647860E+02 -0.42897839171E+02  0.55845525362E+02  0.00000000000E+00 0. -1.
         -5    1    5    5    0  502 -0.14898924674E+03 -0.10511053502E+01 -0.64502806509E+02  0.16242414387E+03  0.47000000000E+01 0.  1.
         13    1    6    6    0    0 -0.60107218377E+00  0.14803864220E+02 -0.72731704640E+01  0.16504989919E+02  0.00000000000E+00 0. -1.
        -14    1    6    6    0    0 -0.81337581662E+02 -0.75626742609E+02 -0.16983390194E+03  0.20292550514E+03  0.00000000000E+00 0.  1.
</event>
<event>
12    1  0.8251070E-002  0.1818403E+03  0.7818608E-02  0.1166112E+00
         21   -1    0    0  501  502  0.00000000000E+00  0.00000000000E+00  0.30594746798E+03  0.30594746798E+03  0.00000000000E+00 0. -1.
         21   -1    0    0  502  503 -0.00000000000E+00 -0.00000000000E+00 -0.23715264533E+03  0.23715264533E+03  0.00000000000E+00 0. -1.
         -6    2    1    2    0  503  0.31092978831E+02  0.51439800845E+02 -0.16607494262E+03  0.24626568835E+03  0.17161898569E+03 0.  0.
        -24    2    3    3    0    0  0.32972084269E+02  0.46033891127E+02 -0.19370713609E+03  0.21765829396E+03  0.81525461573E+02 0.  0.
          6    2    1    2  501    0 -0.31092978831E+02 -0.51439800845E+02  0.23486976527E+03  0.29683442497E+03  0.17127183880E+03 0.  0.
         24    2    5    5    0    0  0.75866681267E+01  0.12739942926E+02  0.20084187893E+03  0.21440177581E+03  0.73558122988E+02 0.  0.
          5    1    5    5  501    0 -0.38679646958E+02 -0.64179743771E+02  0.34027886332E+02  0.82432649160E+02  0.47000000000E+01 0. -1.
        -11    1    6    6    0    0 -0.52873824486E+00  0.10892995770E+02  0.20486669433E+03  0.20515676779E+03  0.00000000000E+00 0.  1.
         12    1    6    6    0    0  0.81154063716E+01  0.18469471560E+01 -0.40248153992E+01  0.92450080244E+01  0.00000000000E+00 0. -1.
         -5    1    3    3    0  503 -0.18791054379E+01  0.54059097186E+01  0.27632193477E+02  0.28607394384E+02  0.47000000000E+01 0.  1.
         13    1    4    4    0    0 -0.77137839841E+01  0.31775952218E+02 -0.15895597384E+03  0.16228436530E+03  0.00000000000E+00 0. -1.
        -14    1    4    4    0    0  0.40685868253E+02  0.14257938908E+02 -0.34751162257E+02  0.55373928663E+02  0.00000000000E+00 0.  1.
</event>
<event>
12    1  0.8251070E-002  0.1958849E+03  0.7818608E-02  0.1153670E+00
         21   -1    0    0  503  502  0.00000000000E+00  0.00000000000E+00  0.52398458638E+03  0.52398458638E+03  0.00000000000E+00 0. -1.
         21   -1    0    0  501  503 -0.00000000000E+00 -0.00000000000E+00 -0.20994587306E+03  0.20994587306E+03  0.00000000000E+00 0. -1.
          6    2    1    2  501    0 -0.91962390656E+02 -0.56694525824E+01 -0.13960859129E+03  0.24054407847E+03  0.17286315668E+03 0.  0.
         24    2    3    3    0    0 -0.12576131793E+03 -0.10994950095E+02 -0.75414387246E+02  0.16764885063E+03  0.80510926572E+02 0.  0.
         -6    2    1    2    0  502  0.91962390656E+02  0.56694525824E+01  0.45364730460E+03  0.49338638097E+03  0.17071912596E+03 0.  0.
        -24    2    5    5    0    0  0.78757839519E+01  0.12763258118E+02  0.35360500266E+03  0.36242290636E+03  0.78031637303E+02 0.  0.
          5    1    3    3  501    0  0.33798927279E+02  0.53254975125E+01 -0.64194204041E+02  0.72895227837E+02  0.47000000000E+01 0. -1.
        -11    1    4    4    0    0 -0.38356976713E+02 -0.29274368139E+02  0.36380597648E+01  0.48388859992E+02  0.00000000000E+00 0.  1.
         12    1    4    4    0    0 -0.87404341222E+02  0.18279418044E+02 -0.79052447011E+02  0.11925999064E+03  0.00000000000E+00 0. -1.
         -5    1    5    5    0  502  0.84086606704E+02 -0.70938055359E+01  0.10004230194E+03  0.13096347461E+03  0.47000000000E+01 0.  1.
         13    1    6    6    0    0 -0.12422730766E+02 -0.27482149136E+02  0.88108999319E+02  0.93127807457E+02  0.00000000000E+00 0. -1.
        -14    1    6    6    0    0  0.20298514718E+02  0.40245407254E+02  0.26549600334E+03  0.26929509891E+03  0.00000000000E+00 0.  1.
</event>
<event>
12    1  0.8251070E-002  0.1837162E+03  0.7818608E-02  0.1165004E+00
         21   -1    0    0  503  502  0.00000000000E+00  0.00000000000E+00  0.24268255724E+03  0.24268255724E+03  0.00000000000E+00 0. -1.
         21   -1    0    0  501  503 -0.00000000000E+00 -0.00000000000E+00 -0.14976489614E+03  0.14976489614E+03  0.00000000000E+00 0.  1.
          6    2    1    2  501    0  0.44197710866E+02 -0.44842701120E+02  0.10404199067E+03  0.20839473263E+03  0.16923156702E+03 0.  0.
         24    2    3    3    0    0 -0.11666627310E+02 -0.64758782974E+02  0.19248822351E+02  0.10481169352E+03  0.79279024794E+02 0.  0.
         -6    2    1    2    0  502 -0.44197710866E+02  0.44842701120E+02 -0.11124329578E+02  0.18405272075E+03  0.17259011506E+03 0.  0.
        -24    2    5    5    0    0  0.20169467671E+02 -0.27633980028E+02 -0.10283670829E+02  0.87002220030E+02  0.79329616955E+02 0.  0.
          5    1    3    3  501    0  0.55864338176E+02  0.19916081854E+02  0.84793168320E+02  0.10358303910E+03  0.47000000000E+01 0. -1.
        -11    1    4    4    0    0 -0.24189296853E+02 -0.73499289815E+02  0.33132524283E+02  0.84172631246E+02  0.00000000000E+00 0.  1.
         12    1    4    4    0    0  0.12522669543E+02  0.87405068410E+01 -0.13883701933E+02  0.20639062277E+02  0.00000000000E+00 0. -1.
         -5    1    5    5    0  502 -0.64367178537E+02  0.72476681148E+02 -0.84065874816E+00  0.97050500721E+02  0.47000000000E+01 0.  1.
         13    1    6    6    0    0 -0.24441265205E+02 -0.32678192233E+02  0.58019400472E+00  0.40811472866E+02  0.00000000000E+00 0. -1.
        -14    1    6    6    0    0  0.44610732876E+02  0.50442122051E+01 -0.10863864834E+02  0.46190747164E+02  0.00000000000E+00 0.  1.
</event>
<event>
12    1  0.8251070E-002  0.2332252E+03  0.7818608E-02  0.1124506E+00
         21   -1    0    0  501  502  0.00000000000E+00  0.00000000000E+00  0.79944113724E+03  0.79944113724E+03  0.00000000000E+00 0.  1.
         21   -1    0    0  502  503 -0.00000000000E+00 -0.00000000000E+00 -0.68100071036E+02  0.68100071036E+02  0.00000000000E+00 0.  1.
         -6    2    1    2    0  503  0.14795303267E+03 -0.51259599268E+02  0.39171660344E+03  0.45554753471E+03  0.17194188721E+03 0.  0.
        -24    2    3    3    0    0  0.37045297500E+02 -0.73143966850E+02  0.13524086784E+03  0.17522389279E+03  0.75438228501E+02 0.  0.
          6    2    1    2  501    0 -0.14795303267E+03  0.51259599268E+02  0.33962446277E+03  0.41199367357E+03  0.17284780865E+03 0.  0.
         24    2    5    5    0    0 -0.14743336329E+03  0.47990887707E+01  0.18289484774E+03  0.24845434704E+03  0.80742859565E+02 0.  0.
          5    1    5    5  501    0 -0.51966937647E+00  0.46460510497E+02  0.15672961503E+03  0.16353932652E+03  0.47000000000E+01 0. -1.
        -13    1    6    6    0    0 -0.10447653982E+03  0.25675264937E+02  0.16595813917E+03  0.19777934816E+03  0.00000000000E+00 0.  1.
         14    1    6    6    0    0 -0.42956823476E+02 -0.20876176166E+02  0.16936708562E+02  0.50674998879E+02  0.00000000000E+00 0. -1.
         -5    1    3    3    0  503  0.11090773517E+03  0.21884367582E+02  0.25647573560E+03  0.28032364192E+03  0.47000000000E+01 0.  1.
         13    1    4    4    0    0  0.18299974578E+02 -0.62049421754E+02  0.13881604481E+03  0.15314997260E+03  0.00000000000E+00 0. -1.
        -14    1    4    4    0    0  0.18745322922E+02 -0.11094545096E+02 -0.35751769776E+01  0.22073920195E+02  0.00000000000E+00 0.  1.
</event>
<event>
12    1  0.8251070E-002  0.1762956E+03  0.7818608E-02  0.1172164E+00
         21   -1    0    0  503  502  0.00000000000E+00  0.00000000000E+00  0.42321508910E+03  0.42321508910E+03  0.00000000000E+00 0.  1.
         21   -1    0    0  501  503 -0.00000000000E+00 -0.00000000000E+00 -0.95898254498E+02  0.95898254498E+02  0.00000000000E+00 0.  1.
          6    2    1    2  501    0 -0.23751885173E+02  0.10705131088E+02  0.35752917029E+02  0.17988446045E+03  0.17435996144E+03 0.  0.
         24    2    3    3    0    0  0.50822248369E+02  0.32607046797E+01  0.52663130895E+02  0.10291195749E+03  0.72276777145E+02 0.  0.
         -6    2    1    2    0  502  0.23751885173E+02 -0.10705131088E+02  0.29156391757E+03  0.33922888315E+03  0.17142918437E+03 0.  0.
        -24    2    5    5    0    0  0.84438373823E+01  0.12477191807E+02  0.44009853136E+02  0.90076597909E+02  0.77135903526E+02 0.  0.
          5    1    3    3  501    0 -0.74574133542E+02  0.74444264080E+01 -0.16910213867E+02  0.76972502955E+02  0.47000000000E+01 0. -1.
        -11    1    4    4    0    0  0.51165298872E+02  0.36363956922E+01  0.10589693704E+01  0.51305288211E+02  0.00000000000E+00 0.  1.
         12    1    4    4    0    0 -0.34305050297E+00 -0.37569101243E+00  0.51604161525E+02  0.51606669279E+02  0.00000000000E+00 0. -1.
         -5    1    5    5    0  502  0.15308047791E+02 -0.23182322894E+02  0.24755406444E+03  0.24915228524E+03  0.47000000000E+01 0.  1.
         11    1    6    6    0    0  0.22188980751E+02  0.40600176732E+02  0.33251779153E+02  0.56977241372E+02  0.00000000000E+00 0. -1.
        -12    1    6    6    0    0 -0.13745143369E+02 -0.28122984926E+02  0.10758073982E+02  0.33099356537E+02  0.00000000000E+00 0.  1.
</event>
<event>
12    1  0.8251070E-002  0.2911678E+03  0.7818608E-02  0.1089777E+00
         21   -1    0    0  503  502  0.00000000000E+00  0.00000000000E+00  0.17733785981E+03  0.17733785981E+03  0.00000000000E+00 0.  1.
         21   -1    0    0  501  503 -0.00000000000E+00 -0.00000000000E+00 -0.66795907395E+03  0.66795907395E+03  0.00000000000E+00 0. -1.
          6    2    1    2  501    0 -0.16624020413E+03 -0.16560877617E+03 -0.47085073206E+03  0.55345868133E+03  0.17191284958E+03 0.  0.
         24    2    3    3    0    0 -0.13171464891E+03 -0.82553054534E+02 -0.18912650712E+03  0.25768698597E+03  0.80436257329E+02 0.  0.
         -6    2    1    2    0  502  0.16624020413E+03  0.16560877617E+03 -0.19770482088E+02  0.29183825242E+03  0.17238509622E+03 0.  0.
        -24    2    5    5    0    0  0.17850937293E+03  0.11104295426E+03  0.16338218320E+02  0.22510078416E+03  0.78786367718E+02 0.  0.
          5    1    3    3  501    0 -0.34525555217E+02 -0.83055721639E+02 -0.28172422494E+03  0.29577169536E+03  0.47000000000E+01 0. -1.
        -13    1    4    4    0    0 -0.66413935367E+02 -0.75889783674E+02 -0.73718044144E+02  0.12491765331E+03  0.00000000000E+00 0.  1.
         14    1    4    4    0    0 -0.65300713547E+02 -0.66632708592E+01 -0.11540846297E+03  0.13276933266E+03  0.00000000000E+00 0. -1.
         -5    1    5    5    0  502 -0.12269168803E+02  0.54565821915E+02 -0.36108700408E+02  0.66737468258E+02  0.47000000000E+01 0.  1.
         13    1    6    6    0    0  0.49946698445E+02  0.76539975131E+02  0.65725107673E+01  0.91630990262E+02  0.00000000000E+00 0. -1.
        -14    1    6    6    0    0  0.12856267449E+03  0.34502979125E+02  0.97657075522E+01  0.13346979390E+03  0.00000000000E+00 0.  1.
</event>
<event>
12    1  0.8251070E-002  0.1827687E+03  0.7818608E-02  0.1165400E+00
         21   -1    0    0  501  502  0.00000000000E+00  0.00000000000E+00  0.21980821295E+03  0.21980821295E+03  0.00000000000E+00 0.  1.
         21   -1    0    0  502  503 -0.00000000000E+00 -0.00000000000E+00 -0.15517411029E+03  0.15517411029E+03  0.00000000000E+00 0. -1.
         -6    2    1    2    0  503  0.74965924248E+00  0.60373665621E+02  0.18389835638E+01  0.18172701552E+03  0.17139365455E+03 0.  0.
        -24    2    3    3    0    0 -0.59158857163E+02  0.13667294711E+02 -0.20781706412E+02  0.10232738683E+03  0.79702254975E+02 0.  0.
          6    2    1    2  501    0 -0.74965924248E+00 -0.60373665621E+02  0.62795119103E+02  0.19325530772E+03  0.17250752299E+03 0.  0.
         24    2    5    5    0    0 -0.43269966387E+02 -0.94339419660E+02  0.26138571941E+02  0.12747201640E+03  0.69236362759E+02 0.  0.
          5    1    5    5  501    0  0.42520307145E+02  0.33965754038E+02  0.36656547162E+02  0.65783291320E+02  0.47000000000E+01 0. -1.
        -13    1    6    6    0    0  0.20283220618E+00 -0.78482197956E+02  0.15823820240E+02  0.80061787538E+02  0.00000000000E+00 0.  1.
         14    1    6    6    0    0 -0.43472798593E+02 -0.15857221704E+02  0.10314751701E+02  0.47410228858E+02  0.00000000000E+00 0. -1.
         -5    1    3    3    0  503  0.59908516406E+02  0.46706370911E+02  0.22620689976E+02  0.79399628693E+02  0.47000000000E+01 0.  1.
         13    1    4    4    0    0  0.68184394954E+01  0.30685302917E+02 -0.11914936921E+02  0.33616136811E+02  0.00000000000E+00 0. -1.
        -14    1    4    4    0    0 -0.65977296659E+02 -0.17018008207E+02 -0.88667694909E+01  0.68711250017E+02  0.00000000000E+00 0.  1.
</event>
<event>
12    1  0.8251070E-002  0.2044782E+03  0.7818608E-02  0.1146126E+00
         21   -1    0    0  501  502  0.00000000000E+00  0.00000000000E+00  0.82514524737E+02  0.82514524737E+02  0.00000000000E+00 0. -1.
         21   -1    0    0  502  503 -0.00000000000E+00 -0.00000000000E+00 -0.66143030602E+03  0.66143030602E+03  0.00000000000E+00 0. -1.
         -6    2    1    2    0  503  0.10353674650E+03 -0.40653909222E+02 -0.46984329797E+03  0.51219462129E+03  0.17093275643E+03 0.  0.
        -24    2    3    3    0    0  0.96361195427E+02  0.16512418329E+02 -0.19653075189E+03  0.23283586380E+03  0.77653480873E+02 0.  0.
          6    2    1    2  501    0 -0.10353674650E+03  0.40653909222E+02 -0.10907248331E+03  0.23175020947E+03  0.17157725596E+03 0.  0.
         24    2    5    5    0    0 -0.92879007937E+02  0.14338506791E+02 -0.14304040495E+03  0.18723057900E+03  0.75911984385E+02 0.  0.
          5    1    5    5  501    0 -0.10657738564E+02  0.26315402431E+02  0.33967921637E+02  0.44519630465E+02  0.47000000000E+01 0. -1.
        -13    1    6    6    0    0 -0.28520905628E+02  0.40235631870E+02 -0.77061316928E+02  0.91492047176E+02  0.00000000000E+00 0.  1.
         14    1    6    6    0    0 -0.64358102309E+02 -0.25897125079E+02 -0.65979088023E+02  0.95738531827E+02  0.00000000000E+00 0. -1.
         -5    1    3    3    0  503  0.71755510744E+01 -0.57166327551E+02 -0.27331254608E+03  0.27935875749E+03  0.47000000000E+01 0.  1.
         11    1    4    4    0    0  0.93807048752E+01 -0.16656315145E+02 -0.87069759649E+02  0.89143555592E+02  0.00000000000E+00 0. -1.
        -12    1    4    4    0    0  0.86980490552E+02  0.33168733474E+02 -0.10946099224E+03  0.14369230821E+03  0.00000000000E+00 0.  1.
</event>
<event>
12    1  0.8251070E-002  0.1821451E+03  0.7818608E-02  0.1165766E+00
         21   -1    0    0  503  502  0.00000000000E+00  0.00000000000E+00  0.14824211291E+03  0.14824211291E+03  0.00000000000E+00 0. -1.
         21   -1    0    0  501  503 -0.00000000000E+00 -0.00000000000E+00 -0.24633215221E+03  0.24633215221E+03  0.00000000000E+00 0. -1.
          6    2    1    2  501    0  0.17753993320E+02  0.54624743591E+02 -0.10885559300E+03  0.21211130155E+03  0.17275010052E+03 0.  0.
         24    2    3    3    0    0  0.53296643030E+02  0.55926317604E+02 -0.19383981664E+02  0.11571507093E+03  0.83940179509E+02 0.  0.
         -6    2    1    2    0  502 -0.17753993320E+02 -0.54624743591E+02  0.10765553696E+02  0.18246296357E+03  0.17285187021E+03 0.  0.
        -24    2    5    5    0    0 -0.10024445130E+02 -0.19284039574E+02  0.74067273675E+02  0.10940196831E+03  0.77527194960E+02 0.  0.
          5    1    3    3  501    0 -0.35542649711E+02 -0.13015740129E+01 -0.89471611339E+02  0.96396230626E+02  0.47000000000E+01 0. -1.
        -13    1    4    4    0    0  0.25779221597E+02  0.64261932520E+02  0.15048711143E+02  0.70856389581E+02  0.00000000000E+00 0.  1.
         14    1    4    4    0    0  0.27517421433E+02 -0.83356149162E+01 -0.34432692807E+02  0.44858681348E+02  0.00000000000E+00 0. -1.
         -5    1    5    5    0  502 -0.77295481900E+01 -0.35340704017E+02 -0.63301719978E+02  0.73060995256E+02  0.47000000000E+01 0.  1.
         13    1    6    6    0    0 -0.12159905574E+02  0.19491353756E+02 -0.29362381675E+01  0.23160260564E+02  0.00000000000E+00 0. -1.
        -14    1    6    6    0    0  0.21354604442E+01 -0.38775393330E+02  0.77003511842E+02  0.86241707748E+02  0.00000000000E+00 0.  1.
</event>
<event>
12    1  0.8251070E-002  0.1800792E+03  0.7818608E-02  0.1169042E+00
         21   -1    0    0  503  502  0.00000000000E+00  0.00000000000E+00  0.19108929915E+04  0.19108929915E+04  0.00000000000E+00 0. -1.
         21   -1    0    0  501  503 -0.00000000000E+00 -0.00000000000E+00 -0.58294372539E+02  0.58294372539E+02  0.00000000000E+00 0. -1.
          6    2    1    2  501    0 -0.76660367557E+01 -0.30781266937E+02  0.88391454264E+02  0.19581333287E+03  0.17182420560E+03 0.  0.
         24    2    3    3    0    0  0.15104695614E+02  0.43736019805E+02  0.69585630779E+02  0.11551961411E+03  0.79759826826E+02 0.  0.
         -6    2    1    2    0  502  0.76660367557E+01  0.30781266937E+02  0.17642071647E+04  0.17733740311E+04  0.17726330677E+03 0.  0.
        -24    2    5    5    0    0  0.53248347446E+02  0.65737330933E+02  0.13702100089E+04  0.13751837221E+04  0.80610283786E+02 0.  0.
          5    1    3    3  501    0 -0.22770732370E+02 -0.74517286742E+02  0.18805823485E+02  0.80293718764E+02  0.47000000000E+01 0. -1.
        -13    1    4    4    0    0  0.45845604816E+02  0.38449820550E+02  0.36696550170E+02  0.70191487914E+02  0.00000000000E+00 0.  1.
         14    1    4    4    0    0 -0.30740909202E+02  0.52861992547E+01  0.32889080609E+02  0.45328126196E+02  0.00000000000E+00 0. -1.
         -5    1    5    5    0  502 -0.45582310690E+02 -0.34956063996E+02  0.39399715578E+03  0.39819030905E+03  0.47000000000E+01 0.  1.
         11    1    6    6    0    0  0.45822722696E+01 -0.17506609612E+02  0.13360994390E+03  0.13482987691E+03  0.00000000000E+00 0. -1.
        -12    1    6    6    0    0  0.48666075176E+02  0.83243940545E+02  0.12366000650E+04  0.12403538452E+04  0.00000000000E+00 0.  1.
</event>
<event>
12    1  0.8251070E-002  0.1820537E+03  0.7818608E-02  0.1166104E+00
         21   -1    0    0  503  502  0.00000000000E+00  0.00000000000E+00  0.95131672413E+02  0.95131672413E+02  0.00000000000E+00 0.  1.
         21   -1    0    0  501  503 -0.00000000000E+00 -0.00000000000E+00 -0.35037620777E+03  0.35037620777E+03  0.00000000000E+00 0. -1.
          6    2    1    2  501    0  0.57256552946E+02  0.17068894826E+02 -0.15151431412E+03  0.23597627330E+03  0.17075876011E+03 0.  0.
         24    2    3    3    0    0  0.10239099301E+03  0.28066922122E+02 -0.10484226086E+03  0.16995775439E+03  0.81376108570E+02 0.  0.
         -6    2    1    2    0  502 -0.57256552946E+02 -0.17068894826E+02 -0.10373022124E+03  0.20953160688E+03  0.17197056567E+03 0.  0.
        -24    2    5    5    0    0  0.11661343355E+02  0.40784904786E+02 -0.54305532538E+02  0.10676182332E+03  0.81545083646E+02 0.  0.
          5    1    3    3  501    0 -0.45134440068E+02 -0.10998027296E+02 -0.46672053255E+02  0.66018518915E+02  0.47000000000E+01 0. -1.
        -13    1    4    4    0    0  0.96992189904E+01 -0.16481711127E+02  0.47125935599E+01  0.19695943460E+02  0.00000000000E+00 0.  1.
         14    1    4    4    0    0  0.92691774024E+02  0.44548633249E+02 -0.10955485442E+03  0.15026181093E+03  0.00000000000E+00 0. -1.
         -5    1    5    5    0  502 -0.68917896301E+02 -0.57853799612E+02 -0.49424688701E+02  0.10276978356E+03  0.47000000000E+01 0.  1.
         11    1    6    6    0    0  0.32614320394E+02  0.40419027120E+01  0.56924156798E+01  0.33353177788E+02  0.00000000000E+00 0. -1.
        -12    1    6    6    0    0 -0.20952977039E+02  0.36743002074E+02 -0.59997948218E+02  0.73408645530E+02  0.00000000000E+00 0.  1.
</event>
<event>
12    1  0.8251070E-002  0.1738827E+03  0.7818608E-02  0.1174740E+00
         21   -1    0    0  501  502  0.00000000000E+00  0.00000000000E+00  0.13321941490E+03  0.13321941490E+03  0.00000000000E+00 0.  1.
         21   -1    0    0  502  503 -0.00000000000E+00 -0.00000000000E+00 -0.38309774780E+03  0.38309774780E+03  0.00000000000E+00 0.  1.
         -6    2    1    2    0  503  0.15085370854E+02 -0.21466101228E+02 -0.29281689758E+03  0.34055383181E+03  0.17189186989E+03 0.  0.
        -24    2    3    3    0    0  0.43589743739E+02  0.44887870581E+01 -0.68977204489E+02  0.11337008745E+03  0.78579304018E+02 0.  0.
          6    2    1    2  501    0 -0.15085370854E+02  0.21466101228E+02  0.42938564677E+02  0.17576333090E+03  0.16840625356E+03 0.  0.
         24    2    5    5    0    0  0.36941938004E+02 -0.33756297662E+02  0.16934135196E+02  0.95422341618E+02  0.79463601288E+02 0.  0.
          5    1    5    5  501    0 -0.52027308858E+02  0.55222398890E+02  0.26004429481E+02  0.80340989282E+02  0.47000000000E+01 0. -1.
        -11    1    6    6    0    0  0.11878475200E+02  0.17839300278E+02  0.29731557704E+02  0.36651116368E+02  0.00000000000E+00 0.  1.
         12    1    6    6    0    0  0.25063462804E+02 -0.51595597940E+02 -0.12797422508E+02  0.58771225250E+02  0.00000000000E+00 0. -1.
         -5    1    3    3    0  503 -0.28504372885E+02 -0.25954888286E+02 -0.22383969309E+03  0.22718374436E+03  0.47000000000E+01 0.  1.
         11    1    4    4    0    0  0.19890499745E+02 -0.14953111358E+02  0.11381304633E+02  0.27363508813E+02  0.00000000000E+00 0. -1.
        -12    1    4    4    0    0  0.23699243994E+02  0.19441898416E+02 -0.80358509122E+02  0.86006578633E+02  0.00000000000E+00 0.  1.
</event>
<event>
12    1  0.8251070E-002  0.2031194E+03  0.7818608E-02  0.1147279E+00
         21   -1    0    0  501  502  0.00000000000E+00  0.00000000000E+00  0.79827370494E+02  0.79827370494E+02  0.00000000000E+00 0.  1.
         21   -1    0    0  502  503 -0.00000000000E+00 -0.00000000000E+00 -0.61252018759E+03  0.61252018759E+03  0.00000000000E+00 0.  1.
         -6    2    1    2    0  503 -0.27680620581E+02  0.10189438823E+03 -0.40482354010E+03  0.45292337182E+03  0.17351887220E+03 0.  0.
        -24    2    3    3    0    0 -0.25155472663E+01  0.13194679906E+03 -0.36814498770E+03  0.39903613290E+03  0.79264226686E+02 0.  0.
          6    2    1    2  501    0  0.27680620581E+02 -0.10189438823E+03 -0.12786927699E+03  0.23942418626E+03  0.17269830880E+03 0.  0.
         24    2    5    5    0    0 -0.13948597440E+02  0.85242798201E+01 -0.73961278966E+02  0.10960340096E+03  0.79217472807E+02 0.  0.
          5    1    5    5  501    0  0.41629218021E+02 -0.11041866805E+03 -0.53907998027E+02  0.12982078531E+03  0.47000000000E+01 0. -1.
        -11    1    6    6    0    0  0.23620109451E+02 -0.13232122643E+02 -0.41443110317E+01  0.27389303643E+02  0.00000000000E+00 0.  1.
         12    1    6    6    0    0 -0.37568706891E+02  0.21756402463E+02 -0.69816967935E+02  0.82214097314E+02  0.00000000000E+00 0. -1.
         -5    1    3    3    0  503 -0.25165073315E+02 -0.30052410834E+02 -0.36678552404E+02  0.53887238919E+02  0.47000000000E+01 0.  1.
         13    1    4    4    0    0  0.26824433654E+02  0.13909517095E+02 -0.49836929607E+02  0.58281596232E+02  0.00000000000E+00 0. -1.
        -14    1    4    4    0    0 -0.29339980920E+02  0.11803728197E+03 -0.31830805809E+03  0.34075453667E+03  0.00000000000E+00 0.  1.
</event>
<event>
12    1  0.8251070E-002  0.1824054E+03  0.7818608E-02  0.1167366E+00
         21   -1    0    0  503  502  0.00000000000E+00  0.00000000000E+00  0.42691588845E+02  0.42691588845E+02  0.00000000000E+00 0. -1.
         21   -1    0    0  501  503 -0.00000000000E+00 -0.00000000000E+00 -0.76766295128E+03  0.76766295128E+03  0.00000000000E+00 0. -1.
          6    2    1    2  501    0  0.11614402439E+02  0.39437211641E+02 -0.43677929213E+03  0.47333697041E+03  0.17771198474E+03 0.  0.
         24    2    3    3    0    0 -0.48831612181E+02 -0.16144363149E+02 -0.19749984923E+03  0.22031567895E+03  0.82991813659E+02 0.  0.
         -6    2    1    2    0  502 -0.11614402439E+02 -0.39437211641E+02 -0.28819207030E+03  0.33701756971E+03  0.16981161592E+03 0.  0.
        -24    2    5    5    0    0 -0.53342257987E+02  0.21335207955E+02 -0.18224731491E+03  0.20786308041E+03  0.81807021819E+02 0.  0.
          5    1    3    3  501    0  0.60446014620E+02  0.55581574790E+02 -0.23927944290E+03  0.25302129146E+03  0.47000000000E+01 0. -1.
        -13    1    4    4    0    0 -0.66431605269E+02 -0.20045546259E+02 -0.18698706973E+03  0.19944710163E+03  0.00000000000E+00 0.  1.
         14    1    4    4    0    0  0.17599993088E+02  0.39011831100E+01 -0.10512779502E+02  0.20868577317E+02  0.00000000000E+00 0. -1.
         -5    1    5    5    0  502  0.41727855548E+02 -0.60772419597E+02 -0.10594475539E+03  0.12915448930E+03  0.47000000000E+01 0.  1.
         11    1    6    6    0    0 -0.62915319357E+02  0.80772454716E+01 -0.18061399466E+03  0.19142882325E+03  0.00000000000E+00 0. -1.
        -12    1    6    6    0    0  0.95730613706E+01  0.13257962484E+02 -0.16333202496E+01  0.16434257156E+02  0.00000000000E+00 0.  1.
</event>
<event>
12    1  0.8251070E-002  0.1882028E+03  0.7818608E-02  0.1160108E+00
         21   -1    0    0  501  502  0.00000000000E+00  0.00000000000E+00  0.78326686321E+03  0.78326686321E+03  0.00000000000E+00 0.  1.
         21   -1    0    0  502  503 -0.00000000000E+00 -0.00000000000E+00 -0.49815011755E+02  0.49815011755E+02  0.00000000000E+00 0.  1.
         -6    2    1    2    0  503  0.67255594122E+02  0.37662931953E+02  0.49350040587E+03  0.52816943621E+03  0.17169301491E+03 0.  0.
        -24    2    3    3    0    0  0.75681273259E+02  0.85160615037E+02  0.37863587694E+03  0.40349798009E+03  0.80408377349E+02 0.  0.
          6    2    1    2  501    0 -0.67255594122E+02 -0.37662931953E+02  0.23995144559E+03  0.30491243876E+03  0.17161901901E+03 0.  0.
         24    2    5    5    0    0 -0.73939217959E+02 -0.44297686716E+02  0.25895111934E+03  0.28319220854E+03  0.75583409345E+02 0.  0.
          5    1    5    5  501    0  0.66836238370E+01  0.66347547628E+01 -0.18999673749E+02  0.21720230222E+02  0.47000000000E+01 0. -1.
        -13    1    6    6    0    0 -0.39744164262E+02 -0.23071497941E+02  0.41095573135E+02  0.61650131723E+02  0.00000000000E+00 0.  1.
         14    1    6    6    0    0 -0.34195053697E+02 -0.21226188776E+02  0.21785554620E+03  0.22154207681E+03  0.00000000000E+00 0. -1.
         -5    1    3    3    0  503 -0.84256791363E+01 -0.47497683083E+02  0.11486452892E+03  0.12467145612E+03  0.47000000000E+01 0.  1.
         11    1    4    4    0    0  0.71734754941E+01  0.31667337999E+02  0.22200181247E+03  0.22436373100E+03  0.00000000000E+00 0. -1.
        -12    1    4    4    0    0  0.68507797764E+02  0.53493277037E+02  0.15663406447E+03  0.17913424909E+03  0.00000000000E+00 0.  1.
</event>
<event>
12    1  0.8251070E-002  0.1810870E+03  0.7818608E-02  0.1166775E+00
         21   -1    0    0  503  502  0.00000000000E+00  0.00000000000E+00  0.65012225739E+02  0.65012225739E+02  0.00000000000E+00 0. -1.
         21   -1    0    0  501  503 -0.00000000000E+00 -0.00000000000E+00 -0.50468556463E+03  0.50468556463E+03  0.00000000000E+00 0. -1.
          6    2    1    2  501    0 -0.68318221804E+01  0.55248113653E+02 -0.22896980814E+03  0.29192408964E+03  0.17231794224E+03 0.  0.
         24    2    3    3    0    0  0.53206255802E+01 -0.36548813350E+02 -0.11012925852E+03  0.14119411908E+03  0.80269551300E+02 0.  0.
         -6    2    1    2    0  502  0.68318221804E+01 -0.55248113653E+02 -0.21070353076E+03  0.27777370073E+03  0.17223014570E+03 0.  0.
        -24    2    5    5    0    0  0.59058624289E+02 -0.99644728875E+00 -0.80788448473E+02  0.12753755073E+03  0.79057823326E+02 0.  0.
          5    1    3    3  501    0 -0.12152447761E+02  0.91796927003E+02 -0.11884054961E+03  0.15072997056E+03  0.47000000000E+01 0. -1.
        -11    1    4    4    0    0  0.21668102536E+02 -0.11788429354E+02 -0.10872787009E+03  0.11149091205E+03  0.00000000000E+00 0.  1.
         12    1    4    4    0    0 -0.16347476955E+02 -0.24760383996E+02 -0.14013884292E+01  0.29703207032E+02  0.00000000000E+00 0. -1.
         -5    1    5    5    0  502 -0.52226802109E+02 -0.54251666364E+02 -0.12991508229E+03  0.15023615000E+03  0.47000000000E+01 0.  1.
         11    1    6    6    0    0  0.39834178428E+02  0.37631707991E+02 -0.52869016316E+02  0.76144862621E+02  0.00000000000E+00 0. -1.
        -12    1    6    6    0    0  0.19224445861E+02 -0.38628155280E+02 -0.27919432157E+02  0.51392688108E+02  0.00000000000E+00 0.  1.
</event>
<event>
12    1  0.8251070E-002  0.1735855E+03  0.7818608E-02  0.1174664E+00
         21   -1    0    0  503  502  0.00000000000E+00  0.00000000000E+00  0.42503702188E+02  0.42503702188E+02  0.00000000000E+00 0. -1.
         21   -1    0    0  501  503 -0.00000000000E+00 -0.00000000000E+00 -0.94127569243E+03  0.94127569243E+03  0.00000000000E+00 0. -1.
          6    2    1    2  501    0 -0.24748533395E+02 -0.31248933884E+01 -0.69605075814E+03  0.71689395684E+03  0.16978819917E+03 0.  0.
         24    2    3    3    0    0 -0.62182334450E+02  0.37886526623E+02 -0.54201143923E+03  0.55308483681E+03  0.82609956058E+02 0.  0.
         -6    2    1    2    0  502  0.24748533395E+02  0.31248933884E+01 -0.20272123210E+03  0.26688543778E+03  0.17178382954E+03 0.  0.
        -24    2    5    5    0    0  0.48291236874E+02  0.16766554528E+02 -0.35229610775E+02  0.97133009167E+02  0.74702979090E+02 0.  0.
          5    1    3    3  501    0  0.37433801055E+02 -0.41011420011E+02 -0.15403931891E+03  0.16380912003E+03  0.47000000000E+01 0. -1.
        -11    1    4    4    0    0 -0.29853193835E+01  0.87955243135E+01 -0.25858021050E+01  0.96415637890E+01  0.00000000000E+00 0.  1.
         12    1    4    4    0    0 -0.59197015067E+02  0.29091002310E+02 -0.53942563712E+03  0.54344327302E+03  0.00000000000E+00 0. -1.
         -5    1    5    5    0  502 -0.23542703479E+02 -0.13641661140E+02 -0.16749162133E+03  0.16975242861E+03  0.47000000000E+01 0.  1.
         11    1    6    6    0    0  0.28371844770E+02 -0.18280340885E+02  0.11278564843E+02  0.35585649685E+02  0.00000000000E+00 0. -1.
        -12    1    6    6    0    0  0.19919392104E+02  0.35046895414E+02 -0.46508175618E+02  0.61547359483E+02  0.00000000000E+00 0.  1.
</event>
<event>
12    1  0.8251070E-002  0.1777018E+03  0.7818608E-02  0.1170177E+00
         21   -1    0    0  501  502  0.00000000000E+00  0.00000000000E+00  0.25552033157E+03  0.25552033157E+03  0.00000000000E+00 0.  1.
         21   -1    0    0  502  503 -0.00000000000E+00 -0.00000000000E+00 -0.12321701956E+03  0.12321701956E+03  0.00000000000E+00 0. -1.
         -6    2    1    2    0  503  0.30624180279E+02 -0.32367469615E+02  0.65037087547E+02  0.18873027951E+03  0.17147536890E+03 0.  0.
        -24    2    3    3    0    0  0.93282865855E+01 -0.19813699345E+02 -0.34752608421E+02  0.85816793230E+02  0.75347054328E+02 0.  0.
          6    2    1    2  501    0 -0.30624180279E+02  0.32367469615E+02  0.67266224462E+02  0.19000707162E+03  0.17202455873E+03 0.  0.
         24    2    5    5    0    0 -0.78049993696E+02  0.55511328324E+02  0.53795855550E+02  0.13534093207E+03  0.79056085992E+02 0.  0.
          5    1    5    5  501    0  0.47425813416E+02 -0.23143858709E+02  0.13470368912E+02  0.54666139545E+02  0.47000000000E+01 0. -1.
        -11    1    6    6    0    0 -0.32980748443E+02 -0.13173465625E+02  0.37388603598E+02  0.51567214812E+02  0.00000000000E+00 0.  1.
         12    1    6    6    0    0 -0.45069245253E+02  0.68684793949E+02  0.16407251953E+02  0.83773717263E+02  0.00000000000E+00 0. -1.
         -5    1    3    3    0  503  0.21295893694E+02 -0.12553770270E+02  0.99789695968E+02  0.10291348628E+03  0.47000000000E+01 0.  1.
         11    1    4    4    0    0 -0.33254342480E+02 -0.93382738600E+01 -0.17144990478E+02  0.38561708351E+02  0.00000000000E+00 0. -1.
        -12    1    4    4    0    0  0.42582629066E+02 -0.10475425485E+02 -0.17607617944E+02  0.47255084879E+02  0.00000000000E+00 0.  1.
</event>
<event>
12    1  0.8251070E-002  0.2070654E+03  0.7818608E-02  0.1144204E+00
         21   -1    0    0  501  502  0.00000000000E+00  0.00000000000E+00  0.25654305111E+03  0.25654305111E+03  0.00000000000E+00 0. -1.
         21   -1    0    0  502  503 -0.00000000000E+00 -0.00000000000E+00 -0.20243896594E+03  0.20243896594E+03  0.00000000000E+00 0.  1.
         -6    2    1    2    0  503 -0.10071002571E+03 -0.51464057861E+02 -0.70280545760E+02  0.21866740065E+03  0.17345033428E+03 0.  0.
        -24    2    3    3    0    0 -0.72139752081E+02 -0.73353251805E+02  0.91791246547E+01  0.13130993634E+03  0.81075271644E+02 0.  0.
          6    2    1    2  501    0  0.10071002571E+03  0.51464057861E+02  0.12438463093E+03  0.24031461640E+03  0.17172221729E+03 0.  0.
         24    2    5    5    0    0  0.65585657235E+02 -0.60660540838E+01  0.13339099740E+03  0.17214835144E+03  0.86623445253E+02 0.  0.
          5    1    5    5  501    0  0.35124368478E+02  0.57530111944E+02 -0.90063664722E+01  0.68166264958E+02  0.47000000000E+01 0. -1.
        -13    1    6    6    0    0  0.59154487275E+02 -0.16851903819E+02  0.30794511996E+02  0.68786204985E+02  0.00000000000E+00 0.  1.
         14    1    6    6    0    0  0.64311699602E+01  0.10785849736E+02  0.10259648541E+03  0.10336214645E+03  0.00000000000E+00 0. -1.
         -5    1    3    3    0  503 -0.28570273633E+02  0.21889193944E+02 -0.79459670415E+02  0.87357464303E+02  0.47000000000E+01 0.  1.
         13    1    4    4    0    0 -0.90295224013E+02 -0.61414851584E+02  0.61979223548E+01  0.10937744610E+03  0.00000000000E+00 0. -1.
        -14    1    4    4    0    0  0.18155471932E+02 -0.11938400221E+02  0.29812022999E+01  0.21932490239E+02  0.00000000000E+00 0.  1.
</event>
<event>
12    1  0.8251070E-002  0.1732888E+03  0.7818608E-02  0.1175013E+00
         21   -1    0    0  501  502  0.00000000000E+00  0.00000000000E+00  0.14753700329E+04  0.14753700329E+04  0.00000000000E+00 0.  1.
         21   -1    0    0  502  503 -0.00000000000E+00 -0.00000000000E+00 -0.30644019801E+02  0.30644019801E+02  0.00000000000E+00 0.  1.
         -6    2    1    2    0  503 -0.71131582576E+01  0.19154059474E+02  0.11670010795E+04  0.11797968096E+04  0.17207997341E+03 0.  0.
        -24    2    3    3    0    0 -0.96187970009E+01 -0.54579860008E+02  0.77764968289E+03  0.78348939207E+03  0.77750342814E+02 0.  0.
          6    2    1    2  501    0  0.71131582576E+01 -0.19154059474E+02  0.27772493359E+03  0.32621724315E+03  0.16990902264E+03 0.  0.
         24    2    5    5    0    0 -0.27099161463E+02  0.46263967501E+02  0.13573525520E+03  0.16611365217E+03  0.79340826136E+02 0.  0.
          5    1    5    5  501    0  0.34212319721E+02 -0.65418026976E+02  0.14198967840E+03  0.16010359098E+03  0.47000000000E+01 0. -1.
        -11    1    6    6    0    0 -0.30771916278E+02 -0.10118127100E+02  0.81890391281E+02  0.88064314631E+02  0.00000000000E+00 0.  1.
         12    1    6    6    0    0  0.36727548151E+01  0.56382094601E+02  0.53844863917E+02  0.78049337536E+02  0.00000000000E+00 0. -1.
         -5    1    3    3    0  503  0.25056387433E+01  0.73733919482E+02  0.38935139664E+03  0.39630741751E+03  0.47000000000E+01 0.  1.
         11    1    4    4    0    0  0.12401070695E+02 -0.45430691823E+02  0.20484078815E+03  0.21018440191E+03  0.00000000000E+00 0. -1.
        -12    1    4    4    0    0 -0.22019867696E+02 -0.91491681845E+01  0.57280889474E+03  0.57330499016E+03  0.00000000000E+00 0.  1.
</event>
<event>
12    1  0.8251070E-002  0.1913051E+03  0.7818608E-02  0.1157536E+00
         21   -1    0    0  503  502  0.00000000000E+00  0.00000000000E+00  0.15537648203E+03  0.15537648203E+03  0.00000000000E+00 0. -1.
         21   -1    0    0  501  503 -0.00000000000E+00 -0.00000000000E+00 -0.23783545526E+03  0.23783545526E+03  0.00000000000E+00 0.  1.
          6    2    1    2  501    0  0.78355556999E+02 -0.23322901202E+02 -0.16772642816E+02  0.19094395397E+03  0.17174027186E+03 0.  0.
         24    2    3    3    0    0  0.46790677910E+02 -0.81809639960E+02 -0.14450223918E+02  0.12427669190E+03  0.79710115097E+02 0.  0.
         -6    2    1    2    0  502 -0.78355556999E+02  0.23322901202E+02 -0.65686330416E+02  0.20226798331E+03  0.17295690804E+03 0.  0.
        -24    2    5    5    0    0 -0.26201322916E+02  0.79603047595E+02 -0.44256307292E+02  0.12246287758E+03  0.77558888207E+02 0.  0.
          5    1    3    3  501    0  0.31564879089E+02  0.58486738759E+02 -0.23224188979E+01  0.66667262071E+02  0.47000000000E+01 0. -1.
        -11    1    4    4    0    0  0.29429681066E+02  0.86915431871E+01 -0.89341416882E+01  0.31960412049E+02  0.00000000000E+00 0.  1.
         12    1    4    4    0    0  0.17360996844E+02 -0.90501183147E+02 -0.55160822299E+01  0.92316279852E+02  0.00000000000E+00 0. -1.
         -5    1    5    5    0  502 -0.52154234084E+02 -0.56280146394E+02 -0.21430023124E+02  0.79805105739E+02  0.47000000000E+01 0.  1.
         13    1    6    6    0    0  0.16295296334E+02  0.35546695281E+02  0.10332064177E+02  0.40445713965E+02  0.00000000000E+00 0. -1.
        -14    1    6    6    0    0 -0.42496619250E+02  0.44056352314E+02 -0.54588371469E+02  0.82017163610E+02  0.00000000000E+00 0.  1.
</event>
<event>
12    1  0.8251070E-002  0.1735813E+03  0.7818608E-02  0.1174265E+00
         21   -1    0    0  501  502  0.00000000000E+00  0.00000000000E+00  0.31879872242E+03  0.31879872242E+03  0.00000000000E+00 0.  1.
         21   -1    0    0  502  503 -0.00000000000E+00 -0.00000000000E+00 -0.21060775178E+03  0.21060775178E+03  0.00000000000E+00 0.  1.
         -6    2    1    2    0  503  0.12677713602E+02 -0.16086240785E+02 -0.14264553403E+03  0.22436641624E+03  0.17196816215E+03 0.  0.
        -24    2    3    3    0    0 -0.72645509870E+01  0.56002977390E+02 -0.88552459792E+02  0.13193968864E+03  0.79858851268E+02 0.  0.
          6    2    1    2  501    0 -0.12677713602E+02  0.16086240785E+02  0.25083650467E+03  0.30504005796E+03  0.17236877131E+03 0.  0.
         24    2    5    5    0    0  0.20742431200E+02  0.57665308153E+02  0.86362910836E+02  0.13206786947E+03  0.78916624123E+02 0.  0.
          5    1    5    5  501    0 -0.33420144802E+02 -0.41579067369E+02  0.16447359383E+03  0.17297218848E+03  0.47000000000E+01 0. -1.
        -13    1    6    6    0    0  0.24452212137E+02 -0.10500601594E+02  0.44906508427E+02  0.52199308533E+02  0.00000000000E+00 0.  1.
         14    1    6    6    0    0 -0.37097809368E+01  0.68165909747E+02  0.41456402409E+02  0.79868560942E+02  0.00000000000E+00 0. -1.
         -5    1    3    3    0  503  0.19942264589E+02 -0.72089218175E+02 -0.54093074238E+02  0.92426727598E+02  0.47000000000E+01 0.  1.
         13    1    4    4    0    0  0.16234668331E+02  0.40223568144E+02 -0.49288130305E+01  0.43655390137E+02  0.00000000000E+00 0. -1.
        -14    1    4    4    0    0 -0.23499219318E+02  0.15779409246E+02 -0.83623646761E+02  0.88284298504E+02  0.00000000000E+00 0.  1.
</event>
<event>
12    1  0.8251070E-002  0.1738824E+03  0.7818608E-02  0.1176807E+00
         21   -1    0    0  503  502  0.00000000000E+00  0.00000000000E+00  0.33118400811E+02  0.33118400811E+02  0.00000000000E+00 0. -1.
         21   -1    0    0  501  503 -0.00000000000E+00 -0.00000000000E+00 -0.95543478241E+03  0.95543478241E+03  0.00000000000E+00 0. -1.
          6    2    1    2  501    0 -0.27346527341E+02  0.10617216087E+02 -0.63520778686E+03  0.65857726056E+03  0.17138995827E+03 0.  0.
         24    2    3    3    0    0 -0.23099879681E+02  0.31536469210E+01 -0.64161297844E+03  0.64687874099E+03  0.79002161404E+02 0.  0.
         -6    2    1    2    0  502  0.27346527341E+02 -0.10617216087E+02 -0.28710859473E+03  0.32997592266E+03  0.15997564356E+03 0.  0.
        -24    2    5    5    0    0  0.46977419127E+02  0.21346091447E+02 -0.24803736973E+03  0.27560979751E+03  0.10851585217E+03 0.  0.
          5    1    3    3  501    0 -0.42466476603E+01  0.74635691661E+01  0.64051915753E+01  0.11698519571E+02  0.47000000000E+01 0. -1.
        -11    1    4    4    0    0 -0.39881286348E+02  0.28209782810E+02 -0.30153619259E+03  0.30546748483E+03  0.00000000000E+00 0.  1.
         12    1    4    4    0    0  0.16781406668E+02 -0.25056135889E+02 -0.34007678585E+03  0.34141125616E+03  0.00000000000E+00 0. -1.
         -5    1    5    5    0  502 -0.19630891786E+02 -0.31963307534E+02 -0.39071225002E+02  0.54366125152E+02  0.47000000000E+01 0.  1.
         11    1    6    6    0    0 -0.16932738832E+02  0.85739394562E+01  0.17811601946E+00  0.18980563939E+02  0.00000000000E+00 0. -1.
        -12    1    6    6    0    0  0.63910157958E+02  0.12772151991E+02 -0.24821548575E+03  0.25662923357E+03  0.00000000000E+00 0.  1.
</event>
<event>
12    1  0.8251070E-002  0.1830073E+03  0.7818608E-02  0.1164987E+00
         21   -1    0    0  501  502  0.00000000000E+00  0.00000000000E+00  0.78201665796E+03  0.78201665796E+03  0.00000000000E+00 0. -1.
         21   -1    0    0  502  503 -0.00000000000E+00 -0.00000000000E+00 -0.50528352727E+02  0.50528352727E+02  0.00000000000E+00 0.  1.
         -6    2    1    2    0  503  0.30413686245E+02 -0.53182670926E+02  0.20235712508E+03  0.27265978125E+03  0.17216724847E+03 0.  0.
        -24    2    3    3    0    0 -0.87247618698E+00  0.34964071862E+02  0.11537626188E+03  0.14484572574E+03  0.80282967832E+02 0.  0.
          6    2    1    2  501    0 -0.30413686245E+02  0.53182670926E+02  0.52913118016E+03  0.55988522943E+03  0.17244789221E+03 0.  0.
         24    2    5    5    0    0 -0.53180875966E+02 -0.22690073123E+02  0.24892149978E+03  0.26865581266E+03  0.82891420768E+02 0.  0.
          5    1    5    5  501    0  0.22767189721E+02  0.75872744049E+02  0.28020968038E+03  0.29122941677E+03  0.47000000000E+01 0. -1.
        -11    1    6    6    0    0  0.97781313786E+01  0.14201178192E+01 -0.87703452526E+00  0.99195653855E+01  0.00000000000E+00 0.  1.
         12    1    6    6    0    0 -0.62959007345E+02 -0.24110190942E+02  0.24979853430E+03  0.25873624727E+03  0.00000000000E+00 0. -1.
         -5    1    3    3    0  503  0.31286162432E+02 -0.88146742789E+02  0.86980863192E+02  0.12781405551E+03  0.47000000000E+01 0.  1.
         13    1    4    4    0    0  0.27236236124E+02  0.76714169436E+01  0.97969609832E+02  0.10197405379E+03  0.00000000000E+00 0. -1.
        -14    1    4    4    0    0 -0.28108712311E+02  0.27292654919E+02  0.17406652053E+02  0.42871671952E+02  0.00000000000E+00 0.  1.
</event>
<event>
12    1  0.8251070E-002  0.2234911E+03  0.7818608E-02  0.1131526E+00
         21   -1    0    0  503  502  0.00000000000E+00  0.00000000000E+00  0.17569238548E+03  0.17569238548E+03  0.00000000000E+00 0.  1.
         21   -1    0    0  501  503 -0.00000000000E+00 -0.00000000000E+00 -0.77313207275E+03  0.77313207275E+03  0.00000000000E+00 0. -1.
          6    2    1    2  501    0 -0.12981993452E+03 -0.59323056359E+02 -0.67683241643E+03  0.71277652918E+03  0.17197621985E+03 0.  0.
         24    2    3    3    0    0 -0.23593100630E+02 -0.71682781364E+02 -0.25839574839E+03  0.28086422534E+03  0.80132981653E+02 0.  0.
         -6    2    1    2    0  502  0.12981993452E+03  0.59323056359E+02  0.79392729163E+02  0.23604792906E+03  0.17042000749E+03 0.  0.
        -24    2    5    5    0    0  0.14200547943E+03  0.52133697006E+01  0.39089574816E+02  0.16732544405E+03  0.79227987209E+02 0.  0.
          5    1    3    3  501    0 -0.10622683389E+03  0.12359725005E+02 -0.41843666805E+03  0.43191230384E+03  0.47000000000E+01 0. -1.
        -13    1    4    4    0    0  0.11008292252E+02 -0.21363065832E+02 -0.11713070025E+02  0.26734978763E+02  0.00000000000E+00 0.  1.
         14    1    4    4    0    0 -0.34601392882E+02 -0.50319715532E+02 -0.24668267836E+03  0.25412924657E+03  0.00000000000E+00 0. -1.
         -5    1    5    5    0  502 -0.12185544907E+02  0.54109686658E+02  0.40303154347E+02  0.68722485005E+02  0.47000000000E+01 0.  1.
         13    1    6    6    0    0  0.19893960901E+02  0.23674005828E+02 -0.12670752706E+02  0.33418201723E+02  0.00000000000E+00 0. -1.
        -14    1    6    6    0    0  0.12211151853E+03 -0.18460636127E+02  0.51760327523E+02  0.13390724233E+03  0.00000000000E+00 0.  1.
</event>
<event>
12    1  0.8251070E-002  0.4399814E+03  0.7818608E-02  0.1030801E+00
         21   -1    0    0  503  502  0.00000000000E+00  0.00000000000E+00  0.50287149562E+03  0.50287149562E+03  0.00000000000E+00 0.  1.
         21   -1    0    0  501  503 -0.00000000000E+00 -0.00000000000E+00 -0.39439304122E+03  0.39439304122E+03  0.00000000000E+00 0. -1.
          6    2    1    2  501    0  0.36631989190E+03  0.17223621014E+03 -0.17205873271E+02  0.43968374513E+03  0.17079279369E+03 0.  0.
         24    2    3    3    0    0  0.37453441234E+03  0.14785880829E+03 -0.25474563214E+02  0.41225752957E+03  0.84670325963E+02 0.  0.
         -6    2    1    2    0  502 -0.36631989190E+03 -0.17223621014E+03  0.12568432767E+03  0.45758079171E+03  0.17241825726E+03 0.  0.
        -24    2    5    5    0    0 -0.21853948035E+03 -0.45393169746E+02  0.26021033511E+02  0.23875878839E+03  0.80676021960E+02 0.  0.
          5    1    3    3  501    0 -0.82145204423E+01  0.24377401846E+02  0.82686899423E+01  0.27426215565E+02  0.47000000000E+01 0. -1.
        -11    1    4    4    0    0  0.22086084694E+03  0.74498610308E+02  0.25570819159E+02  0.23448544398E+03  0.00000000000E+00 0.  1.
         12    1    4    4    0    0  0.15367356540E+03  0.73360197982E+02 -0.51045382372E+02  0.17777208559E+03  0.00000000000E+00 0. -1.
         -5    1    5    5    0  502 -0.14778041155E+03 -0.12684304039E+03  0.99663294159E+02  0.21882200332E+03  0.47000000000E+01 0.  1.
         13    1    6    6    0    0 -0.34001836667E+02 -0.37502278424E+02 -0.70661633289E+01  0.51112390356E+02  0.00000000000E+00 0. -1.
        -14    1    6    6    0    0 -0.18453764368E+03 -0.78908913220E+01  0.33087196840E+02  0.18764639803E+03  0.00000000000E+00 0.  1.
</event>
<event>
12    1  0.8251070E-002  0.1946486E+03  0.7818608E-02  0.1156788E+00
         21   -1    0    0  501  502  0.00000000000E+00  0.00000000000E+00  0.16329036552E+02  0.16329036552E+02  0.00000000000E+00 0. -1.
         21   -1    0    0  502  503 -0.00000000000E+00 -0.00000000000E+00 -0.26165186630E+04  0.26165186630E+04  0.00000000000E+00 0. -1.
         -6    2    1    2    0  503 -0.12339556074E+02 -0.62273545633E+02 -0.17986391292E+04  0.18080014822E+04  0.17244240641E+03 0.  0.
        -24    2    3    3    0    0  0.27574192356E+02 -0.55051706284E+01 -0.14511592849E+04  0.14536286731E+04  0.79889961055E+02 0.  0.
          6    2    1    2  501    0  0.12339556074E+02  0.62273545633E+02 -0.80155049733E+03  0.82484621740E+03  0.18400495500E+03 0.  0.
         24    2    5    5    0    0  0.68252706178E+02  0.66012365651E+02 -0.37855623953E+03  0.39813027997E+03  0.78656398468E+02 0.  0.
          5    1    5    5  501    0 -0.55913150104E+02 -0.37388200175E+01 -0.42299425780E+03  0.42671593743E+03  0.47000000000E+01 0. -1.
        -13    1    6    6    0    0  0.58401945590E+02  0.73569384751E+02 -0.37278829371E+03  0.38444031208E+03  0.00000000000E+00 0.  1.
         14    1    6    6    0    0  0.98507605875E+01 -0.75570191000E+01 -0.57679458161E+01  0.13689967888E+02  0.00000000000E+00 0. -1.
         -5    1    3    3    0  503 -0.39913748430E+02 -0.56768375005E+02 -0.34747984421E+03  0.35437280912E+03  0.47000000000E+01 0.  1.
         11    1    4    4    0    0  0.33338482649E+02 -0.97846373559E+01 -0.24534163542E+03  0.24778965197E+03  0.00000000000E+00 0. -1.
        -12    1    4    4    0    0 -0.57642902933E+01  0.42794667275E+01 -0.12058176495E+04  0.12058390211E+04  0.00000000000E+00 0.  1.
</event>
<event>
12    1  0.8251070E-002  0.1979769E+03  0.7818608E-02  0.1151904E+00
         21   -1    0    0  503  502  0.00000000000E+00  0.00000000000E+00  0.11981381820E+03  0.11981381820E+03  0.00000000000E+00 0. -1.
         21   -1    0    0  501  503 -0.00000000000E+00 -0.00000000000E+00 -0.88082506505E+03  0.88082506505E+03  0.00000000000E+00 0. -1.
          6    2    1    2  501    0  0.85061520130E+02 -0.42180478973E+02 -0.77914270295E+03  0.80390185515E+03  0.17372445461E+03 0.  0.
         24    2    3    3    0    0  0.12562950673E+02 -0.19973783163E+02 -0.63978504588E+03  0.64518252269E+03  0.79867408264E+02 0.  0.
         -6    2    1    2    0  502 -0.85061520130E+02  0.42180478973E+02  0.18131456104E+02  0.19673702810E+03  0.17135359206E+03 0.  0.
        -24    2    5    5    0    0 -0.42929276619E+02  0.81340359608E+02  0.49964975335E+02  0.13082735399E+03  0.78486437680E+02 0.  0.
          5    1    3    3  501    0  0.72498569457E+02 -0.22206695810E+02 -0.13935765707E+03  0.15871933246E+03  0.47000000000E+01 0. -1.
        -13    1    4    4    0    0 -0.78959949392E+01 -0.34023332592E+01 -0.51926799186E+01  0.10044228812E+02  0.00000000000E+00 0.  1.
         14    1    4    4    0    0  0.20458945612E+02 -0.16571449903E+02 -0.63459236596E+03  0.63513829387E+03  0.00000000000E+00 0. -1.
         -5    1    5    5    0  502 -0.42132243511E+02 -0.39159880635E+02 -0.31833519231E+02  0.65909674110E+02  0.47000000000E+01 0.  1.
         13    1    6    6    0    0 -0.12327221602E+02  0.72439508437E+02  0.23345894616E+01  0.73517977957E+02  0.00000000000E+00 0. -1.
        -14    1    6    6    0    0 -0.30602055016E+02  0.89008511714E+01  0.47630385874E+02  0.57309376033E+02  0.00000000000E+00 0.  1.
</event>
<event>
12    1  0.8251070E-002  0.2573784E+03  0.7818608E-02  0.1109020E+00
         21   -1    0    0  501  502  0.00000000000E+00  0.00000000000E+00  0.33350361411E+03  0.33350361411E+03  0.00000000000E+00 0.  1.
         21   -1    0    0  502  503 -0.00000000000E+00 -0.00000000000E+00 -0.29170844979E+03  0.29170844979E+03  0.00000000000E+00 0.  1.
         -6    2    1    2    0  503  0.91933106671E+01 -0.19073098504E+03  0.19881642268E+03  0.32371689077E+03  0.16971101858E+03 0.  0.
        -24    2    3    3    0    0  0.30704395193E+02 -0.29716825232E+02  0.52298186878E+02  0.10490653946E+03  0.80277220217E+02 0.  0.
          6    2    1    2  501    0 -0.91933106671E+01  0.19073098504E+03 -0.15702125836E+03  0.30149517313E+03  0.17257125552E+03 0.  0.
         24    2    5    5    0    0 -0.44873129955E+02  0.12274773692E+03 -0.35774995690E+02  0.15790715922E+03  0.81081538612E+02 0.  0.
          5    1    5    5  501    0  0.35679819288E+02  0.67983248116E+02 -0.12124626267E+03  0.14358801392E+03  0.47000000000E+01 0. -1.
        -11    1    6    6    0    0 -0.41185756093E+02  0.24691969570E+02 -0.35607875201E+02  0.59781942445E+02  0.00000000000E+00 0.  1.
         12    1    6    6    0    0 -0.36873738617E+01  0.98055767353E+02 -0.16712048888E+00  0.98125216772E+02  0.00000000000E+00 0. -1.
         -5    1    3    3    0  503 -0.21511084526E+02 -0.16101415981E+03  0.14651823580E+03  0.21881035130E+03  0.47000000000E+01 0.  1.
         11    1    4    4    0    0  0.33959319767E+02 -0.28121826924E+02 -0.77341904935E+01  0.44764832751E+02  0.00000000000E+00 0. -1.
        -12    1    4    4    0    0 -0.32549245744E+01 -0.15949983080E+01  0.60032377372E+02  0.60141706714E+02  0.00000000000E+00 0.  1.
</event>
<event>
12    1  0.8251070E-002  0.1760318E+03  0.7818608E-02  0.1171786E+00
         21   -1    0    0  503  502  0.00000000000E+00  0.00000000000E+00  0.57286075011E+03  0.57286075011E+03  0.00000000000E+00 0. -1.
         21   -1    0    0  501  503 -0.00000000000E+00 -0.00000000000E+00 -0.84875069359E+02  0.84875069359E+02  0.00000000000E+00 0. -1.
          6    2    1    2  501    0 -0.16545934292E+02  0.33469822885E+02  0.45748892632E+02  0.18187949453E+03  0.17202671992E+03 0.  0.
         24    2    3    3    0    0 -0.19775945228E+02  0.85294183083E+02  0.13390059275E+02  0.12051679106E+03  0.81724032953E+02 0.  0.
         -6    2    1    2    0  502  0.16545934292E+02 -0.33469822885E+02  0.44223678812E+03  0.47585632494E+03  0.17167372611E+03 0.  0.
        -24    2    5    5    0    0  0.23191373392E+02  0.60395089775E+02  0.18962720426E+03  0.20624832145E+03  0.48933494021E+02 0.  0.
          5    1    3    3  501    0  0.32300109359E+01 -0.51824360198E+02  0.32358833357E+02  0.61362703467E+02  0.47000000000E+01 0. -1.
        -11    1    4    4    0    0  0.26142970185E+02  0.52957237537E+02  0.23296309815E+02  0.63487336916E+02  0.00000000000E+00 0.  1.
         12    1    4    4    0    0 -0.45918915413E+02  0.32336945546E+02 -0.99062505395E+01  0.57029454142E+02  0.00000000000E+00 0. -1.
         -5    1    5    5    0  502 -0.66454390995E+01 -0.93864912660E+02  0.25260958385E+03  0.26960800349E+03  0.47000000000E+01 0.  1.
         13    1    6    6    0    0  0.23932253937E+02  0.31446110991E+02  0.16004494502E+03  0.16485143343E+03  0.00000000000E+00 0. -1.
        -14    1    6    6    0    0 -0.74088054542E+00  0.28948978784E+02  0.29582259238E+02  0.41396888026E+02  0.00000000000E+00 0.  1.
</event>
<event>
12    1  0.8251070E-002  0.1733251E+03  0.7818608E-02  0.1174692E+00
         21   -1    0    0  503  502  0.00000000000E+00  0.00000000000E+00  0.97832019883E+03  0.97832019883E+03  0.00000000000E+00 0. -1.
         21   -1    0    0  501  503 -0.00000000000E+00 -0.00000000000E+00 -0.70903703693E+02  0.70903703693E+02  0.00000000000E+00 0. -1.
          6    2    1    2  501    0  0.14699203037E+02  0.79286510450E+01  0.57200829797E+02  0.18152103753E+03  0.17146143023E+03 0.  0.
         24    2    3    3    0    0 -0.46409564102E+02  0.30051985555E+02  0.62189224184E+02  0.11617046424E+03  0.81062369075E+02 0.  0.
         -6    2    1    2    0  502 -0.14699203037E+02 -0.79286510450E+01  0.85021566534E+03  0.86770286500E+03  0.17251856206E+03 0.  0.
        -24    2    5    5    0    0 -0.15544918156E+01  0.29698230839E+02  0.21680474540E+03  0.23302180401E+03  0.80065361780E+02 0.  0.
          5    1    3    3  501    0  0.61108767138E+02 -0.22123334510E+02 -0.49883943871E+01  0.65350573292E+02  0.47000000000E+01 0. -1.
        -13    1    4    4    0    0 -0.53426675760E+02 -0.12603949739E+02  0.34922490167E+02  0.65060353144E+02  0.00000000000E+00 0.  1.
         14    1    4    4    0    0  0.70171116581E+01  0.42655935294E+02  0.27266734017E+02  0.51110111091E+02  0.00000000000E+00 0. -1.
         -5    1    5    5    0  502 -0.13144711221E+02 -0.37626881884E+02  0.63341091994E+03  0.63468106099E+03  0.47000000000E+01 0.  1.
         11    1    6    6    0    0 -0.97228057947E+00 -0.61974520283E+01  0.18486046581E+03  0.18496687693E+03  0.00000000000E+00 0. -1.
        -12    1    6    6    0    0 -0.58221123614E+00  0.35895682867E+02  0.31944279590E+02  0.48054927083E+02  0.00000000000E+00 0.  1.
</event>
<event>
12    1  0.8251070E-002  0.1835802E+03  0.7818608E-02  0.1165582E+00
         21   -1    0    0  501  502  0.00000000000E+00  0.00000000000E+00  0.21485572914E+03  0.21485572914E+03  0.00000000000E+00 0.  1.
         21   -1    0    0  502  503 -0.00000000000E+00 -0.00000000000E+00 -0.15921721057E+03  0.15921721057E+03  0.00000000000E+00 0.  1.
         -6    2    1    2    0  503 -0.42672067812E+02 -0.21047596028E+02  0.66303561208E+02  0.19518669488E+03  0.17730701329E+03 0.  0.
        -24    2    3    3    0    0 -0.69607106628E+02 -0.92861764053E+01 -0.15956197341E+02  0.10770763919E+03  0.80093401363E+02 0.  0.
          6    2    1    2  501    0  0.42672067812E+02  0.21047596028E+02 -0.10665042641E+02  0.17888624483E+03  0.17211228539E+03 0.  0.
         24    2    5    5    0    0  0.68057201423E+01  0.64324959377E+02 -0.46387422249E+02  0.11212170725E+03  0.78964967342E+02 0.  0.
          5    1    5    5  501    0  0.35866347670E+02 -0.43277363349E+02  0.35722379608E+02  0.66764537581E+02  0.47000000000E+01 0. -1.
        -13    1    6    6    0    0  0.21818659627E+02 -0.11564326068E+02 -0.10232873091E+02  0.26730118538E+02  0.00000000000E+00 0.  1.
         14    1    6    6    0    0 -0.15012939485E+02  0.75889285445E+02 -0.36154549158E+02  0.85391588708E+02  0.00000000000E+00 0. -1.
         -5    1    3    3    0  503  0.26935038816E+02 -0.11761419623E+02  0.82259758549E+02  0.87479055689E+02  0.47000000000E+01 0.  1.
         13    1    4    4    0    0 -0.12958743215E+00  0.19351706301E+02 -0.25439272544E+02  0.31963446580E+02  0.00000000000E+00 0. -1.
        -14    1    4    4    0    0 -0.69477519196E+02 -0.28637882707E+02  0.94830752027E+01  0.75744192615E+02  0.00000000000E+00 0.  1.
</event>
<event>
12    1  0.8251070E-002  0.1902868E+03  0.7818608E-02  0.1158427E+00
         21   -1    0    0  501  502  0.00000000000E+00  0.00000000000E+00  0.32450085531E+02  0.32450085531E+02  0.00000000000E+00 0.  1.
         21   -1    0    0  502  503 -0.00000000000E+00 -0.00000000000E+00 -0.11678811052E+04  0.11678811052E+04  0.00000000000E+00 0.  1.
         -6    2    1    2    0  503 -0.27574226041E+02 -0.73221021842E+02 -0.70270518634E+03  0.72801349981E+03  0.17345725990E+03 0.  0.
        -24    2    3    3    0    0 -0.80766328903E+02 -0.24824188008E+02 -0.46368767845E+03  0.47836752566E+03  0.81791113578E+02 0.  0.
          6    2    1    2  501    0  0.27574226041E+02  0.73221021842E+02 -0.43272583335E+03  0.47231769095E+03  0.17236791566E+03 0.  0.
         24    2    5    5    0    0  0.44554786867E+02  0.28915834797E+02 -0.10802500013E+03  0.14413479965E+03  0.79272853374E+02 0.  0.
          5    1    5    5  501    0 -0.16980560826E+02  0.44305187045E+02 -0.32470083322E+03  0.32818289130E+03  0.47000000000E+01 0. -1.
        -11    1    6    6    0    0 -0.39119001645E+01 -0.52683274557E+01  0.10049244044E+02  0.12001897472E+02  0.00000000000E+00 0.  1.
         12    1    6    6    0    0  0.48466687031E+02  0.34184162253E+02 -0.11807424417E+03  0.13213290218E+03  0.00000000000E+00 0. -1.
         -5    1    3    3    0  503  0.53192102863E+02 -0.48396833834E+02 -0.23901750789E+03  0.24964597415E+03  0.47000000000E+01 0.  1.
         11    1    4    4    0    0 -0.28978900522E+02  0.18279153715E+02 -0.59982444893E+02  0.69078200841E+02  0.00000000000E+00 0. -1.
        -12    1    4    4    0    0 -0.51787428381E+02 -0.43103341723E+02 -0.40370523356E+03  0.40928932482E+03  0.00000000000E+00 0.  1.
</event>
<event>
12    1  0.8251070E-002  0.2569695E+03  0.7818608E-02  0.1109209E+00
         21   -1    0    0  501  502  0.00000000000E+00  0.00000000000E+00  0.17255066599E+03  0.17255066599E+03  0.00000000000E+00 0. -1.
         21   -1    0    0  502  503 -0.00000000000E+00 -0.00000000000E+00 -0.42483285764E+03  0.42483285764E+03  0.00000000000E+00 0.  1.
         -6    2    1    2    0  503  0.14329511661E+03  0.12330133275E+03 -0.22302136117E+03  0.34025266554E+03  0.17405929957E+03 0.  0.
        -24    2    3    3    0    0  0.96616808032E+02  0.15467791657E+03 -0.15786723849E+03  0.25405229312E+03  0.79752349057E+02 0.  0.
          6    2    1    2  501    0 -0.14329511661E+03 -0.12330133275E+03 -0.29260830480E+02  0.25713085809E+03  0.17182366798E+03 0.  0.
         24    2    5    5    0    0 -0.19453413389E+02 -0.75660948293E+02 -0.18463714732E+02  0.12392034275E+03  0.94405128021E+02 0.  0.
          5    1    5    5  501    0 -0.12384170322E+03 -0.47640384459E+02 -0.10797115748E+02  0.13321051534E+03  0.47000000000E+01 0. -1.
        -13    1    6    6    0    0  0.12390019596E+02  0.42187357164E+01 -0.34092684241E+02  0.36518781954E+02  0.00000000000E+00 0.  1.
         14    1    6    6    0    0 -0.31843432986E+02 -0.79879684010E+02  0.15628969509E+02  0.87401560797E+02  0.00000000000E+00 0. -1.
         -5    1    3    3    0  503  0.46678308577E+02 -0.31376583819E+02 -0.65154122678E+02  0.86200372422E+02  0.47000000000E+01 0.  1.
         13    1    4    4    0    0  0.27982676367E+02  0.38656119130E+02 -0.16997773335E+01  0.47751596474E+02  0.00000000000E+00 0. -1.
        -14    1    4    4    0    0  0.68634131665E+02  0.11602179744E+03 -0.15616746116E+03  0.20630069664E+03  0.00000000000E+00 0.  1.
</event>
<event>
12    1  0.8251070E-002  0.2435944E+03  0.7818608E-02  0.1117713E+00
         21   -1    0    0  503  502  0.00000000000E+00  0.00000000000E+00  0.39540999950E+03  0.39540999950E+03  0.00000000000E+00 0. -1.
         21   -1    0    0  501  503 -0.00000000000E+00 -0.00000000000E+00 -0.35628125095E+03  0.35628125095E+03  0.00000000000E+00 0.  1.
          6    2    1    2  501    0  0.94115357105E+02  0.13777736080E+03 -0.26716023174E+03  0.36034590577E+03  0.17502651452E+03 0.  0.
         24    2    3    3    0    0  0.21157567131E+02  0.10316190895E+03 -0.23918908460E+03  0.27475651567E+03  0.84792114052E+02 0.  0.
         -6    2    1    2    0  502 -0.94115357105E+02 -0.13777736080E+03  0.30628898030E+03  0.39134534468E+03  0.17747658370E+03 0.  0.
        -24    2    5    5    0    0 -0.65411101445E+02 -0.17027453644E+03  0.26320753836E+03  0.33004198950E+03  0.79859104883E+02 0.  0.
          5    1    3    3  501    0  0.72957789974E+02  0.34615451850E+02 -0.27971147139E+02  0.85589390096E+02  0.47000000000E+01 0. -1.
        -11    1    4    4    0    0  0.47917789193E+02  0.30293621551E+02 -0.85690158904E+02  0.10274542014E+03  0.00000000000E+00 0.  1.
         12    1    4    4    0    0 -0.26760222062E+02  0.72868287400E+02 -0.15349892570E+03  0.17201109553E+03  0.00000000000E+00 0. -1.
         -5    1    5    5    0  502 -0.28704255660E+02  0.32497175637E+02  0.43081441942E+02  0.61303355187E+02  0.47000000000E+01 0.  1.
         13    1    6    6    0    0  0.18319428149E+02 -0.32772141325E+02  0.60193853083E+02  0.70943038021E+02  0.00000000000E+00 0. -1.
        -14    1    6    6    0    0 -0.83730529595E+02 -0.13750239511E+03  0.20301368527E+03  0.25909895148E+03  0.00000000000E+00 0.  1.
</event>
<event>
12    1  0.8251070E-002  0.1897305E+03  0.7818608E-02  0.1159153E+00
         21   -1    0    0  503  502  0.00000000000E+00  0.00000000000E+00  0.14227689135E+03  0.14227689135E+03  0.00000000000E+00 0. -1.
         21   -1    0    0  501  503 -0.00000000000E+00 -0.00000000000E+00 -0.45488418355E+03  0.45488418355E+03  0.00000000000E+00 0. -1.
          6    2    1    2  501    0 -0.76514317649E+02  0.34912280871E+01 -0.35694633502E+03  0.40423796588E+03  0.17358288365E+03 0.  0.
         24    2    3    3    0    0  0.13724808363E+01 -0.49741523394E+02 -0.15819353150E+03  0.18418150468E+03  0.80134452053E+02 0.  0.
         -6    2    1    2    0  502  0.76514317649E+02 -0.34912280871E+01  0.44339042818E+02  0.19292310902E+03  0.17142562759E+03 0.  0.
        -24    2    5    5    0    0  0.10138514552E+03 -0.44492013843E+02  0.57243308632E+02  0.14304092194E+03  0.70181350362E+02 0.  0.
          5    1    3    3  501    0 -0.77886798485E+02  0.53232751481E+02 -0.19875280352E+03  0.22005646120E+03  0.47000000000E+01 0. -1.
        -11    1    4    4    0    0 -0.13749675477E+02  0.16791507008E+01  0.31181876493E+01  0.14198458262E+02  0.00000000000E+00 0.  1.
         12    1    4    4    0    0  0.15122156313E+02 -0.51420674094E+02 -0.16131171914E+03  0.16998304642E+03  0.00000000000E+00 0. -1.
         -5    1    5    5    0  502 -0.24870827867E+02  0.41000785756E+02 -0.12904265814E+02  0.49882187077E+02  0.47000000000E+01 0.  1.
         13    1    6    6    0    0  0.74521567972E+02 -0.17594536353E+02  0.27776653218E+01  0.76620801530E+02  0.00000000000E+00 0. -1.
        -14    1    6    6    0    0  0.26863577544E+02 -0.26897477490E+02  0.54465643310E+02  0.66420120408E+02  0.00000000000E+00 0.  1.
</event>
<event>
12    1  0.8251070E-002  0.1870876E+03  0.7818608E-02  0.1161270E+00
         21   -1    0    0  501  502  0.00000000000E+00  0.00000000000E+00  0.41993283664E+03  0.41993283664E+03  0.00000000000E+00 0. -1.
         21   -1    0    0  502  503 -0.00000000000E+00 -0.00000000000E+00 -0.39386527093E+03  0.39386527093E+03  0.00000000000E+00 0. -1.
         -6    2    1    2    0  503 -0.48278586790E+02 -0.53486940215E+02 -0.34842419669E+03  0.39547589691E+03  0.17265598593E+03 0.  0.
        -24    2    3    3    0    0 -0.40591284217E+02 -0.77926316945E+02 -0.13309051173E+03  0.17857254600E+03  0.80342433653E+02 0.  0.
          6    2    1    2  501    0  0.48278586790E+02  0.53486940215E+02  0.37449176240E+03  0.41832221067E+03  0.17192357929E+03 0.  0.
         24    2    5    5    0    0  0.64194934267E+02 -0.24301680578E+02  0.17829093272E+03  0.20661190102E+03  0.78671848147E+02 0.  0.
          5    1    5    5  501    0 -0.15916347477E+02  0.77788620793E+02  0.19620082968E+03  0.21171030964E+03  0.47000000000E+01 0. -1.
        -13    1    6    6    0    0  0.40924605172E+02  0.12553909837E+02  0.14659931110E+03  0.15272125581E+03  0.00000000000E+00 0.  1.
         14    1    6    6    0    0  0.23270329095E+02 -0.36855590415E+02  0.31691621619E+02  0.53890645217E+02  0.00000000000E+00 0. -1.
         -5    1    3    3    0  503 -0.76873025729E+01  0.24439376730E+02 -0.21533368497E+03  0.21690335091E+03  0.47000000000E+01 0.  1.
         11    1    4    4    0    0 -0.50694990039E+01 -0.60548899178E+02 -0.12386631139E+03  0.13796641660E+03  0.00000000000E+00 0. -1.
        -12    1    4    4    0    0 -0.35521785213E+02 -0.17377417767E+02 -0.92242003390E+01  0.40606129400E+02  0.00000000000E+00 0.  1.
</event>
<event>
12    1  0.8251070E-002  0.2185812E+03  0.7818608E-02  0.1135055E+00
         21   -1    0    0  503  502  0.00000000000E+00  0.00000000000E+00  0.44980394414E+02  0.44980394414E+02  0.00000000000E+00 0. -1.
         21   -1    0    0  501  503 -0.00000000000E+00 -0.00000000000E+00 -0.14782701550E+04  0.14782701550E+04  0.00000000000E+00 0.  1.
          6    2    1    2  501    0 -0.10385766457E+03  0.80724798528E+02 -0.31188989095E+03  0.38085827191E+03  0.17457036294E+03 0.  0.
         24    2    3    3    0    0 -0.14164775064E+03  0.70617485773E+02 -0.26794344203E+03  0.32183599858E+03  0.82059778800E+02 0.  0.
         -6    2    1    2    0  502  0.10385766457E+03 -0.80724798528E+02 -0.11213998696E+04  0.11423922775E+04  0.17383768434E+03 0.  0.
        -24    2    5    5    0    0  0.14078619292E+03 -0.78609217618E+02 -0.97221669370E+03  0.98862003726E+03  0.78511893037E+02 0.  0.
          5    1    3    3  501    0  0.37790086067E+02  0.10107312754E+02 -0.43946448922E+02  0.59022273329E+02  0.47000000000E+01 0. -1.
        -11    1    4    4    0    0  0.10188830041E+02  0.10064501124E+02 -0.15639154478E+02  0.21205885817E+02  0.00000000000E+00 0.  1.
         12    1    4    4    0    0 -0.15183658068E+03  0.60552984649E+02 -0.25230428755E+03  0.30063011276E+03  0.00000000000E+00 0. -1.
         -5    1    5    5    0  502 -0.36928528344E+02 -0.21155809098E+01 -0.14918317589E+03  0.15377224020E+03  0.47000000000E+01 0.  1.
         11    1    6    6    0    0  0.10802415458E+03 -0.77966109166E+02 -0.58305311559E+03  0.59807931560E+03  0.00000000000E+00 0. -1.
        -12    1    6    6    0    0  0.32762038338E+02 -0.64310845175E+00 -0.38916357811E+03  0.39054072166E+03  0.00000000000E+00 0.  1.
</event>
<event>
12    1  0.8251070E-002  0.1729019E+03  0.7818608E-02  0.1175795E+00
         21   -1    0    0  503  502  0.00000000000E+00  0.00000000000E+00  0.62694695860E+03  0.62694695860E+03  0.00000000000E+00 0.  1.
         21   -1    0    0  501  503 -0.00000000000E+00 -0.00000000000E+00 -0.47082372543E+02  0.47082372543E+02  0.00000000000E+00 0.  1.
          6    2    1    2  501    0  0.18834846669E+02 -0.89257849635E+01  0.31785975188E+03  0.36011594751E+03  0.16797098767E+03 0.  0.
         24    2    3    3    0    0  0.42967116243E+02 -0.60187121530E+02  0.23682800118E+03  0.26112945508E+03  0.81439716922E+02 0.  0.
         -6    2    1    2    0  502 -0.18834846669E+02  0.89257849635E+01  0.26200483417E+03  0.31391338363E+03  0.17164107378E+03 0.  0.
        -24    2    5    5    0    0 -0.24585960300E+01  0.46763834994E+01  0.38262997243E+02  0.89483575917E+02  0.80717656953E+02 0.  0.
          5    1    3    3  501    0 -0.24132269574E+02  0.51261336566E+02  0.81031750701E+02  0.98986492427E+02  0.47000000000E+01 0. -1.
        -11    1    4    4    0    0 -0.21947164654E+02 -0.17569274065E+02  0.35096078059E+02  0.44967678644E+02  0.00000000000E+00 0.  1.
         12    1    4    4    0    0  0.64914280896E+02 -0.42617847464E+02  0.20173192312E+03  0.21616177644E+03  0.00000000000E+00 0. -1.
         -5    1    5    5    0  502 -0.16376250639E+02  0.42494014641E+01  0.22374183693E+03  0.22442980772E+03  0.47000000000E+01 0.  1.
         13    1    6    6    0    0 -0.30452131543E+02  0.18205786206E+02  0.45364866937E+02  0.57591267733E+02  0.00000000000E+00 0. -1.
        -14    1    6    6    0    0  0.27993535513E+02 -0.13529402707E+02 -0.71018696944E+01  0.31892308184E+02  0.00000000000E+00 0.  1.
</event>
<event>
12    1  0.8251070E-002  0.2378743E+03  0.7818608E-02  0.1121294E+00
         21   -1    0    0  503  502  0.00000000000E+00  0.00000000000E+00  0.16291336538E+03  0.16291336538E+03  0.00000000000E+00 0.  1.
         21   -1    0    0  501  503 -0.00000000000E+00 -0.00000000000E+00 -0.55649593704E+03  0.55649593704E+03  0.00000000000E+00 0.  1.
          6    2    1    2  501    0  0.11702805894E+03 -0.11562532929E+03  0.23970806750E+02  0.23907904714E+03  0.17181212954E+03 0.  0.
         24    2    3    3    0    0  0.50178608993E+02 -0.12273769457E+03  0.56015001292E+02  0.16445763533E+03  0.79537406169E+02 0.  0.
         -6    2    1    2    0  502 -0.11702805894E+03  0.11562532929E+03 -0.41755337841E+03  0.48033025527E+03  0.17117694633E+03 0.  0.
        -24    2    5    5    0    0 -0.14293321144E+03  0.11028153505E+03 -0.40524500870E+03  0.45077997561E+03  0.79919643540E+02 0.  0.
          5    1    3    3  501    0  0.66849449944E+02  0.71123652769E+01 -0.32044194542E+02  0.74621411816E+02  0.47000000000E+01 0. -1.
        -13    1    4    4    0    0  0.55742432040E+02 -0.84997218873E+02  0.63649027401E+01  0.10184428277E+03  0.00000000000E+00 0.  1.
         14    1    4    4    0    0 -0.55638230470E+01 -0.37740475694E+02  0.49650098552E+02  0.62613352559E+02  0.00000000000E+00 0. -1.
         -5    1    5    5    0  502  0.25905152506E+02  0.53437942440E+01 -0.12308369704E+02  0.29550279661E+02  0.47000000000E+01 0.  1.
         13    1    6    6    0    0 -0.41786465598E+02  0.57068041144E+02 -0.84017710620E+02  0.10982643455E+03  0.00000000000E+00 0. -1.
        -14    1    6    6    0    0 -0.10114674584E+03  0.53213493902E+02 -0.32122729808E+03  0.34095354106E+03  0.00000000000E+00 0.  1.
</event>
<event>
12    1  0.8251070E-002  0.2132295E+03  0.7818608E-02  0.1139477E+00
         21   -1    0    0  503  502  0.00000000000E+00  0.00000000000E+00  0.88747693779E+02  0.88747693779E+02  0.00000000000E+00 0. -1.
         21   -1    0    0  501  503 -0.00000000000E+00 -0.00000000000E+00 -0.11610906339E+04  0.11610906339E+04  0.00000000000E+00 0. -1.
          6    2    1    2  501    0 -0.10978708496E+03 -0.50859217207E+02 -0.10040001404E+04  0.10259241105E+04  0.17281242599E+03 0.  0.
         24    2    3    3    0    0 -0.29857448355E+02  0.34318607668E+02 -0.51990694024E+03  0.52791575203E+03  0.79514657018E+02 0.  0.
         -6    2    1    2    0  502  0.10978708496E+03  0.50859217207E+02 -0.68342799721E+02  0.22391421718E+03  0.17557612134E+03 0.  0.
        -24    2    5    5    0    0  0.54211562228E+02 -0.26454785296E+02  0.88467755559E+01  0.10125039105E+03  0.80837040431E+02 0.  0.
          5    1    3    3  501    0 -0.79929636606E+02 -0.85177824875E+02 -0.48409320014E+03  0.49800835844E+03  0.47000000000E+01 0. -1.
        -13    1    4    4    0    0  0.26801778681E+02  0.11334195815E+02 -0.21287905224E+03  0.21485876808E+03  0.00000000000E+00 0.  1.
         14    1    4    4    0    0 -0.56659227037E+02  0.22984411852E+02 -0.30702788799E+03  0.31305698395E+03  0.00000000000E+00 0. -1.
         -5    1    5    5    0  502  0.55575522733E+02  0.77314002503E+02 -0.77189575277E+02  0.12266382613E+03  0.47000000000E+01 0.  1.
         13    1    6    6    0    0  0.55191529512E+02  0.16524074946E+02  0.86645586256E+01  0.58259973901E+02  0.00000000000E+00 0. -1.
        -14    1    6    6    0    0 -0.97996728416E+00 -0.42978860242E+02  0.18221693028E+00  0.42990417148E+02  0.00000000000E+00 0.  1.
</event>
<event>
12    1  0.8251070E-002  0.2557486E+03  0.7818608E-02  0.1109789E+00
         21   -1    0    0  501  502  0.00000000000E+00  0.00000000000E+00  0.11047239343E+04  0.11047239343E+04  0.00000000000E+00 0.  1.
         21   -1    0    0  502  503 -0.00000000000E+00 -0.00000000000E+00 -0.59355835513E+02  0.59355835513E+02  0.00000000000E+00 0.  1.
         -6    2    1    2    0  503 -0.11106614123E+03  0.15254862197E+03  0.55971017280E+03  0.61519818868E+03  0.17200745341E+03 0.  0.
        -24    2    3    3    0    0  0.63267670703E+01  0.31143341206E+02  0.21597116451E+03  0.23218522162E+03  0.79098024983E+02 0.  0.
          6    2    1    2  501    0  0.11106614123E+03 -0.15254862197E+03  0.48565792603E+03  0.54888158117E+03  0.17262850067E+03 0.  0.
         24    2    5    5    0    0  0.10209253629E+03 -0.61046029970E+02  0.39265919895E+03  0.41802248456E+03  0.80075260469E+02 0.  0.
          5    1    5    5  501    0  0.89736049445E+01 -0.91502591996E+02  0.92998727080E+02  0.13085909661E+03  0.47000000000E+01 0. -1.
        -11    1    6    6    0    0  0.62867782605E+02  0.14263823765E+01  0.24529032975E+03  0.25322270539E+03  0.00000000000E+00 0.  1.
         12    1    6    6    0    0  0.39224753683E+02 -0.62472412346E+02  0.14736886919E+03  0.16479977917E+03  0.00000000000E+00 0. -1.
         -5    1    3    3    0  503 -0.11739290830E+03  0.12140528076E+03  0.34373900829E+03  0.38301296706E+03  0.47000000000E+01 0.  1.
         11    1    4    4    0    0  0.11278094019E+02 -0.77081283911E+01  0.17490192062E+03  0.17543458178E+03  0.00000000000E+00 0. -1.
        -12    1    4    4    0    0 -0.49513269487E+01  0.38851469597E+02  0.41069243884E+02  0.56750639834E+02  0.00000000000E+00 0.  1.
</event>
<event>
12    1  0.8251070E-002  0.1883907E+03  0.7818608E-02  0.1160242E+00
         21   -1    0    0  501  502  0.00000000000E+00  0.00000000000E+00  0.36225475288E+03  0.36225475288E+03  0.00000000000E+00 0.  1.
         21   -1    0    0  502  503 -0.00000000000E+00 -0.00000000000E+00 -0.17101608422E+04  0.17101608422E+04  0.00000000000E+00 0.  1.
         -6    2    1    2    0  503 -0.76002567701E+02  0.93926443317E+01 -0.16804113398E+04  0.16909385931E+04  0.17212333518E+03 0.  0.
        -24    2    3    3    0    0 -0.11544073248E+03  0.67447430528E+01 -0.14748136555E+04  0.14815230301E+04  0.80393507112E+02 0.  0.
          6    2    1    2  501    0  0.76002567701E+02 -0.93926443317E+01  0.33250525043E+03  0.38147700206E+03  0.17058824540E+03 0.  0.
         24    2    5    5    0    0  0.11111284505E+03  0.97361807936E+01  0.19423703838E+03  0.23746716909E+03  0.78878208452E+02 0.  0.
          5    1    5    5  501    0 -0.35110277345E+02 -0.19128825125E+02  0.13826821206E+03  0.14400983297E+03  0.47000000000E+01 0. -1.
        -13    1    6    6    0    0 -0.32658744279E+01  0.21385528782E+02  0.29868756339E+02  0.36880203122E+02  0.00000000000E+00 0.  1.
         14    1    6    6    0    0  0.11437871947E+03 -0.11649347989E+02  0.16436828204E+03  0.20058696597E+03  0.00000000000E+00 0. -1.
         -5    1    3    3    0  503  0.39438164775E+02  0.26479012789E+01 -0.20559768428E+03  0.20941556294E+03  0.47000000000E+01 0.  1.
         11    1    4    4    0    0 -0.12045446382E+02 -0.15521424073E+02 -0.69177468378E+02  0.71913347266E+02  0.00000000000E+00 0. -1.
        -12    1    4    4    0    0 -0.10339528609E+03  0.22266167126E+02 -0.14056361871E+04  0.14096096828E+04  0.00000000000E+00 0.  1.
</event>
<event>
12    1  0.8251070E-002  0.2314240E+03  0.7818608E-02  0.1125841E+00
         21   -1    0    0  501  502  0.00000000000E+00  0.00000000000E+00  0.54248060779E+03  0.54248060779E+03  0.00000000000E+00 0.  1.
         21   -1    0    0  502  503 -0.00000000000E+00 -0.00000000000E+00 -0.49707591258E+03  0.49707591258E+03  0.00000000000E+00 0. -1.
         -6    2    1    2    0  503  0.14352844726E+03  0.57047721661E+02 -0.44287590066E+03  0.49969602004E+03  0.17234323702E+03 0.  0.
        -24    2    3    3    0    0  0.14921326745E+03  0.65454437625E+02 -0.45143220701E+03  0.48561445648E+03  0.74037019357E+02 0.  0.
          6    2    1    2  501    0 -0.14352844726E+03 -0.57047721661E+02  0.48828059587E+03  0.53986050032E+03  0.17081148025E+03 0.  0.
         24    2    5    5    0    0 -0.12971937457E+03 -0.85591250448E+02  0.47228053544E+03  0.50403431635E+03  0.82756930909E+02 0.  0.
          5    1    5    5  501    0 -0.13809072690E+02  0.28543528787E+02  0.16000060434E+02  0.35826183973E+02  0.47000000000E+01 0. -1.
        -13    1    6    6    0    0 -0.79133260985E+02 -0.32096889086E+01  0.20073411398E+03  0.21579286275E+03  0.00000000000E+00 0.  1.
         14    1    6    6    0    0 -0.50586113587E+02 -0.82381561539E+02  0.27154642145E+03  0.28824145360E+03  0.00000000000E+00 0. -1.
         -5    1    3    3    0  503 -0.56848201874E+01 -0.84067159644E+01  0.85563063523E+01  0.14081563559E+02  0.47000000000E+01 0.  1.
         13    1    4    4    0    0  0.36202298232E+02  0.20526033317E+02 -0.44629257144E+02  0.61022086446E+02  0.00000000000E+00 0. -1.
        -14    1    4    4    0    0  0.11301096922E+03  0.44928404308E+02 -0.40680294986E+03  0.42459237004E+03  0.00000000000E+00 0.  1.
</event>
<event>
12    1  0.8251070E-002  0.2070075E+03  0.7818608E-02  0.1144088E+00
         21   -1    0    0  501  502  0.00000000000E+00  0.00000000000E+00  0.12210460009E+04  0.12210460009E+04  0.00000000000E+00 0. -1.
         21   -1    0    0  502  503 -0.00000000000E+00 -0.00000000000E+00 -0.36054421989E+02  0.36054421989E+02  0.00000000000E+00 0. -1.
         -6    2    1    2    0  503 -0.15701089048E+02  0.11269348747E+03  0.48516991686E+03  0.52748643260E+03  0.17293276736E+03 0.  0.
        -24    2    3    3    0    0  0.82669887993E+01  0.10958715064E+03  0.48406748164E+03  0.50284047050E+03  0.80308936649E+02 0.  0.
          6    2    1    2  501    0  0.15701089048E+02 -0.11269348747E+03  0.69982166205E+03  0.72961399030E+03  0.17216233573E+03 0.  0.
         24    2    5    5    0    0  0.19051936377E+02 -0.66184675645E+02  0.65919696544E+03  0.66759178677E+03  0.79967286760E+02 0.  0.
          5    1    5    5  501    0 -0.33508473286E+01 -0.46508811827E+02  0.40624696616E+02  0.62022203529E+02  0.47000000000E+01 0. -1.
        -13    1    6    6    0    0  0.34002794278E+02 -0.32446311227E+02  0.15311166417E+03  0.16016283849E+03  0.00000000000E+00 0.  1.
         14    1    6    6    0    0 -0.14950857902E+02 -0.33738364418E+02  0.50608530127E+03  0.50742894827E+03  0.00000000000E+00 0. -1.
         -5    1    3    3    0  503 -0.23968077847E+02  0.31063368363E+01  0.11024352275E+01  0.24645962097E+02  0.47000000000E+01 0.  1.
         13    1    4    4    0    0 -0.27886057619E+02  0.91562686520E+02  0.34182657476E+03  0.35497431595E+03  0.00000000000E+00 0. -1.
        -14    1    4    4    0    0  0.36153046419E+02  0.18024464116E+02  0.14224090688E+03  0.14786615455E+03  0.00000000000E+00 0.  1.
</event>
<event>
12    1  0.8251070E-002  0.2019987E+03  0.7818608E-02  0.1151801E+00
         21   -1    0    0  501  502  0.00000000000E+00  0.00000000000E+00  0.61107846661E+03  0.61107846661E+03  0.00000000000E+00 0. -1.
         21   -1    0    0  502  503 -0.00000000000E+00 -0.00000000000E+00 -0.74317524993E+02  0.74317524993E+02  0.00000000000E+00 0. -1.
         -6    2    1    2    0  503  0.25568035607E+02  0.10354007262E+03  0.11491432887E+03  0.21768023461E+03  0.15101361025E+03 0.  0.
        -24    2    3    3    0    0  0.32709762793E+02  0.10558512854E+03  0.13707031179E+03  0.19384404154E+03  0.81049948271E+02 0.  0.
          6    2    1    2  501    0 -0.25568035607E+02 -0.10354007262E+03  0.42184661275E+03  0.46771575699E+03  0.17154939103E+03 0.  0.
         24    2    5    5    0    0 -0.21149960681E+02 -0.12055818383E+02  0.90993429249E+02  0.12438674978E+03  0.81237896082E+02 0.  0.
          5    1    5    5  501    0 -0.44180749259E+01 -0.91484254236E+02  0.33085318350E+03  0.34332900721E+03  0.47000000000E+01 0. -1.
        -13    1    6    6    0    0  0.24296611710E+02 -0.26705747512E+02  0.48530992103E+02  0.60487845765E+02  0.00000000000E+00 0.  1.
         14    1    6    6    0    0 -0.45446572391E+02  0.14649929129E+02  0.42462437146E+02  0.63898904012E+02  0.00000000000E+00 0. -1.
         -5    1    3    3    0  503 -0.71417271855E+01 -0.20450559227E+01 -0.22155982925E+02  0.23836193075E+02  0.47000000000E+01 0.  1.
         11    1    4    4    0    0  0.14754337131E+02  0.91388973425E+02  0.52908761646E+02  0.10662538153E+03  0.00000000000E+00 0. -1.
        -12    1    4    4    0    0  0.17955425661E+02  0.14196155117E+02  0.84161550144E+02  0.87218660007E+02  0.00000000000E+00 0.  1.
</event>
<event>
12    1  0.8251070E-002  0.2517719E+03  0.7818608E-02  0.1112225E+00
         21   -1    0    0  503  502  0.00000000000E+00  0.00000000000E+00  0.66229574754E+02  0.66229574754E+02  0.00000000000E+00 0.  1.
         21   -1    0    0  501  503 -0.00000000000E+00 -0.00000000000E+00 -0.17557731576E+04  0.17557731576E+04  0.00000000000E+00 0.  1.
          6    2    1    2  501    0 -0.10484186050E+03 -0.15060131353E+03 -0.14597202185E+04  0.14812738405E+04  0.17238475256E+03 0.  0.
         24    2    3    3    0    0 -0.18265265664E+02 -0.14194310353E+03 -0.86249348412E+03  0.87772406324E+03  0.77608353149E+02 0.  0.
         -6    2    1    2    0  502  0.10484186050E+03  0.15060131353E+03 -0.22982336435E+03  0.34072889185E+03  0.17206053467E+03 0.  0.
        -24    2    5    5    0    0  0.57214407231E+02  0.10254888468E+02 -0.12343513408E+03  0.15822947029E+03  0.80135396723E+02 0.  0.
          5    1    3    3  501    0 -0.86576594838E+02 -0.86582100043E+01 -0.59722673437E+03  0.60354977725E+03  0.47000000000E+01 0. -1.
        -13    1    4    4    0    0 -0.29490748833E+02 -0.15713967416E+02 -0.12338330040E+03  0.12782829052E+03  0.00000000000E+00 0.  1.
         14    1    4    4    0    0  0.11225483169E+02 -0.12622913611E+03 -0.73911018372E+03  0.74989577272E+03  0.00000000000E+00 0. -1.
         -5    1    5    5    0  502  0.47627453271E+02  0.14034642506E+03 -0.10638823026E+03  0.18249942156E+03  0.47000000000E+01 0.  1.
         11    1    6    6    0    0  0.56145456464E+02  0.23304794174E+02 -0.13005253793E+03  0.14355865816E+03  0.00000000000E+00 0. -1.
        -12    1    6    6    0    0  0.10689507673E+01 -0.13049905706E+02  0.66174038418E+01  0.14670812120E+02  0.00000000000E+00 0.  1.
</event>
<event>
12    1  0.8251070E-002  0.2603997E+03  0.7818608E-02  0.1106919E+00
         21   -1    0    0  501  502  0.00000000000E+00  0.00000000000E+00  0.29593518539E+03  0.29593518539E+03  0.00000000000E+00 0.  1.
         21   -1    0    0  502  503 -0.00000000000E+00 -0.00000000000E+00 -0.22978168143E+03  0.22978168143E+03  0.00000000000E+00 0. -1.
         -6    2    1    2    0  503  0.16785839516E+03  0.10057044821E+03  0.18117999156E+02  0.26092376357E+03  0.17164525227E+03 0.  0.
        -24    2    3    3    0    0  0.13143303690E+03  0.13398795701E+03 -0.91574841907E+01  0.20427062059E+03  0.80095012992E+02 0.  0.
          6    2    1    2  501    0 -0.16785839516E+03 -0.10057044821E+03  0.48035504805E+02  0.26479310324E+03  0.17180547698E+03 0.  0.
         24    2    5    5    0    0 -0.12673441635E+03  0.39384522625E+01  0.49539263274E+02  0.15237583054E+03  0.68462627999E+02 0.  0.
          5    1    5    5  501    0 -0.41123978809E+02 -0.10450890048E+03 -0.15037584685E+01  0.11241727270E+03  0.47000000000E+01 0. -1.
        -13    1    6    6    0    0 -0.52595624877E+02 -0.22420758117E+02  0.46389988135E+02  0.73627584165E+02  0.00000000000E+00 0.  1.
         14    1    6    6    0    0 -0.74138791470E+02  0.26359210380E+02  0.31492751381E+01  0.78748246371E+02  0.00000000000E+00 0. -1.
         -5    1    3    3    0  503  0.36425358257E+02 -0.33417508797E+02  0.27275483346E+02  0.56653142985E+02  0.47000000000E+01 0.  1.
         11    1    4    4    0    0  0.74798475454E+02  0.11866044610E+03  0.14485591033E+02  0.14101399132E+03  0.00000000000E+00 0. -1.
        -12    1    4    4    0    0  0.56634561446E+02  0.15327510909E+02 -0.23643075223E+02  0.63256629272E+02  0.00000000000E+00 0.  1.
</event>
<event>
12    1  0.8251070E-002  0.2045864E+03  0.7818608E-02  0.1146060E+00
         21   -1    0    0  503  502  0.00000000000E+00  0.00000000000E+00  0.79106294828E+03  0.79106294828E+03  0.00000000000E+00 0.  1.
         21   -1    0    0  501  503 -0.00000000000E+00 -0.00000000000E+00 -0.57802029644E+02  0.57802029644E+02  0.00000000000E+00 0.  1.
          6    2    1    2  501    0 -0.32653244065E+02 -0.10523725073E+03  0.24052765554E+03  0.31534679226E+03  0.17160691427E+03 0.  0.
         24    2    3    3    0    0 -0.20436190401E+02  0.12560977817E+02  0.12469545628E+03  0.14962151527E+03  0.79134221257E+02 0.  0.
         -6    2    1    2    0  502  0.32653244065E+02  0.10523725073E+03  0.49273326310E+03  0.53351818566E+03  0.17237886349E+03 0.  0.
        -24    2    5    5    0    0 -0.13816986086E+02  0.10587915466E+03  0.45333440330E+03  0.47240963892E+03  0.79104242863E+02 0.  0.
          5    1    3    3  501    0 -0.12217053663E+02 -0.11779822855E+03  0.11583219926E+03  0.16572527699E+03  0.47000000000E+01 0. -1.
        -13    1    4    4    0    0  0.14021005981E+02 -0.34166187438E+01 -0.43740758871E+01  0.15079603185E+02  0.00000000000E+00 0.  1.
         14    1    4    4    0    0 -0.34457196382E+02  0.15977596561E+02  0.12906953217E+03  0.13454191209E+03  0.00000000000E+00 0. -1.
         -5    1    5    5    0  502  0.46470230151E+02 -0.64190393011E+00  0.39398859803E+02  0.61108546740E+02  0.47000000000E+01 0.  1.
         11    1    6    6    0    0 -0.14412797266E+01  0.38077706766E+02  0.32052111193E+03  0.32277820905E+03  0.00000000000E+00 0. -1.
        -12    1    6    6    0    0 -0.12375706359E+02  0.67801447893E+02  0.13281329136E+03  0.14963142988E+03  0.00000000000E+00 0.  1.
</event>
<event>
12    1  0.8251070E-002  0.2895442E+03  0.7818608E-02  0.1090672E+00
         21   -1    0    0  503  502  0.00000000000E+00  0.00000000000E+00  0.40305923404E+03  0.40305923404E+03  0.00000000000E+00 0.  1.
         21   -1    0    0  501  503 -0.00000000000E+00 -0.00000000000E+00 -0.21835489068E+03  0.21835489068E+03  0.00000000000E+00 0. -1.
          6    2    1    2  501    0 -0.96741512219E+02  0.21470492822E+03  0.23291482369E+02  0.29047949776E+03  0.16845984412E+03 0.  0.
         24    2    3    3    0    0 -0.12870500562E+03  0.14683336730E+03 -0.30364091531E+01  0.21083364687E+03  0.79476981892E+02 0.  0.
         -6    2    1    2    0  502  0.96741512219E+02 -0.21470492822E+03  0.16141286098E+03  0.33093462696E+03  0.16735139450E+03 0.  0.
        -24    2    5    5    0    0  0.32689713192E+02 -0.14879665251E+03  0.16591289064E+03  0.23879954118E+03  0.79303672284E+02 0.  0.
          5    1    3    3  501    0  0.31963493397E+02  0.67871560918E+02  0.26327891523E+02  0.79645850888E+02  0.47000000000E+01 0. -1.
        -13    1    4    4    0    0 -0.50305617161E+02  0.69502579623E+02  0.37304136892E+02  0.93556733170E+02  0.00000000000E+00 0.  1.
         14    1    4    4    0    0 -0.78399388454E+02  0.77330787674E+02 -0.40340546045E+02  0.11727691370E+03  0.00000000000E+00 0. -1.
         -5    1    5    5    0  502  0.64051799027E+02 -0.65908275700E+02 -0.45000296601E+01  0.92135085778E+02  0.47000000000E+01 0.  1.
         11    1    6    6    0    0  0.32427047533E+02 -0.28777462106E+02  0.14774140614E+02  0.45803176395E+02  0.00000000000E+00 0. -1.
        -12    1    6    6    0    0  0.26266565890E+00 -0.12001919041E+03  0.15113875003E+03  0.19299636479E+03  0.00000000000E+00 0.  1.
</event>
<event>
12    1  0.8251070E-002  0.2129021E+03  0.7818608E-02  0.1139507E+00
         21   -1    0    0  503  502  0.00000000000E+00  0.00000000000E+00  0.48964481401E+03  0.48964481401E+03  0.00000000000E+00 0. -1.
         21   -1    0    0  501  503 -0.00000000000E+00 -0.00000000000E+00 -0.13264250022E+03  0.13264250022E+03  0.00000000000E+00 0.  1.
          6    2    1    2  501    0  0.10297829491E+03  0.68591778670E+02  0.61228443496E+01  0.21186836887E+03  0.17187598780E+03 0.  0.
         24    2    3    3    0    0  0.12232885949E+02  0.71233897442E+01  0.47587901543E+02  0.94588647472E+02  0.80510978613E+02 0.  0.
         -6    2    1    2    0  502 -0.10297829491E+03 -0.68591778670E+02  0.35087946944E+03  0.41041894535E+03  0.17325688242E+03 0.  0.
        -24    2    5    5    0    0 -0.49186986881E+02 -0.84158515774E+02  0.32433361871E+03  0.34826912384E+03  0.81222354895E+02 0.  0.
          5    1    3    3  501    0  0.90745408959E+02  0.61468388926E+02 -0.41465057193E+02  0.11727972140E+03  0.47000000000E+01 0. -1.
        -11    1    4    4    0    0  0.69933287007E+01  0.45568281925E+00 -0.22717374540E+02  0.23773796481E+02  0.00000000000E+00 0.  1.
         12    1    4    4    0    0  0.52395572487E+01  0.66677069250E+01  0.70305276082E+02  0.70814850991E+02  0.00000000000E+00 0. -1.
         -5    1    5    5    0  502 -0.53791308027E+02  0.15566737104E+02  0.26545850722E+02  0.62149821511E+02  0.47000000000E+01 0. -1.
         11    1    6    6    0    0  0.19178572202E+01 -0.26994552910E+02  0.20259949969E+03  0.20439897587E+03  0.00000000000E+00 0. -1.
        -12    1    6    6    0    0 -0.51104844101E+02 -0.57163962864E+02  0.12173411902E+03  0.14387014797E+03  0.00000000000E+00 0.  1.
</event>
<event>
12    1  0.8251070E-002  0.1947604E+03  0.7818608E-02  0.1159197E+00
         21   -1    0    0  503  502  0.00000000000E+00  0.00000000000E+00  0.30363488231E+03  0.30363488231E+03  0.00000000000E+00 0.  1.
         21   -1    0    0  501  503 -0.00000000000E+00 -0.00000000000E+00 -0.11245065263E+03  0.11245065263E+03  0.00000000000E+00 0.  1.
          6    2    1    2  501    0 -0.21558427661E+02  0.93143685775E+01  0.72045366515E+02  0.18777507493E+03  0.17180634640E+03 0.  0.
         24    2    3    3    0    0 -0.13099893033E+02  0.55945245103E+02 -0.49092243388E+01  0.97275989256E+02  0.78339261900E+02 0.  0.
         -6    2    1    2    0  502  0.21558427661E+02 -0.93143685775E+01  0.11913886316E+03  0.22831046002E+03  0.19333927220E+03 0.  0.
        -24    2    5    5    0    0 -0.49007486684E+02  0.17466952638E+02  0.11954737580E+03  0.15268609678E+03  0.79464714833E+02 0.  0.
          5    1    3    3  501    0 -0.84585346279E+01 -0.46630876526E+02  0.76954590854E+02  0.90499085670E+02  0.47000000000E+01 0. -1.
        -11    1    4    4    0    0  0.18412516398E+02  0.21723940439E+02 -0.32482637899E+02  0.43198056822E+02  0.00000000000E+00 0.  1.
         12    1    4    4    0    0 -0.31512409431E+02  0.34221304664E+02  0.27573413560E+02  0.54077932435E+02  0.00000000000E+00 0. -1.
         -5    1    5    5    0  502  0.70565914345E+02 -0.26781321215E+02 -0.40851263545E+00  0.75624363243E+02  0.47000000000E+01 0.  1.
         11    1    6    6    0    0 -0.52536827960E+02  0.27541697859E+02  0.38007077980E+02  0.70449992120E+02  0.00000000000E+00 0. -1.
        -12    1    6    6    0    0  0.35293412764E+01 -0.10074745222E+02  0.81540297818E+02  0.82236104658E+02  0.00000000000E+00 0.  1.
</event>
<event>
12    1  0.8251070E-002  0.1747659E+03  0.7818608E-02  0.1173782E+00
         21   -1    0    0  503  502  0.00000000000E+00  0.00000000000E+00  0.86719988048E+02  0.86719988048E+02  0.00000000000E+00 0.  1.
         21   -1    0    0  501  503 -0.00000000000E+00 -0.00000000000E+00 -0.36549981073E+03  0.36549981073E+03  0.00000000000E+00 0.  1.
          6    2    1    2  501    0 -0.54702186360E+01  0.68425556340E+01 -0.85633282137E+02  0.19174194643E+03  0.17133350855E+03 0.  0.
         24    2    3    3    0    0  0.57194711391E+02 -0.20578328289E+02 -0.33122912670E+02  0.10538091800E+03  0.79456327179E+02 0.  0.
         -6    2    1    2    0  502  0.54702186360E+01 -0.68425556340E+01 -0.19314654054E+03  0.26047785234E+03  0.17454621616E+03 0.  0.
        -24    2    5    5    0    0  0.32961079133E+02  0.12066509880E+01 -0.20982071099E+03  0.22700166531E+03  0.80107031819E+02 0.  0.
          5    1    3    3  501    0 -0.62664930027E+02  0.27420883923E+02 -0.52510369468E+02  0.86361028433E+02  0.47000000000E+01 0. -1.
        -11    1    4    4    0    0  0.35747997752E+02  0.28740264904E+02 -0.19899468712E+02  0.49999110243E+02  0.00000000000E+00 0.  1.
         12    1    4    4    0    0  0.21446713638E+02 -0.49318593193E+02 -0.13223443957E+02  0.55381807758E+02  0.00000000000E+00 0. -1.
         -5    1    5    5    0  502 -0.27490860497E+02 -0.80492066220E+01  0.16674170451E+02  0.33476187034E+02  0.47000000000E+01 0.  1.
         13    1    6    6    0    0 -0.40433481227E+01  0.86294022357E+01  0.36615339440E+01  0.10208921481E+02  0.00000000000E+00 0. -1.
        -14    1    6    6    0    0  0.37004427255E+02 -0.74227512477E+01 -0.21348224494E+03  0.21679274383E+03  0.00000000000E+00 0.  1.
</event>
<event>
12    1  0.8251070E-002  0.1762139E+03  0.7818608E-02  0.1172704E+00
         21   -1    0    0  503  502  0.00000000000E+00  0.00000000000E+00  0.10108673371E+03  0.10108673371E+03  0.00000000000E+00 0. -1.
         21   -1    0    0  501  503 -0.00000000000E+00 -0.00000000000E+00 -0.30285027610E+03  0.30285027610E+03  0.00000000000E+00 0. -1.
          6    2    1    2  501    0 -0.30391893209E+02  0.13465493483E+02 -0.79570211975E+02  0.19334623751E+03  0.17305017260E+03 0.  0.
         24    2    3    3    0    0 -0.32367478678E+02  0.10599909320E+02  0.24117912388E+02  0.89493304739E+02  0.79166698438E+02 0.  0.
         -6    2    1    2    0  502  0.30391893209E+02 -0.13465493483E+02 -0.12219333041E+03  0.21059077230E+03  0.16826252314E+03 0.  0.
        -24    2    5    5    0    0 -0.34417053538E+02 -0.11825416265E+02 -0.11585372429E+03  0.14528250302E+03  0.79753032587E+02 0.  0.
          5    1    3    3  501    0  0.19755854695E+01  0.28655841631E+01 -0.10368812436E+03  0.10385293277E+03  0.47000000000E+01 0. -1.
        -13    1    4    4    0    0 -0.27872502979E+02  0.43975250975E+02  0.19036462399E+02  0.55435422081E+02  0.00000000000E+00 0.  1.
         14    1    4    4    0    0 -0.44949756988E+01 -0.33375341655E+02  0.50814499888E+01  0.34057882657E+02  0.00000000000E+00 0. -1.
         -5    1    5    5    0  502  0.64808946746E+02 -0.16400772177E+01 -0.63396061221E+01  0.65308269288E+02  0.47000000000E+01 0.  1.
         13    1    6    6    0    0 -0.28204896536E+02  0.32356171694E+02 -0.52950544079E+02  0.68163026294E+02  0.00000000000E+00 0. -1.
        -14    1    6    6    0    0 -0.62121570019E+01 -0.44181587960E+02 -0.62903180211E+02  0.77119476722E+02  0.00000000000E+00 0.  1.
</event>
<event>
12    1  0.8251070E-002  0.1780088E+03  0.7818608E-02  0.1169965E+00
         21   -1    0    0  503  502  0.00000000000E+00  0.00000000000E+00  0.25127019907E+03  0.25127019907E+03  0.00000000000E+00 0. -1.
         21   -1    0    0  501  503 -0.00000000000E+00 -0.00000000000E+00 -0.29921082459E+03  0.29921082459E+03  0.00000000000E+00 0.  1.
          6    2    1    2  501    0 -0.31296128519E+02 -0.25869345748E+02 -0.23367919790E+03  0.29321474429E+03  0.17239561487E+03 0.  0.
         24    2    3    3    0    0 -0.75789303805E+02  0.18578278970E+02 -0.17008025003E+03  0.20364828762E+03  0.80350249407E+02 0.  0.
         -6    2    1    2    0  502  0.31296128519E+02  0.25869345748E+02  0.18573857238E+03  0.25726627937E+03  0.17331604231E+03 0.  0.
        -24    2    5    5    0    0 -0.23996455794E+02  0.43611872858E+02  0.51128686488E+02  0.11058983775E+03  0.84487539234E+02 0.  0.
          5    1    3    3  501    0  0.44493175286E+02 -0.44447624718E+02 -0.63598947870E+02  0.89566456669E+02  0.47000000000E+01 0. -1.
        -13    1    4    4    0    0 -0.20123042164E+02 -0.29650172707E+01 -0.13039079572E+03  0.13196775273E+03  0.00000000000E+00 0.  1.
         14    1    4    4    0    0 -0.55666261641E+02  0.21543296240E+02 -0.39689454307E+02  0.71680534883E+02  0.00000000000E+00 0. -1.
         -5    1    5    5    0  502  0.55292584313E+02 -0.17742527110E+02  0.13460988590E+03  0.14667644163E+03  0.47000000000E+01 0.  1.
         11    1    6    6    0    0 -0.46033980381E+02  0.70885613362E+01  0.49404320532E+02  0.67898173310E+02  0.00000000000E+00 0. -1.
        -12    1    6    6    0    0  0.22037524586E+02  0.36523311522E+02  0.17243659558E+01  0.42691664436E+02  0.00000000000E+00 0.  1.
</event>
<event>
12    1  0.8251070E-002  0.2345347E+03  0.7818608E-02  0.1123945E+00
         21   -1    0    0  501  502  0.00000000000E+00  0.00000000000E+00  0.16396452754E+03  0.16396452754E+03  0.00000000000E+00 0. -1.
         21   -1    0    0  502  503 -0.00000000000E+00 -0.00000000000E+00 -0.35116847710E+03  0.35116847710E+03  0.00000000000E+00 0.  1.
         -6    2    1    2    0  503 -0.11632714406E+03 -0.10758954394E+03 -0.32465476974E+02  0.23415168728E+03  0.16930886288E+03 0.  0.
        -24    2    3    3    0    0 -0.12439575799E+03 -0.13065127242E+03 -0.46818125692E+02  0.20542827564E+03  0.86398958011E+02 0.  0.
          6    2    1    2  501    0  0.11632714406E+03  0.10758954394E+03 -0.15473847259E+03  0.28098131736E+03  0.17291324818E+03 0.  0.
         24    2    5    5    0    0  0.92855628254E+02  0.14395545393E+03 -0.13918105019E+03  0.23474805168E+03  0.79937116653E+02 0.  0.
          5    1    5    5  501    0  0.23471515808E+02 -0.36365909993E+02 -0.15557422397E+02  0.46233265682E+02  0.47000000000E+01 0. -1.
        -11    1    6    6    0    0  0.53796884209E+02  0.90192748990E+02 -0.13084006281E+03  0.16777353414E+03  0.00000000000E+00 0.  1.
         12    1    6    6    0    0  0.39058744045E+02  0.53762704943E+02 -0.83409873811E+01  0.66974517540E+02  0.00000000000E+00 0. -1.
         -5    1    3    3    0  503  0.80686139294E+01  0.23061728483E+02  0.14352648718E+02  0.28723411646E+02  0.47000000000E+01 0.  1.
         11    1    4    4    0    0 -0.12400335037E+03 -0.81891392845E+02 -0.20479799166E+02  0.15000817744E+03  0.00000000000E+00 0. -1.
        -12    1    4    4    0    0 -0.39240762531E+00 -0.48759879578E+02 -0.26338326526E+02  0.55420098199E+02  0.00000000000E+00 0.  1.
</event>
<event>
12    1  0.8251070E-002  0.2067927E+03  0.7818608E-02  0.1144183E+00
         21   -1    0    0  503  502  0.00000000000E+00  0.00000000000E+00  0.36116220841E+02  0.36116220841E+02  0.00000000000E+00 0.  1.
         21   -1    0    0  501  503 -0.00000000000E+00 -0.00000000000E+00 -0.13291935241E+04  0.13291935241E+04  0.00000000000E+00 0. -1.
          6    2    1    2  501    0 -0.11368598671E+03 -0.20202962868E+02 -0.87289880709E+03  0.89700089688E+03  0.17124724321E+03 0.  0.
         24    2    3    3    0    0  0.51060315052E+01 -0.32720252418E+02 -0.35888672303E+03  0.36927109984E+03  0.80403847744E+02 0.  0.
         -6    2    1    2    0  502  0.11368598671E+03  0.20202962868E+02 -0.42017849617E+03  0.46830884806E+03  0.17155333061E+03 0.  0.
        -24    2    5    5    0    0  0.14124646960E+03  0.33825464530E+02 -0.39456664607E+03  0.42801977219E+03  0.80145866832E+02 0.  0.
          5    1    3    3  501    0 -0.11879201822E+03  0.12517289550E+02 -0.51401208406E+03  0.52772979704E+03  0.47000000000E+01 0. -1.
        -11    1    4    4    0    0 -0.35121666615E+02 -0.27913913368E+02 -0.22324408735E+03  0.22770735729E+03  0.00000000000E+00 0.  1.
         12    1    4    4    0    0  0.40227698120E+02 -0.48063390497E+01 -0.13564263568E+03  0.14156374255E+03  0.00000000000E+00 0. -1.
         -5    1    5    5    0  502 -0.27560482891E+02 -0.13622501663E+02 -0.25611850105E+02  0.40289075871E+02  0.47000000000E+01 0.  1.
         11    1    6    6    0    0  0.62766191016E+02  0.21774842304E+02 -0.28540815982E+03  0.29303848926E+03  0.00000000000E+00 0. -1.
        -12    1    6    6    0    0  0.78480278589E+02  0.12050622226E+02 -0.10915848625E+03  0.13498128294E+03  0.00000000000E+00 0.  1.
</event>
<event>
12    1  0.8251070E-002  0.2455823E+03  0.7818608E-02  0.1116315E+00
         21   -1    0    0  503  502  0.00000000000E+00  0.00000000000E+00  0.83702205198E+03  0.83702205198E+03  0.00000000000E+00 0.  1.
         21   -1    0    0  501  503 -0.00000000000E+00 -0.00000000000E+00 -0.91993636341E+02  0.91993636341E+02  0.00000000000E+00 0.  1.
          6    2    1    2  501    0  0.15346430095E+03 -0.83256330203E+02  0.15375418990E+03  0.28876897418E+03  0.17106800213E+03 0.  0.
         24    2    3    3    0    0  0.72884809246E+02  0.64445426613E+01  0.24602377973E+02  0.11201609132E+03  0.81170192583E+02 0.  0.
         -6    2    1    2    0  502 -0.15346430095E+03  0.83256330203E+02  0.59127422574E+03  0.64024671414E+03  0.17270708369E+03 0.  0.
        -24    2    5    5    0    0 -0.14853538743E+02  0.40725869473E+02  0.13282992796E+03  0.15939845569E+03  0.76712801125E+02 0.  0.
          5    1    3    3  501    0  0.80579491703E+02 -0.89700872864E+02  0.12915181193E+03  0.17675288286E+03  0.47000000000E+01 0. -1.
        -11    1    4    4    0    0  0.44911379754E+02 -0.36606196723E+02  0.13129722149E+02  0.59409050435E+02  0.00000000000E+00 0.  1.
         12    1    4    4    0    0  0.27973429493E+02  0.43050739384E+02  0.11472655824E+02  0.52607040886E+02  0.00000000000E+00 0. -1.
         -5    1    5    5    0  502 -0.13861076221E+03  0.42530460730E+02  0.45844429778E+03  0.48084825845E+03  0.47000000000E+01 0.  1.
         13    1    6    6    0    0 -0.93656112074E+01  0.14979349247E+02 -0.55650459546E+01  0.18522022396E+02  0.00000000000E+00 0. -1.
        -14    1    6    6    0    0 -0.54879275360E+01  0.25746520226E+02  0.13839497391E+03  0.14087643329E+03  0.00000000000E+00 0.  1.
</event>
<event>
12    1  0.8251070E-002  0.2073431E+03  0.7818608E-02  0.1143839E+00
         21   -1    0    0  503  502  0.00000000000E+00  0.00000000000E+00  0.50791032168E+02  0.50791032168E+02  0.00000000000E+00 0. -1.
         21   -1    0    0  501  503 -0.00000000000E+00 -0.00000000000E+00 -0.10270737202E+04  0.10270737202E+04  0.00000000000E+00 0. -1.
          6    2    1    2  501    0 -0.11095258685E+03  0.34585087154E+02 -0.71679715860E+03  0.74618316020E+03  0.17171062057E+03 0.  0.
         24    2    3    3    0    0 -0.72546000410E+01 -0.27486385897E+02 -0.33857784703E+03  0.34909616989E+03  0.80156389014E+02 0.  0.
         -6    2    1    2    0  502  0.11095258685E+03 -0.34585087154E+02 -0.25948552940E+03  0.33168159213E+03  0.17080203104E+03 0.  0.
        -24    2    5    5    0    0  0.12765892430E+03  0.13419933088E+02 -0.17880944192E+03  0.23621272406E+03  0.85713119940E+02 0.  0.
          5    1    3    3  501    0 -0.10369798681E+03  0.62071473051E+02 -0.37821931157E+03  0.39708699031E+03  0.47000000000E+01 0. -1.
        -13    1    4    4    0    0 -0.37125523600E+02 -0.14620723983E+02 -0.90633431721E+02  0.99027718432E+02  0.00000000000E+00 0.  1.
         14    1    4    4    0    0  0.29870923559E+02 -0.12865661914E+02 -0.24794441531E+03  0.25006845146E+03  0.00000000000E+00 0. -1.
         -5    1    5    5    0  502 -0.16706337456E+02 -0.48005020242E+02 -0.80676087482E+02  0.95468868073E+02  0.47000000000E+01 0.  1.
         13    1    6    6    0    0  0.28531842167E+02 -0.32370259346E+02 -0.68807532841E+02  0.81218078550E+02  0.00000000000E+00 0. -1.
        -14    1    6    6    0    0  0.99127082135E+02  0.45790192435E+02 -0.11000190908E+03  0.15499464551E+03  0.00000000000E+00 0.  1.
</event>
<event>
12    1  0.8251070E-002  0.1920065E+03  0.7818608E-02  0.1157080E+00
         21   -1    0    0  503  502  0.00000000000E+00  0.00000000000E+00  0.71289896330E+02  0.71289896330E+02  0.00000000000E+00 0. -1.
         21   -1    0    0  501  503 -0.00000000000E+00 -0.00000000000E+00 -0.81493933917E+03  0.81493933917E+03  0.00000000000E+00 0. -1.
          6    2    1    2  501    0 -0.21312114582E+02  0.77826123218E+02 -0.64079036060E+03  0.66840712376E+03  0.17217632000E+03 0.  0.
         24    2    3    3    0    0 -0.51715424532E+02  0.20403402870E+02 -0.53763629367E+03  0.54640474021E+03  0.80091022389E+02 0.  0.
         -6    2    1    2    0  502  0.21312114582E+02 -0.77826123218E+02 -0.10285908224E+03  0.21782211175E+03  0.17422792509E+03 0.  0.
        -24    2    5    5    0    0  0.13417167566E+02 -0.11829707787E+03 -0.55650543975E+02  0.15496541406E+03  0.82116243771E+02 0.  0.
          5    1    3    3  501    0  0.30403309950E+02  0.57422720347E+02 -0.10315406693E+03  0.12200238355E+03  0.47000000000E+01 0. -1.
        -13    1    4    4    0    0 -0.47616421484E+02 -0.62689473914E+01 -0.14305616480E+03  0.15090291443E+03  0.00000000000E+00 0.  1.
         14    1    4    4    0    0 -0.40990030481E+01  0.26672350262E+02 -0.39458012886E+03  0.39550182577E+03  0.00000000000E+00 0. -1.
         -5    1    5    5    0  502  0.78949470165E+01  0.40470954652E+02 -0.47208538268E+02  0.62856697688E+02  0.47000000000E+01 0.  1.
         13    1    6    6    0    0 -0.11052167175E+02  0.29909301721E+01  0.97268072721E+01  0.15023542933E+02  0.00000000000E+00 0. -1.
        -14    1    6    6    0    0  0.24469334741E+02 -0.12128800804E+03 -0.65377351247E+02  0.13994187112E+03  0.00000000000E+00 0.  1.
</event>
<event>
12    1  0.8251070E-002  0.1884029E+03  0.7818608E-02  0.1160408E+00
         21   -1    0    0  501  502  0.00000000000E+00  0.00000000000E+00  0.27296111048E+03  0.27296111048E+03  0.00000000000E+00 0.  1.
         21   -1    0    0  502  503 -0.00000000000E+00 -0.00000000000E+00 -0.21497062904E+03  0.21497062904E+03  0.00000000000E+00 0.  1.
         -6    2    1    2    0  503  0.45573786431E+02  0.68381747881E+02 -0.12559265381E+03  0.22642695865E+03  0.16953648415E+03 0.  0.
        -24    2    3    3    0    0  0.21877797734E+02  0.10550690718E+03 -0.12159071013E+03  0.18195356338E+03  0.81929560839E+02 0.  0.
          6    2    1    2  501    0 -0.45573786431E+02 -0.68381747881E+02  0.18358313526E+03  0.26150478088E+03  0.16711956623E+03 0.  0.
         24    2    5    5    0    0  0.71645908828E+00 -0.78019504098E+02  0.18328585343E+03  0.21398792543E+03  0.78163750101E+02 0.  0.
          5    1    5    5  501    0 -0.46290245519E+02  0.96377562173E+01  0.29728183263E+00  0.47516855447E+02  0.47000000000E+01 0. -1.
        -11    1    6    6    0    0  0.24032079890E+02  0.20134083176E+00  0.72511308059E+02  0.76390255913E+02  0.00000000000E+00 0.  1.
         12    1    6    6    0    0 -0.23315620802E+02 -0.78220844930E+02  0.11077454537E+03  0.13759766952E+03  0.00000000000E+00 0. -1.
         -5    1    3    3    0  503  0.23695988696E+02 -0.37125159299E+02 -0.40019436802E+01  0.44473395266E+02  0.47000000000E+01 0.  1.
         13    1    4    4    0    0  0.29518310823E+02  0.47107967098E+01 -0.49390196596E+02  0.57731393533E+02  0.00000000000E+00 0. -1.
        -14    1    4    4    0    0 -0.76405130890E+01  0.10079611047E+03 -0.72200513539E+02  0.12422216985E+03  0.00000000000E+00 0.  1.
</event>
<event>
12    1  0.8251070E-002  0.1853364E+03  0.7818608E-02  0.1165023E+00
         21   -1    0    0  503  502  0.00000000000E+00  0.00000000000E+00  0.60346342193E+02  0.60346342193E+02  0.00000000000E+00 0.  1.
         21   -1    0    0  501  503 -0.00000000000E+00 -0.00000000000E+00 -0.54799047574E+03  0.54799047574E+03  0.00000000000E+00 0. -1.
          6    2    1    2  501    0  0.29754622029E+02  0.28592914144E+02 -0.27355260380E+03  0.32516767042E+03  0.17088035163E+03 0.  0.
         24    2    3    3    0    0  0.35712923890E+02 -0.29695634563E+02 -0.80739294378E+02  0.12359356851E+03  0.81236031885E+02 0.  0.
         -6    2    1    2    0  502 -0.29754622029E+02 -0.28592914144E+02 -0.21409152975E+03  0.28316914751E+03  0.18068395258E+03 0.  0.
        -24    2    5    5    0    0 -0.41162000593E+02 -0.71293216927E+02 -0.72974972551E+02  0.13521842308E+03  0.78623420487E+02 0.  0.
          5    1    3    3  501    0 -0.59583018610E+01  0.58288548707E+02 -0.19281330942E+03  0.20157410191E+03  0.47000000000E+01 0. -1.
        -13    1    4    4    0    0 -0.54350487297E+01  0.23542112775E+02 -0.10556536385E+02  0.26366859674E+02  0.00000000000E+00 0.  1.
         14    1    4    4    0    0  0.41147972620E+02 -0.53237747338E+02 -0.70182757993E+02  0.97226708840E+02  0.00000000000E+00 0. -1.
         -5    1    5    5    0  502  0.11407378564E+02  0.42700302783E+02 -0.14111655720E+03  0.14795072443E+03  0.47000000000E+01 0.  1.
         13    1    6    6    0    0 -0.37912662301E+02 -0.16315501189E+02 -0.68486354501E+02  0.79962155390E+02  0.00000000000E+00 0. -1.
        -14    1    6    6    0    0 -0.32493382914E+01 -0.54977715738E+02 -0.44886180501E+01  0.55256267690E+02  0.00000000000E+00 0.  1.
</event>
<event>
12    1  0.8251070E-002  0.1977866E+03  0.7818608E-02  0.1151712E+00
         21   -1    0    0  501  502  0.00000000000E+00  0.00000000000E+00  0.35213899778E+02  0.35213899778E+02  0.00000000000E+00 0. -1.
         21   -1    0    0  502  503 -0.00000000000E+00 -0.00000000000E+00 -0.11193562437E+04  0.11193562437E+04  0.00000000000E+00 0. -1.
         -6    2    1    2    0  503 -0.52787212102E+02  0.81110203111E+02 -0.59834677909E+03  0.63005428699E+03  0.17200052818E+03 0.  0.
        -24    2    3    3    0    0  0.36011194463E+02  0.22844948308E+02 -0.24875257637E+03  0.26465287279E+03  0.79653003920E+02 0.  0.
          6    2    1    2  501    0  0.52787212102E+02 -0.81110203111E+02 -0.48579556488E+03  0.52451585653E+03  0.17249405234E+03 0.  0.
         24    2    5    5    0    0  0.10999044750E+01 -0.97231075005E+02 -0.22317315098E+03  0.25632920034E+03  0.80270242876E+02 0.  0.
          5    1    5    5  501    0  0.51687307627E+02  0.16120871894E+02 -0.26262241390E+03  0.26818665620E+03  0.47000000000E+01 0. -1.
        -11    1    6    6    0    0 -0.34815349617E+02 -0.54010532171E+02 -0.15621062036E+03  0.16891123133E+03  0.00000000000E+00 0.  1.
         12    1    6    6    0    0  0.35915254092E+02 -0.43220542834E+02 -0.66962530614E+02  0.87417969009E+02  0.00000000000E+00 0. -1.
         -5    1    3    3    0  503 -0.88798406565E+02  0.58265254803E+02 -0.34959420272E+03  0.36540141421E+03  0.47000000000E+01 0.  1.
         13    1    4    4    0    0  0.23241004353E+01  0.38512644711E+02 -0.53876341308E+02  0.66266774467E+02  0.00000000000E+00 0. -1.
        -14    1    4    4    0    0  0.33687094028E+02 -0.15667696403E+02 -0.19487623506E+03  0.19838609832E+03  0.00000000000E+00 0.  1.
</event>
<event>
12    1  0.8251070E-002  0.2156493E+03  0.7818608E-02  0.1137337E+00
         21   -1    0    0  501  502  0.00000000000E+00  0.00000000000E+00  0.82706500285E+02  0.82706500285E+02  0.00000000000E+00 0.  1.
         21   -1    0    0  502  503 -0.00000000000E+00 -0.00000000000E+00 -0.68160806219E+03  0.68160806219E+03  0.00000000000E+00 0. -1.
         -6    2    1    2    0  503 -0.90436402364E+02 -0.92541687436E+02 -0.46036876982E+03  0.50800229886E+03  0.17141827392E+03 0.  0.
        -24    2    3    3    0    0 -0.18558406317E+02 -0.10977266779E+03 -0.25365431235E+03  0.28842017316E+03  0.80319568433E+02 0.  0.
          6    2    1    2  501    0  0.90436402364E+02  0.92541687436E+02 -0.13853279209E+03  0.25631226362E+03  0.17251647809E+03 0.  0.
         24    2    5    5    0    0  0.76618642054E+02  0.13273205818E+03 -0.10596269805E+03  0.20256193873E+03  0.79467163445E+02 0.  0.
          5    1    5    5  501    0  0.13817760310E+02 -0.40190370740E+02 -0.32570094040E+02  0.53750324892E+02  0.47000000000E+01 0. -1.
        -11    1    6    6    0    0  0.62070169315E+02  0.90531361363E+02 -0.11281213016E+03  0.15740142953E+03  0.00000000000E+00 0.  1.
         12    1    6    6    0    0  0.14548472739E+02  0.42200696813E+02  0.68494321076E+01  0.45160509195E+02  0.00000000000E+00 0. -1.
         -5    1    3    3    0  503 -0.71877996047E+02  0.17230980350E+02 -0.20671445747E+03  0.21958212570E+03  0.47000000000E+01 0.  1.
         11    1    4    4    0    0 -0.13752075283E+02 -0.70415556354E+02 -0.23283254069E+03  0.24363592131E+03  0.00000000000E+00 0. -1.
        -12    1    4    4    0    0 -0.48063310347E+01 -0.39357111431E+02 -0.20821771665E+02  0.44784251847E+02  0.00000000000E+00 0.  1.
</event>
<event>
12    1  0.8251070E-002  0.2133472E+03  0.7818608E-02  0.1138956E+00
         21   -1    0    0  503  502  0.00000000000E+00  0.00000000000E+00  0.46405018712E+02  0.46405018712E+02  0.00000000000E+00 0.  1.
         21   -1    0    0  501  503 -0.00000000000E+00 -0.00000000000E+00 -0.10002667425E+04  0.10002667425E+04  0.00000000000E+00 0.  1.
          6    2    1    2  501    0  0.10977977596E+03 -0.62119376299E+02 -0.55033051126E+03  0.59021316493E+03  0.17198108126E+03 0.  0.
         24    2    3    3    0    0  0.64596633347E+02  0.25930240384E+02 -0.36125575039E+03  0.37675214607E+03  0.81187190944E+02 0.  0.
         -6    2    1    2    0  502 -0.10977977596E+03  0.62119376299E+02 -0.40353121251E+03  0.45645859626E+03  0.17206566918E+03 0.  0.
        -24    2    5    5    0    0 -0.21756328249E+01  0.22084719698E+02 -0.25939625687E+03  0.27212628551E+03  0.79207505738E+02 0.  0.
          5    1    3    3  501    0  0.45183142616E+02 -0.88049616682E+02 -0.18907476087E+03  0.21346101886E+03  0.47000000000E+01 0. -1.
        -11    1    4    4    0    0  0.84066012104E+02  0.18347538088E+02 -0.28962393508E+03  0.30213531789E+03  0.00000000000E+00 0.  1.
         12    1    4    4    0    0 -0.19469378757E+02  0.75827022957E+01 -0.71631815305E+02  0.74616828177E+02  0.00000000000E+00 0. -1.
         -5    1    5    5    0  502 -0.10760414314E+03  0.40034656600E+02 -0.14413495564E+03  0.18433231075E+03  0.47000000000E+01 0.  1.
         13    1    6    6    0    0  0.28101401320E+02 -0.19626474004E+00 -0.36410462692E+02  0.45994011235E+02  0.00000000000E+00 0. -1.
        -14    1    6    6    0    0 -0.30277034145E+02  0.22280984438E+02 -0.22298579418E+03  0.22613227428E+03  0.00000000000E+00 0.  1.
</event>
<event>
12    1  0.8251070E-002  0.2709639E+03  0.7818608E-02  0.1100825E+00
         21   -1    0    0  501  502  0.00000000000E+00  0.00000000000E+00  0.12688203363E+04  0.12688203363E+04  0.00000000000E+00 0. -1.
         21   -1    0    0  502  503 -0.00000000000E+00 -0.00000000000E+00 -0.13335505538E+03  0.13335505538E+03  0.00000000000E+00 0.  1.
         -6    2    1    2    0  503 -0.16608712101E+03  0.12501946302E+03  0.39442606618E+02  0.27315496217E+03  0.17275160271E+03 0.  0.
        -24    2    3    3    0    0 -0.33089946351E+02  0.85665947480E+02  0.53488754071E+02  0.13366900620E+03  0.81072543435E+02 0.  0.
          6    2    1    2  501    0  0.16608712101E+03 -0.12501946302E+03  0.10960226743E+04  0.11290204295E+04  0.17380054594E+03 0.  0.
         24    2    5    5    0    0  0.12275496858E+03 -0.12524041023E+02  0.51106014220E+03  0.53174649791E+03  0.79663261177E+02 0.  0.
          5    1    5    5  501    0  0.43332152430E+02 -0.11249542200E+03  0.58496253211E+03  0.59727393161E+03  0.47000000000E+01 0. -1.
        -13    1    6    6    0    0  0.61976903965E+02  0.22464721392E+02  0.14862858093E+03  0.16259229810E+03  0.00000000000E+00 0.  1.
         14    1    6    6    0    0  0.60778064618E+02 -0.34988762416E+02  0.36243156127E+03  0.36915419982E+03  0.00000000000E+00 0. -1.
         -5    1    3    3    0  503 -0.13299717466E+03  0.39353515542E+02 -0.14046147454E+02  0.13948595597E+03  0.47000000000E+01 0.  1.
         11    1    4    4    0    0 -0.28962079835E+02  0.99010937806E+02  0.58780707546E+02  0.11873137518E+03  0.00000000000E+00 0. -1.
        -12    1    4    4    0    0 -0.41278665159E+01 -0.13344990326E+02 -0.52919534745E+01  0.14937631015E+02  0.00000000000E+00 0.  1.
</event>
<event>
12    1  0.8251070E-002  0.1773537E+03  0.7818608E-02  0.1170733E+00
         21   -1    0    0  501  502  0.00000000000E+00  0.00000000000E+00  0.98137658406E+02  0.98137658406E+02  0.00000000000E+00 0. -1.
         21   -1    0    0  502  503 -0.00000000000E+00 -0.00000000000E+00 -0.52454438767E+03  0.52454438767E+03  0.00000000000E+00 0. -1.
         -6    2    1    2    0  503  0.24687217683E+02 -0.29622575776E+02 -0.40907181368E+03  0.44586329447E+03  0.17311086879E+03 0.  0.
        -24    2    3    3    0    0  0.73308372140E+02 -0.26571712264E+02 -0.35798873536E+03  0.37511800968E+03  0.80482378344E+02 0.  0.
          6    2    1    2  501    0 -0.24687217683E+02  0.29622575776E+02 -0.17334915586E+02  0.17681875161E+03  0.17168988296E+03 0.  0.
         24    2    5    5    0    0  0.38880105300E+01 -0.60978768608E+02 -0.20079383199E+02  0.81662199685E+02  0.50319045907E+02 0.  0.
          5    1    5    5  501    0 -0.28575228213E+02  0.90601344384E+02  0.27444676130E+01  0.95156551924E+02  0.47000000000E+01 0. -1.
        -13    1    6    6    0    0 -0.17384647431E+02 -0.36803350993E+01 -0.73546894674E+01  0.19231804125E+02  0.00000000000E+00 0.  1.
         14    1    6    6    0    0  0.21272657961E+02 -0.57298433509E+02 -0.12724693731E+02  0.62430395560E+02  0.00000000000E+00 0. -1.
         -5    1    3    3    0  503 -0.48621154457E+02 -0.30508635121E+01 -0.51083078315E+02  0.70745284783E+02  0.47000000000E+01 0.  1.
         13    1    4    4    0    0  0.15981256557E+02 -0.12924838485E+01 -0.24814273047E+03  0.24866018129E+03  0.00000000000E+00 0. -1.
        -14    1    4    4    0    0  0.57327115582E+02 -0.25279228415E+02 -0.10984600489E+03  0.12645782839E+03  0.00000000000E+00 0.  1.
</event>
<event>
12    1  0.8251070E-002  0.1932615E+03  0.7818608E-02  0.1155724E+00
         21   -1    0    0  501  502  0.00000000000E+00  0.00000000000E+00  0.59668339874E+02  0.59668339874E+02  0.00000000000E+00 0. -1.
         21   -1    0    0  502  503 -0.00000000000E+00 -0.00000000000E+00 -0.10714378618E+04  0.10714378618E+04  0.00000000000E+00 0. -1.
         -6    2    1    2    0  503  0.86381384743E+02  0.10736109155E+02 -0.87217443575E+03  0.89332986390E+03  0.17254851983E+03 0.  0.
        -24    2    3    3    0    0  0.11613216862E+03 -0.18573519319E+02 -0.76656867281E+03  0.77966883000E+03  0.80151719401E+02 0.  0.
          6    2    1    2  501    0 -0.86381384743E+02 -0.10736109155E+02 -0.13959508618E+03  0.23777633778E+03  0.17167932622E+03 0.  0.
         24    2    5    5    0    0 -0.79566321598E+02 -0.63823394745E+02 -0.64812041742E+02  0.14569323014E+03  0.81373775283E+02 0.  0.
          5    1    5    5  501    0 -0.68150631449E+01  0.53087285590E+02 -0.74783044442E+02  0.92083107642E+02  0.47000000000E+01 0. -1.
        -11    1    6    6    0    0  0.10451323964E+02  0.86492996355E+01 -0.81489331813E+00  0.13590607341E+02  0.00000000000E+00 0.  1.
         12    1    6    6    0    0 -0.90017645562E+02 -0.72472694381E+02 -0.63997148424E+02  0.13210262280E+03  0.00000000000E+00 0. -1.
         -5    1    3    3    0  503 -0.29750783881E+02  0.29309628474E+02 -0.10560576294E+03  0.11366103391E+03  0.47000000000E+01 0.  1.
         11    1    4    4    0    0  0.10270542809E+03 -0.38090095855E+02 -0.49036192968E+03  0.50244808930E+03  0.00000000000E+00 0. -1.
        -12    1    4    4    0    0  0.13426740531E+02  0.19516576536E+02 -0.27620674313E+03  0.27722074069E+03  0.00000000000E+00 0.  1.
</event>
<event>
12    1  0.8251070E-002  0.2145956E+03  0.7818608E-02  0.1139440E+00
         21   -1    0    0  501  502  0.00000000000E+00  0.00000000000E+00  0.35334651710E+02  0.35334651710E+02  0.00000000000E+00 0. -1.
         21   -1    0    0  502  503 -0.00000000000E+00 -0.00000000000E+00 -0.14162045838E+04  0.14162045838E+04  0.00000000000E+00 0.  1.
         -6    2    1    2    0  503 -0.10303808616E+03 -0.76521094775E+02 -0.94349768582E+03  0.96759450952E+03  0.17198525102E+03 0.  0.
        -24    2    3    3    0    0 -0.32677827019E+02 -0.44760097935E+02 -0.78828533713E+03  0.79418087058E+03  0.79108632346E+02 0.  0.
          6    2    1    2  501    0  0.10303808616E+03  0.76521094775E+02 -0.43737224630E+03  0.48394472601E+03  0.16259056202E+03 0.  0.
         24    2    5    5    0    0  0.22056622795E+02 -0.18928524723E+01 -0.10335052187E+03  0.13138360093E+03  0.78040007191E+02 0.  0.
          5    1    5    5  501    0  0.80981463365E+02  0.78413947248E+02 -0.33402172443E+03  0.35256112508E+03  0.47000000000E+01 0. -1.
        -13    1    6    6    0    0 -0.24171368305E+02  0.17558896050E+02 -0.28541369262E+02  0.41318030393E+02  0.00000000000E+00 0.  1.
         14    1    6    6    0    0  0.46227991101E+02 -0.19451748523E+02 -0.74809152610E+02  0.90065570536E+02  0.00000000000E+00 0. -1.
         -5    1    3    3    0  503 -0.70360259141E+02 -0.31760996841E+02 -0.15521234869E+03  0.17341363894E+03  0.47000000000E+01 0.  1.
         13    1    4    4    0    0 -0.54507616856E+02 -0.98865795037E+01 -0.43966816224E+03  0.44314435305E+03  0.00000000000E+00 0. -1.
        -14    1    4    4    0    0  0.21829789837E+02 -0.34873518431E+02 -0.34861717489E+03  0.35103651753E+03  0.00000000000E+00 0.  1.
</event>
<event>
12    1  0.8251070E-002  0.2603782E+03  0.7818608E-02  0.1106990E+00
         21   -1    0    0  503  502  0.00000000000E+00  0.00000000000E+00  0.21669395678E+03  0.21669395678E+03  0.00000000000E+00 0. -1.
         21   -1    0    0  501  503 -0.00000000000E+00 -0.00000000000E+00 -0.76425701969E+03  0.76425701969E+03  0.00000000000E+00 0. -1.
          6    2    1    2  501    0  0.31500189363E+01  0.19546811164E+03 -0.65086219973E+03  0.70083041473E+03  0.17124240679E+03 0.  0.
         24    2    3    3    0    0  0.53352776615E+01  0.54674218099E+02 -0.42273531398E+03  0.43270420971E+03  0.74229725203E+02 0.  0.
         -6    2    1    2    0  502 -0.31500189363E+01 -0.19546811164E+03  0.10329913682E+03  0.28012056175E+03  0.17198579057E+03 0.  0.
        -24    2    5    5    0    0 -0.96997019135E+01 -0.21886630297E+03  0.10352997136E+03  0.25537148118E+03  0.80620069713E+02 0.  0.
          5    1    3    3  501    0 -0.21852587252E+01  0.14079389355E+03 -0.22812688575E+03  0.26812620502E+03  0.47000000000E+01 0. -1.
        -11    1    4    4    0    0 -0.25705139218E+02  0.35686681812E+02 -0.33269427085E+03  0.33558869364E+03  0.00000000000E+00 0.  1.
         12    1    4    4    0    0  0.31040416880E+02  0.18987536287E+02 -0.90041043130E+02  0.97115516073E+02  0.00000000000E+00 0. -1.
         -5    1    5    5    0  502  0.65496829772E+01  0.23398191321E+02 -0.23083453738E+00  0.24749080565E+02  0.47000000000E+01 0.  1.
         13    1    6    6    0    0  0.26929465714E+02 -0.31512682215E+02  0.93053171827E+01  0.42483340169E+02  0.00000000000E+00 0. -1.
        -14    1    6    6    0    0 -0.36629167628E+02 -0.18735362075E+03  0.94224654176E+02  0.21288814101E+03  0.00000000000E+00 0.  1.
</event>
<event>
12    1  0.8251070E-002  0.2193437E+03  0.7818608E-02  0.1134577E+00
         21   -1    0    0  503  502  0.00000000000E+00  0.00000000000E+00  0.21111419934E+04  0.21111419934E+04  0.00000000000E+00 0.  1.
         21   -1    0    0  501  503 -0.00000000000E+00 -0.00000000000E+00 -0.23221828442E+02  0.23221828442E+02  0.00000000000E+00 0. -1.
          6    2    1    2  501    0  0.81165319196E+02  0.10612861855E+03  0.88297038318E+03  0.90980677681E+03  0.17395568639E+03 0.  0.
         24    2    3    3    0    0 -0.15415924695E+02  0.91010622751E+01  0.31444916649E+03  0.32501557716E+03  0.80226971927E+02 0.  0.
         -6    2    1    2    0  502 -0.81165319196E+02 -0.10612861855E+03  0.12049497818E+04  0.12245570451E+04  0.17258298652E+03 0.  0.
        -24    2    5    5    0    0 -0.98780286181E+02 -0.34576029723E+02  0.56754680872E+03  0.58289147787E+03  0.81853821625E+02 0.  0.
          5    1    3    3  501    0  0.96581243891E+02  0.97027556270E+02  0.56852121670E+03  0.58479119964E+03  0.47000000000E+01 0. -1.
        -13    1    4    4    0    0  0.97601992753E+01  0.29704759549E+01  0.28731637887E+03  0.28749745526E+03  0.00000000000E+00 0.  1.
         14    1    4    4    0    0 -0.25176123970E+02  0.61305863201E+01  0.27132787621E+02  0.37518121900E+02  0.00000000000E+00 0. -1.
         -5    1    5    5    0  502  0.17614966985E+02 -0.71552588822E+02  0.63740297309E+03  0.64166556720E+03  0.47000000000E+01 0.  1.
         13    1    6    6    0    0 -0.10559356488E+02 -0.36135184297E+02  0.26762880130E+03  0.27026362470E+03  0.00000000000E+00 0. -1.
        -14    1    6    6    0    0 -0.88220929694E+02  0.15591545733E+01  0.29991800742E+03  0.31262785316E+03  0.00000000000E+00 0.  1.
</event>
<event>
12    1  0.8251070E-002  0.2023456E+03  0.7818608E-02  0.1147777E+00
         21   -1    0    0  501  502  0.00000000000E+00  0.00000000000E+00  0.23905967147E+03  0.23905967147E+03  0.00000000000E+00 0. -1.
         21   -1    0    0  502  503 -0.00000000000E+00 -0.00000000000E+00 -0.17463092921E+03  0.17463092921E+03  0.00000000000E+00 0. -1.
         -6    2    1    2    0  503  0.97750867874E+02 -0.43564330312E+02  0.34800111686E+01  0.20237556021E+03  0.17172848874E+03 0.  0.
        -24    2    3    3    0    0  0.11382080052E+03  0.14551486175E+02  0.14541606336E+02  0.14089271911E+03  0.80451100705E+02 0.  0.
          6    2    1    2  501    0 -0.97750867874E+02  0.43564330312E+02  0.60948731090E+02  0.21131504047E+03  0.17171550735E+03 0.  0.
         24    2    5    5    0    0 -0.10804947341E+03  0.55264097003E+02  0.95194665525E+02  0.17339644554E+03  0.79218014734E+02 0.  0.
          5    1    5    5  501    0  0.10298605538E+02 -0.11699766691E+02 -0.34245934435E+02  0.37918594937E+02  0.47000000000E+01 0. -1.
        -13    1    6    6    0    0 -0.38976876758E+02  0.60094542103E+02  0.68732430884E+02  0.99270831404E+02  0.00000000000E+00 0.  1.
         14    1    6    6    0    0 -0.69072596655E+02 -0.48304451000E+01  0.26462234641E+02  0.74125614134E+02  0.00000000000E+00 0. -1.
         -5    1    3    3    0  503 -0.16069932642E+02 -0.58115816488E+02 -0.11061595167E+02  0.61482841092E+02  0.47000000000E+01 0.  1.
         13    1    4    4    0    0 -0.96101497629E+00  0.18445065302E+02  0.18276570023E+02  0.25984168172E+02  0.00000000000E+00 0. -1.
        -14    1    4    4    0    0  0.11478181549E+03 -0.38935791263E+01 -0.37349636869E+01  0.11490855094E+03  0.00000000000E+00 0.  1.
</event>
<event>
12    1  0.8251070E-002  0.1880597E+03  0.7818608E-02  0.1160295E+00
         21   -1    0    0  501  502  0.00000000000E+00  0.00000000000E+00  0.18985803950E+03  0.18985803950E+03  0.00000000000E+00 0. -1.
         21   -1    0    0  502  503 -0.00000000000E+00 -0.00000000000E+00 -0.22002865218E+03  0.22002865218E+03  0.00000000000E+00 0.  1.
         -6    2    1    2    0  503  0.72606846884E+02  0.14372561448E+02 -0.95709071314E+02  0.21073412291E+03  0.17254077631E+03 0.  0.
        -24    2    3    3    0    0 -0.31063956030E+01  0.30212621639E+02  0.22979482955E+01  0.85790661748E+02  0.80201651335E+02 0.  0.
          6    2    1    2  501    0 -0.72606846884E+02 -0.14372561448E+02  0.65538458628E+02  0.19915256877E+03  0.17288184216E+03 0.  0.
         24    2    5    5    0    0  0.93134470780E+01  0.30604865490E+02  0.50220320444E+01  0.87715450251E+02  0.81519208280E+02 0.  0.
          5    1    5    5  501    0 -0.81920293962E+02 -0.44977426939E+02  0.60516426583E+02  0.11143711852E+03  0.47000000000E+01 0. -1.
        -11    1    6    6    0    0 -0.10007822352E+01  0.21746947599E+01 -0.36371736326E+02  0.36450432998E+02  0.00000000000E+00 0.  1.
         12    1    6    6    0    0  0.10314229313E+02  0.28430170730E+02  0.41393768370E+02  0.51265017253E+02  0.00000000000E+00 0. -1.
         -5    1    3    3    0  503  0.75713242487E+02 -0.15840060191E+02 -0.98007019609E+02  0.12494346116E+03  0.47000000000E+01 0.  1.
         13    1    4    4    0    0 -0.88171156358E+01  0.56346663156E+02 -0.70217844238E+01  0.57462974457E+02  0.00000000000E+00 0. -1.
        -14    1    4    4    0    0  0.57107200328E+01 -0.26134041517E+02  0.93197327193E+01  0.28327687291E+02  0.00000000000E+00 0.  1.
</event>
<event>
12    1  0.8251070E-002  0.2022239E+03  0.7818608E-02  0.1148373E+00
         21   -1    0    0  503  502  0.00000000000E+00  0.00000000000E+00  0.51210859477E+02  0.51210859477E+02  0.00000000000E+00 0.  1.
         21   -1    0    0  501  503 -0.00000000000E+00 -0.00000000000E+00 -0.17394407281E+04  0.17394407281E+04  0.00000000000E+00 0. -1.
          6    2    1    2  501    0  0.54603942818E+02 -0.89870127946E+02 -0.15081248146E+04  0.15216224787E+04  0.17273181768E+03 0.  0.
         24    2    3    3    0    0  0.83272769874E+02 -0.57021881745E+02 -0.13841818259E+04  0.13901505677E+04  0.79833731439E+02 0.  0.
         -6    2    1    2    0  502 -0.54603942818E+02  0.89870127946E+02 -0.18010505397E+03  0.26902910881E+03  0.16994293294E+03 0.  0.
        -24    2    5    5    0    0 -0.66478569294E+02  0.51106687351E+02 -0.40983068426E+02  0.12404418566E+03  0.81707125947E+02 0.  0.
          5    1    3    3  501    0 -0.28668827057E+02 -0.32848246201E+02 -0.12394298873E+03  0.13147191099E+03  0.47000000000E+01 0. -1.
        -11    1    4    4    0    0 -0.40555006840E+01 -0.15700503505E+02 -0.51989790725E+02  0.54459996656E+02  0.00000000000E+00 0.  1.
         12    1    4    4    0    0  0.87328270558E+02 -0.41321378240E+02 -0.13321920351E+04  0.13356905711E+04  0.00000000000E+00 0. -1.
         -5    1    5    5    0  502  0.11874626476E+02  0.38763440595E+02 -0.13912198554E+03  0.14498492316E+03  0.47000000000E+01 0.  1.
         11    1    6    6    0    0 -0.35081372807E+01  0.12754885334E+02 -0.48180525029E+02  0.49963557911E+02  0.00000000000E+00 0. -1.
        -12    1    6    6    0    0 -0.62970432013E+02  0.38351802017E+02  0.71974566023E+01  0.74080627748E+02  0.00000000000E+00 0.  1.
</event>
<event>
12    1  0.8251070E-002  0.1859681E+03  0.7818608E-02  0.1162233E+00
         21   -1    0    0  503  502  0.00000000000E+00  0.00000000000E+00  0.24666000498E+03  0.24666000498E+03  0.00000000000E+00 0. -1.
         21   -1    0    0  501  503 -0.00000000000E+00 -0.00000000000E+00 -0.19476424614E+03  0.19476424614E+03  0.00000000000E+00 0. -1.
          6    2    1    2  501    0 -0.25076778505E+02 -0.67028819961E+02 -0.91175622454E+02  0.20678927923E+03  0.17125158203E+03 0.  0.
         24    2    3    3    0    0  0.57734544534E+01 -0.10402109762E+03 -0.42089322443E+02  0.13785655602E+03  0.79869878218E+02 0.  0.
         -6    2    1    2    0  502  0.25076778505E+02  0.67028819961E+02  0.14307138130E+03  0.23463497190E+03  0.17164627105E+03 0.  0.
        -24    2    5    5    0    0 -0.58927867574E+01  0.10600629153E+03  0.83998567962E+02  0.15723959389E+03  0.79977945009E+02 0.  0.
          5    1    3    3  501    0 -0.30850232958E+02  0.36992277663E+02 -0.49086300011E+02  0.68932723209E+02  0.47000000000E+01 0. -1.
        -13    1    4    4    0    0 -0.14160519621E+02  0.84292851171E+01 -0.10860760678E+01  0.16515227057E+02  0.00000000000E+00 0.  1.
         14    1    4    4    0    0  0.19933974075E+02 -0.11245038274E+03 -0.41003246376E+02  0.12134132896E+03  0.00000000000E+00 0. -1.
         -5    1    5    5    0  502  0.30969565262E+02 -0.38977471565E+02  0.59072813334E+02  0.77395378010E+02  0.47000000000E+01 0.  1.
         13    1    6    6    0    0 -0.26960021028E+02  0.22305691700E+02  0.56856922434E+02  0.66761487736E+02  0.00000000000E+00 0. -1.
        -14    1    6    6    0    0  0.21067234271E+02  0.83700599826E+02  0.27141645528E+02  0.90478106153E+02  0.00000000000E+00 0.  1.
</event>
<event>
12    1  0.8251070E-002  0.2864501E+03  0.7818608E-02  0.1092466E+00
         21   -1    0    0  501  502  0.00000000000E+00  0.00000000000E+00  0.50412502990E+03  0.50412502990E+03  0.00000000000E+00 0.  1.
         21   -1    0    0  502  503 -0.00000000000E+00 -0.00000000000E+00 -0.59119535626E+03  0.59119535626E+03  0.00000000000E+00 0.  1.
         -6    2    1    2    0  503  0.17781703011E+03 -0.14288222241E+03 -0.51028627798E+03  0.58427695512E+03  0.17015654293E+03 0.  0.
        -24    2    3    3    0    0  0.11846145011E+03 -0.14906125139E+03 -0.28863068174E+03  0.35468044246E+03  0.78982111873E+02 0.  0.
          6    2    1    2  501    0 -0.17781703011E+03  0.14288222241E+03  0.42321595162E+03  0.51104343104E+03  0.17326113535E+03 0.  0.
         24    2    5    5    0    0 -0.46783694635E+02  0.11948874927E+03  0.24676181445E+03  0.28996619992E+03  0.81992248067E+02 0.  0.
          5    1    5    5  501    0 -0.13103333548E+03  0.23393473147E+02  0.17645413718E+03  0.22107723112E+03  0.47000000000E+01 0. -1.
        -13    1    6    6    0    0 -0.27576146207E+02  0.76498253373E+02  0.70820320806E+02  0.10783294695E+03  0.00000000000E+00 0.  1.
         14    1    6    6    0    0 -0.19207548428E+02  0.42990495894E+02  0.17594149364E+03  0.18213325297E+03  0.00000000000E+00 0. -1.
         -5    1    3    3    0  503  0.59355580001E+02  0.61790289720E+01 -0.22165559625E+03  0.22959651266E+03  0.47000000000E+01 0.  1.
         13    1    4    4    0    0  0.23119232067E+02 -0.47512953765E+02 -0.29579603233E+02  0.60555202866E+02  0.00000000000E+00 0. -1.
        -14    1    4    4    0    0  0.95342218046E+02 -0.10154829762E+03 -0.25905107850E+03  0.29412523959E+03  0.00000000000E+00 0.  1.
</event>
<event>
12    1  0.8251070E-002  0.1899244E+03  0.7818608E-02  0.1158660E+00
         21   -1    0    0  503  502  0.00000000000E+00  0.00000000000E+00  0.41644254471E+03  0.41644254471E+03  0.00000000000E+00 0. -1.
         21   -1    0    0  501  503 -0.00000000000E+00 -0.00000000000E+00 -0.16663360879E+03  0.16663360879E+03  0.00000000000E+00 0. -1.
          6    2    1    2  501    0  0.21706243986E+02 -0.76686446201E+02 -0.77352694910E+02  0.20507243048E+03  0.17239283707E+03 0.  0.
         24    2    3    3    0    0 -0.54725345988E+02 -0.38337407340E+02 -0.37965991804E+02  0.11080770161E+03  0.79826749318E+02 0.  0.
         -6    2    1    2    0  502 -0.21706243986E+02  0.76686446201E+02  0.32716163083E+03  0.37800372302E+03  0.17175596022E+03 0.  0.
        -24    2    5    5    0    0 -0.20383510005E+02  0.11622673420E+03  0.20639646651E+03  0.25083651454E+03  0.79970709714E+02 0.  0.
          5    1    3    3  501    0  0.76431589974E+02 -0.38349038860E+02 -0.39386703106E+02  0.94264728870E+02  0.47000000000E+01 0. -1.
        -11    1    4    4    0    0 -0.39255006174E+01 -0.59164318549E+01 -0.49025802987E+02  0.49537289788E+02  0.00000000000E+00 0.  1.
         12    1    4    4    0    0 -0.50799845371E+02 -0.32420975486E+02  0.11059811183E+02  0.61270411820E+02  0.00000000000E+00 0. -1.
         -5    1    5    5    0  502 -0.13227339808E+01 -0.39540288003E+02  0.12076516432E+03  0.12716720848E+03  0.47000000000E+01 0.  1.
         13    1    6    6    0    0 -0.17867874031E+02  0.11661956252E+03  0.21314761578E+03  0.24362120063E+03  0.00000000000E+00 0. -1.
        -14    1    6    6    0    0 -0.25156359742E+01 -0.39282831850E+00 -0.67511492617E+01  0.72153139083E+01  0.00000000000E+00 0.  1.
</event>
<event>
12    1  0.8251070E-002  0.2449072E+03  0.7818608E-02  0.1116898E+00
         21   -1    0    0  501  502  0.00000000000E+00  0.00000000000E+00  0.88941789488E+02  0.88941789488E+02  0.00000000000E+00 0.  1.
         21   -1    0    0  502  503 -0.00000000000E+00 -0.00000000000E+00 -0.68484963435E+03  0.68484963435E+03  0.00000000000E+00 0. -1.
         -6    2    1    2    0  503 -0.13274529787E+03  0.11286721876E+03 -0.35602220055E+03  0.43097270536E+03  0.16919025474E+03 0.  0.
        -24    2    3    3    0    0 -0.10549438921E+03  0.14457862820E+03 -0.25639349948E+03  0.32282376366E+03  0.80283933177E+02 0.  0.
          6    2    1    2  501    0  0.13274529787E+03 -0.11286721876E+03 -0.23988564431E+03  0.34281871848E+03  0.17210237714E+03 0.  0.
         24    2    5    5    0    0  0.10162684589E+03 -0.44017791934E+01 -0.10231160813E+03  0.16482485604E+03  0.79700542950E+02 0.  0.
          5    1    5    5  501    0  0.31118451983E+02 -0.10846543957E+03 -0.13757403618E+03  0.17799386244E+03  0.47000000000E+01 0. -1.
        -11    1    6    6    0    0  0.43194081958E+02  0.99057934462E-01  0.40522496082E+01  0.43383859390E+02  0.00000000000E+00 0.  1.
         12    1    6    6    0    0  0.58432763927E+02 -0.45008371279E+01 -0.10636385774E+03  0.12144099665E+03  0.00000000000E+00 0. -1.
         -5    1    3    3    0  503 -0.27250908662E+02 -0.31711409434E+02 -0.99628701077E+02  0.10814894169E+03  0.47000000000E+01 0.  1.
         11    1    4    4    0    0  0.44930316102E+01  0.50575469449E+02 -0.78976463700E+02  0.93890080741E+02  0.00000000000E+00 0. -1.
        -12    1    4    4    0    0 -0.10998742082E+03  0.94003158749E+02 -0.17741703578E+03  0.22893368292E+03  0.00000000000E+00 0.  1.
</event>
<event>
12    1  0.8251070E-002  0.2039565E+03  0.7818608E-02  0.1147217E+00
         21   -1    0    0  503  502  0.00000000000E+00  0.00000000000E+00  0.54577460230E+02  0.54577460230E+02  0.00000000000E+00 0.  1.
         21   -1    0    0  501  503 -0.00000000000E+00 -0.00000000000E+00 -0.11573003562E+04  0.11573003562E+04  0.00000000000E+00 0.  1.
          6    2    1    2  501    0  0.92098559597E+02 -0.59138885972E+02 -0.18787485016E+03  0.27457038512E+03  0.16766748208E+03 0.  0.
         24    2    3    3    0    0 -0.29183776213E+01  0.16911586639E+00 -0.11343589127E+03  0.14000104967E+03  0.82000286306E+02 0.  0.
         -6    2    1    2    0  502 -0.92098559597E+02  0.59138885972E+02 -0.91484804586E+03  0.93730743136E+03  0.17210090460E+03 0.  0.
        -24    2    5    5    0    0 -0.61631528666E+02  0.10465791339E+03 -0.56036862947E+03  0.57859031653E+03  0.77472765084E+02 0.  0.
          5    1    3    3  501    0  0.95016937218E+02 -0.59308001838E+02 -0.74438958898E+02  0.13456933545E+03  0.47000000000E+01 0. -1.
        -11    1    4    4    0    0 -0.13006057325E+01  0.22088690042E+01  0.13145398688E+02  0.13392990115E+02  0.00000000000E+00 0.  1.
         12    1    4    4    0    0 -0.16177718888E+01 -0.20397531378E+01 -0.12658128995E+03  0.12660805956E+03  0.00000000000E+00 0. -1.
         -5    1    5    5    0  502 -0.30467030930E+02 -0.45519027413E+02 -0.35447941639E+03  0.35871711483E+03  0.47000000000E+01 0.  1.
         13    1    6    6    0    0  0.15509271740E+02  0.83836610035E+01 -0.38601423392E+02  0.42436931671E+02  0.00000000000E+00 0. -1.
        -14    1    6    6    0    0 -0.77140800406E+02  0.96274252382E+02 -0.52176720608E+03  0.53615338486E+03  0.00000000000E+00 0.  1.
</event>
<event>
12    1  0.8251070E-002  0.1783728E+03  0.7818608E-02  0.1169444E+00
         21   -1    0    0  501  502  0.00000000000E+00  0.00000000000E+00  0.52031580630E+03  0.52031580630E+03  0.00000000000E+00 0.  1.
         21   -1    0    0  502  503 -0.00000000000E+00 -0.00000000000E+00 -0.25393219029E+03  0.25393219029E+03  0.00000000000E+00 0.  1.
         -6    2    1    2    0  503  0.42321064652E+02  0.21928820936E+02 -0.20420605023E+03  0.27098714590E+03  0.17164491425E+03 0.  0.
        -24    2    3    3    0    0  0.47641266789E+02 -0.26919289228E+02 -0.48086747778E+02  0.10725025630E+03  0.78714317186E+02 0.  0.
          6    2    1    2  501    0 -0.42321064652E+02 -0.21928820936E+02  0.47058966624E+03  0.50326085069E+03  0.17188631176E+03 0.  0.
         24    2    5    5    0    0 -0.44967378650E+02 -0.23044487394E+02  0.48172170478E+03  0.49084070691E+03  0.79471285104E+02 0.  0.
          5    1    5    5  501    0  0.26463139978E+01  0.11156664579E+01 -0.11132038547E+02  0.12420143785E+02  0.47000000000E+01 0. -1.
        -13    1    6    6    0    0 -0.53771177627E+02  0.14134642136E+02  0.26383011468E+03  0.26962465960E+03  0.00000000000E+00 0.  1.
         14    1    6    6    0    0  0.88037989773E+01 -0.37179129530E+02  0.21789159010E+03  0.22121604730E+03  0.00000000000E+00 0. -1.
         -5    1    3    3    0  503 -0.53202021367E+01  0.48848110165E+02 -0.15611930245E+03  0.16373688960E+03  0.47000000000E+01 0.  1.
         13    1    4    4    0    0  0.58128685186E+02  0.86433802966E+01 -0.30585266148E+02  0.66250362789E+02  0.00000000000E+00 0. -1.
        -14    1    4    4    0    0 -0.10487418397E+02 -0.35562669525E+02 -0.17501481630E+02  0.40999893508E+02  0.00000000000E+00 0.  1.
</event>
<event>
12    1  0.8251070E-002  0.2595458E+03  0.7818608E-02  0.1107615E+00
         21   -1    0    0  503  502  0.00000000000E+00  0.00000000000E+00  0.55384310370E+03  0.55384310370E+03  0.00000000000E+00 0. -1.
         21   -1    0    0  501  503 -0.00000000000E+00 -0.00000000000E+00 -0.20166877799E+03  0.20166877799E+03  0.00000000000E+00 0.  1.
          6    2    1    2  501    0 -0.17654528414E+03 -0.79966289497E+02 -0.62537762438E+02  0.26697379556E+03  0.17263021455E+03 0.  0.
         24    2    3    3    0    0 -0.13154778393E+03 -0.11829136828E+03 -0.72988394766E+02  0.20676671619E+03  0.78278361566E+02 0.  0.
         -6    2    1    2    0  502  0.17654528414E+03  0.79966289497E+02  0.41471208815E+03  0.48853808613E+03  0.17064729923E+03 0.  0.
        -24    2    5    5    0    0  0.96753117181E+02  0.16938172634E+00  0.30971779110E+03  0.33432969203E+03  0.80560775041E+02 0.  0.
          5    1    3    3  501    0 -0.44997500214E+02  0.38325078784E+02  0.10450632328E+02  0.60207079363E+02  0.47000000000E+01 0. -1.
        -11    1    4    4    0    0 -0.10887468172E+03 -0.47117714345E+02 -0.48397612193E+02  0.12812534562E+03  0.00000000000E+00 0.  1.
         12    1    4    4    0    0 -0.22673102210E+02 -0.71173653936E+02 -0.24590782573E+02  0.78641370575E+02  0.00000000000E+00 0. -1.
         -5    1    5    5    0  502  0.79792166958E+02  0.79796907770E+02  0.10499429705E+03  0.15420839410E+03  0.47000000000E+01 0.  1.
         11    1    6    6    0    0  0.79657959188E+02  0.30461655646E+02  0.26017217245E+03  0.27379346640E+03  0.00000000000E+00 0. -1.
        -12    1    6    6    0    0  0.17095157993E+02 -0.30292273920E+02  0.49545618646E+02  0.60536225626E+02  0.00000000000E+00 0.  1.
</event>
<event>
12    1  0.8251070E-002  0.1945751E+03  0.7818608E-02  0.1154420E+00
         21   -1    0    0  501  502  0.00000000000E+00  0.00000000000E+00  0.66795107561E+03  0.66795107561E+03  0.00000000000E+00 0.  1.
         21   -1    0    0  502  503 -0.00000000000E+00 -0.00000000000E+00 -0.19605126222E+03  0.19605126222E+03  0.00000000000E+00 0. -1.
         -6    2    1    2    0  503  0.82346878582E+02 -0.36648947764E+02 -0.12830932848E+03  0.23307244650E+03  0.17243934516E+03 0.  0.
        -24    2    3    3    0    0  0.19472496323E+02  0.20225207702E+01 -0.13281225542E+03  0.15897091633E+03  0.85143339994E+02 0.  0.
          6    2    1    2  501    0 -0.82346878582E+02  0.36648947764E+02  0.60020914187E+03  0.63092989133E+03  0.17232921985E+03 0.  0.
         24    2    5    5    0    0  0.69479307839E+01  0.10417713678E+02  0.13271949577E+03  0.15424309706E+03  0.77586506138E+02 0.  0.
          5    1    5    5  501    0 -0.89294809366E+02  0.26231234086E+02  0.46748964610E+03  0.47668679427E+03  0.47000000000E+01 0. -1.
        -11    1    6    6    0    0  0.26130713756E+02  0.20683563584E+02  0.12761584993E+03  0.13189552365E+03  0.00000000000E+00 0.  1.
         12    1    6    6    0    0 -0.19182782973E+02 -0.10265849906E+02  0.51036458349E+01  0.22347573418E+02  0.00000000000E+00 0. -1.
         -5    1    3    3    0  503  0.62874382259E+02 -0.38671468534E+02  0.45029269388E+01  0.74101530174E+02  0.47000000000E+01 0.  1.
         13    1    4    4    0    0  0.28662268646E+02 -0.94615543347E+01 -0.13956135309E+03  0.14278801746E+03  0.00000000000E+00 0. -1.
        -14    1    4    4    0    0 -0.91897723239E+01  0.11484075105E+02  0.67490976701E+01  0.16182898867E+02  0.00000000000E+00 0.  1.
</event>
<event>
12    1  0.8251070E-002  0.1810633E+03  0.7818608E-02  0.1166860E+00
         21   -1    0    0  501  502  0.00000000000E+00  0.00000000000E+00  0.31607350397E+03  0.31607350397E+03  0.00000000000E+00 0. -1.
         21   -1    0    0  502  503 -0.00000000000E+00 -0.00000000000E+00 -0.11694942960E+03  0.11694942960E+03  0.00000000000E+00 0. -1.
         -6    2    1    2    0  503 -0.17536496379E+01  0.57419786581E+02  0.26294402567E+02  0.18296262601E+03  0.17170853133E+03 0.  0.
        -24    2    3    3    0    0  0.40777037390E+02 -0.10818739244E+02 -0.13540194791E+02  0.93105846115E+02  0.81887421553E+02 0.  0.
          6    2    1    2  501    0  0.17536496379E+01 -0.57419786581E+02  0.17282967180E+03  0.25006030756E+03  0.17134746799E+03 0.  0.
         24    2    5    5    0    0 -0.14380665157E+02 -0.10206229498E+03  0.10413587181E+03  0.16642898671E+03  0.78935494123E+02 0.  0.
          5    1    5    5  501    0  0.16134314795E+02  0.44642508401E+02  0.68693799995E+02  0.83631320855E+02  0.47000000000E+01 0. -1.
        -11    1    6    6    0    0  0.67260326645E+01 -0.10176918493E+02 -0.11817840200E+02  0.16984420285E+02  0.00000000000E+00 0.  1.
         12    1    6    6    0    0 -0.21106697821E+02 -0.91885376489E+02  0.11595371201E+03  0.14944456642E+03  0.00000000000E+00 0. -1.
         -5    1    3    3    0  503 -0.42530687028E+02  0.68238525825E+02  0.39834597358E+02  0.89856779892E+02  0.47000000000E+01 0.  1.
         13    1    4    4    0    0 -0.14699733543E+02 -0.12114992732E+01 -0.30856609469E+02  0.34200588367E+02  0.00000000000E+00 0. -1.
        -14    1    4    4    0    0  0.55476770933E+02 -0.96072399711E+01  0.17316414678E+02  0.58905257747E+02  0.00000000000E+00 0.  1.
</event>
<event>
12    1  0.8251070E-002  0.1956469E+03  0.7818608E-02  0.1154484E+00
         21   -1    0    0  501  502  0.00000000000E+00  0.00000000000E+00  0.17496754286E+03  0.17496754286E+03  0.00000000000E+00 0. -1.
         21   -1    0    0  502  503 -0.00000000000E+00 -0.00000000000E+00 -0.22127536606E+03  0.22127536606E+03  0.00000000000E+00 0. -1.
         -6    2    1    2    0  503 -0.15139008499E+02  0.83667267037E+02  0.13977088620E+02  0.19151876665E+03  0.17103998895E+03 0.  0.
        -24    2    3    3    0    0 -0.76370525128E+01  0.99095376396E+02 -0.41027885190E+02  0.13370922552E+03  0.79477364266E+02 0.  0.
          6    2    1    2  501    0  0.15139008499E+02 -0.83667267037E+02 -0.60284911817E+02  0.20472414227E+03  0.17620528563E+03 0.  0.
         24    2    5    5    0    0 -0.58050243070E+02 -0.43192262219E+02 -0.99569815960E+01  0.10700063885E+03  0.78195863039E+02 0.  0.
          5    1    5    5  501    0  0.73189251568E+02 -0.40475004818E+02 -0.50327930221E+02  0.97723503419E+02  0.47000000000E+01 0. -1.
        -13    1    6    6    0    0 -0.41130490321E+02 -0.25951586026E+02  0.32260742008E+02  0.58360581956E+02  0.00000000000E+00 0.  1.
         14    1    6    6    0    0 -0.16919752749E+02 -0.17240676192E+02 -0.42217723604E+02  0.48640056897E+02  0.00000000000E+00 0. -1.
         -5    1    3    3    0  503 -0.75019559859E+01 -0.15428109359E+02  0.55004973810E+02  0.57809541131E+02  0.47000000000E+01 0.  1.
         11    1    4    4    0    0 -0.40126453455E+02  0.80059834964E+02 -0.27147562134E+02  0.93577238531E+02  0.00000000000E+00 0. -1.
        -12    1    4    4    0    0  0.32489400942E+02  0.19035541432E+02 -0.13880323056E+02  0.40131986984E+02  0.00000000000E+00 0.  1.
</event>
<event>
12    1  0.8251070E-002  0.1803931E+03  0.7818608E-02  0.1168596E+00
         21   -1    0    0  501  502  0.00000000000E+00  0.00000000000E+00  0.39953740653E+03  0.39953740653E+03  0.00000000000E+00 0.  1.
         21   -1    0    0  502  503 -0.00000000000E+00 -0.00000000000E+00 -0.11574970742E+03  0.11574970742E+03  0.00000000000E+00 0.  1.
         -6    2    1    2    0  503  0.13598463832E+02 -0.28421819268E+02 -0.39866915171E+01  0.17564647059E+03  0.17275147147E+03 0.  0.
        -24    2    3    3    0    0  0.70260316503E+01  0.90073017704E+01  0.73503765850E+02  0.89211541604E+02  0.49248339620E+02 0.  0.
          6    2    1    2  501    0 -0.13598463832E+02  0.28421819268E+02  0.28777439063E+03  0.33964064335E+03  0.17762023727E+03 0.  0.
         24    2    5    5    0    0  0.41084446815E+02  0.24567459852E+02  0.26340863899E+03  0.27946708890E+03  0.80163899782E+02 0.  0.
          5    1    5    5  501    0 -0.54682910647E+02  0.38543594157E+01  0.24365751636E+02  0.60173554458E+02  0.47000000000E+01 0. -1.
        -11    1    6    6    0    0  0.62183883763E+02  0.20652572548E+01  0.16520521475E+03  0.17653289685E+03  0.00000000000E+00 0.  1.
         12    1    6    6    0    0 -0.21099436948E+02  0.22502202597E+02  0.98203424236E+02  0.10293419205E+03  0.00000000000E+00 0. -1.
         -5    1    3    3    0  503  0.65724321816E+01 -0.37429121038E+02 -0.77490457367E+02  0.86434928990E+02  0.47000000000E+01 0.  1.
         11    1    4    4    0    0  0.22751056381E+02 -0.10282256098E+02  0.29400556003E+02  0.38571077898E+02  0.00000000000E+00 0. -1.
        -12    1    4    4    0    0 -0.15725024731E+02  0.19289557869E+02  0.44103209847E+02  0.50640463706E+02  0.00000000000E+00 0.  1.
</event>
<event>
12    1  0.8251070E-002  0.2170405E+03  0.7818608E-02  0.1136159E+00
         21   -1    0    0  501  502  0.00000000000E+00  0.00000000000E+00  0.26090366132E+03  0.26090366132E+03  0.00000000000E+00 0.  1.
         21   -1    0    0  502  503 -0.00000000000E+00 -0.00000000000E+00 -0.58354290129E+03  0.58354290129E+03  0.00000000000E+00 0.  1.
         -6    2    1    2    0  503  0.12605506050E+03 -0.40023547146E+02 -0.51232033495E+03  0.55639796519E+03  0.17208953329E+03 0.  0.
        -24    2    3    3    0    0  0.79225901249E+02  0.22562758990E+02 -0.18215821316E+03  0.21707638832E+03  0.84585591092E+02 0.  0.
          6    2    1    2  501    0 -0.12605506050E+03  0.40023547146E+02  0.18968109497E+03  0.28804859741E+03  0.17175946575E+03 0.  0.
         24    2    5    5    0    0 -0.13269999122E+03  0.79648348446E+02  0.14796759405E+03  0.22994191843E+03  0.83819627073E+02 0.  0.
          5    1    5    5  501    0  0.66449307228E+01 -0.39624801300E+02  0.41713500925E+02  0.58106678978E+02  0.47000000000E+01 0. -1.
        -13    1    6    6    0    0 -0.10372508078E+03  0.15405793377E+02  0.98218386543E+02  0.14367700688E+03  0.00000000000E+00 0.  1.
         14    1    6    6    0    0 -0.28974910448E+02  0.64242555069E+02  0.49749207507E+02  0.86264911550E+02  0.00000000000E+00 0. -1.
         -5    1    3    3    0  503  0.46829159252E+02 -0.62586306136E+02 -0.33016212178E+03  0.33932157687E+03  0.47000000000E+01 0.  1.
         11    1    4    4    0    0 -0.74599643483E+01  0.16511045655E+02 -0.35661260762E+01  0.18465723703E+02  0.00000000000E+00 0. -1.
        -12    1    4    4    0    0  0.86685865598E+02  0.60517133352E+01 -0.17859208709E+03  0.19861066462E+03  0.00000000000E+00 0.  1.
</event>
<event>
12    1  0.8251070E-002  0.2096080E+03  0.7818608E-02  0.1142541E+00
         21   -1    0    0  503  502  0.00000000000E+00  0.00000000000E+00  0.68818923423E+03  0.68818923423E+03  0.00000000000E+00 0. -1.
         21   -1    0    0  501  503 -0.00000000000E+00 -0.00000000000E+00 -0.23905885983E+03  0.23905885983E+03  0.00000000000E+00 0. -1.
          6    2    1    2  501    0 -0.97622338648E+02 -0.64096875116E+02 -0.17395932570E+03  0.26984692614E+03  0.17004995192E+03 0.  0.
         24    2    3    3    0    0 -0.12485697942E+03 -0.20362218307E+02 -0.15304825998E+03  0.21404541600E+03  0.79923619687E+02 0.  0.
         -6    2    1    2    0  502  0.97622338648E+02  0.64096875116E+02  0.62308970010E+03  0.65740116791E+03  0.17406030794E+03 0.  0.
        -24    2    5    5    0    0  0.46376114265E+02 -0.33437219434E+02  0.28245280716E+03  0.29935835212E+03  0.81037294439E+02 0.  0.
          5    1    3    3  501    0  0.27234640775E+02 -0.43734656809E+02 -0.20911065725E+02  0.55801510142E+02  0.47000000000E+01 0. -1.
        -13    1    4    4    0    0 -0.52787006899E+02 -0.49046246628E+02 -0.72214859223E+02  0.10201464747E+03  0.00000000000E+00 0.  1.
         14    1    4    4    0    0 -0.72069972523E+02  0.28684028321E+02 -0.80833400755E+02  0.11203076853E+03  0.00000000000E+00 0. -1.
         -5    1    5    5    0  502  0.51246224383E+02  0.97534094550E+02  0.34063689294E+03  0.35804281579E+03  0.47000000000E+01 0.  1.
         11    1    6    6    0    0  0.37336812847E+00 -0.13595761157E+02  0.21451524618E+03  0.21494598151E+03  0.00000000000E+00 0. -1.
        -12    1    6    6    0    0  0.46002746137E+02 -0.19841458277E+02  0.67937560988E+02  0.84412370608E+02  0.00000000000E+00 0.  1.
</event>
<event>
12    1  0.8251070E-002  0.1957643E+03  0.7818608E-02  0.1153378E+00
         21   -1    0    0  503  502  0.00000000000E+00  0.00000000000E+00  0.36576521971E+03  0.36576521971E+03  0.00000000000E+00 0. -1.
         21   -1    0    0  501  503 -0.00000000000E+00 -0.00000000000E+00 -0.23274222538E+03  0.23274222538E+03  0.00000000000E+00 0. -1.
          6    2    1    2  501    0  0.95707741280E+02  0.70656992240E+01 -0.15541131083E+03  0.24995264683E+03  0.17062753083E+03 0.  0.
         24    2    3    3    0    0  0.41057302965E+02  0.17161002104E+02 -0.23310564843E+02  0.10656058764E+03  0.93976456015E+02 0.  0.
         -6    2    1    2    0  502 -0.95707741280E+02 -0.70656992240E+01  0.28843430516E+03  0.34855479826E+03  0.17054677702E+03 0.  0.
        -24    2    5    5    0    0  0.88645688593E+01  0.28281250650E+02  0.14752951988E+03  0.16949887564E+03  0.78016023269E+02 0.  0.
          5    1    3    3  501    0  0.54650438314E+02 -0.10095302880E+02 -0.13210074598E+03  0.14339205918E+03  0.47000000000E+01 0. -1.
        -13    1    4    4    0    0  0.83575262570E+01 -0.29143214711E+02  0.19040139063E+02  0.35800867369E+02  0.00000000000E+00 0.  1.
         14    1    4    4    0    0  0.32699776708E+02  0.46304216815E+02 -0.42350703907E+02  0.70759720273E+02  0.00000000000E+00 0. -1.
         -5    1    5    5    0  502 -0.10457231014E+03 -0.35346949874E+02  0.14090478528E+03  0.17905592263E+03  0.47000000000E+01 0.  1.
         13    1    6    6    0    0 -0.32856777546E+02  0.88372492781E+00  0.69348015579E+02  0.76743052228E+02  0.00000000000E+00 0. -1.
        -14    1    6    6    0    0  0.41721346405E+02  0.27397525722E+02  0.78181504299E+02  0.92755823408E+02  0.00000000000E+00 0.  1.
</event>
<event>
12    1  0.8251070E-002  0.2048257E+03  0.7818608E-02  0.1146165E+00
         21   -1    0    0  501  502  0.00000000000E+00  0.00000000000E+00  0.99796383046E+03  0.99796383046E+03  0.00000000000E+00 0. -1.
         21   -1    0    0  502  503 -0.00000000000E+00 -0.00000000000E+00 -0.18664267383E+03  0.18664267383E+03  0.00000000000E+00 0.  1.
         -6    2    1    2    0  503  0.23760504151E+02  0.10893085670E+03 -0.11693531938E+03  0.23402054779E+03  0.16929635192E+03 0.  0.
        -24    2    3    3    0    0  0.25071780124E+02  0.53117697310E+01 -0.98534739943E+02  0.12866730412E+03  0.78672556323E+02 0.  0.
          6    2    1    2  501    0 -0.23760504151E+02 -0.10893085670E+03  0.92825647600E+03  0.95058595649E+03  0.17182282252E+03 0.  0.
         24    2    5    5    0    0  0.34582370578E+02 -0.83121896477E+01  0.44440353150E+03  0.45292767102E+03  0.79899583959E+02 0.  0.
          5    1    5    5  501    0 -0.58342874729E+02 -0.10061866705E+03  0.48385294450E+03  0.49765828547E+03  0.47000000000E+01 0. -1.
        -13    1    6    6    0    0  0.11933442293E+02  0.27364188881E+02  0.69370689035E+02  0.75521509355E+02  0.00000000000E+00 0.  1.
         14    1    6    6    0    0  0.22648928285E+02 -0.35676378529E+02  0.37503284247E+03  0.37740616167E+03  0.00000000000E+00 0. -1.
         -5    1    3    3    0  503 -0.13112759729E+01  0.10361908697E+03 -0.18400579432E+02  0.10535324367E+03  0.47000000000E+01 0.  1.
         11    1    4    4    0    0  0.34479245820E+02  0.26135729816E+02 -0.21496035494E+02  0.48311223410E+02  0.00000000000E+00 0. -1.
        -12    1    4    4    0    0 -0.94074656966E+01 -0.20823960085E+02 -0.77038704449E+02  0.80356080713E+02  0.00000000000E+00 0.  1.
</event>
<event>
12    1  0.8251070E-002  0.1762918E+03  0.7818608E-02  0.1171752E+00
         21   -1    0    0  501  502  0.00000000000E+00  0.00000000000E+00  0.33266671395E+03  0.33266671395E+03  0.00000000000E+00 0. -1.
         21   -1    0    0  502  503 -0.00000000000E+00 -0.00000000000E+00 -0.12102733516E+03  0.12102733516E+03  0.00000000000E+00 0. -1.
         -6    2    1    2    0  503  0.10687601386E+02 -0.30696526802E+02 -0.40896482834E+01  0.17509433056E+03  0.17200231915E+03 0.  0.
        -24    2    3    3    0    0 -0.48830365655E+02 -0.93945484026E+01 -0.43092841329E+02  0.10066650141E+03  0.76184574444E+02 0.  0.
          6    2    1    2  501    0 -0.10687601386E+02  0.30696526802E+02  0.21572902708E+03  0.27859971855E+03  0.17326941009E+03 0.  0.
         24    2    5    5    0    0 -0.69993747324E+01  0.67843256627E+02  0.21692063704E+03  0.24095675789E+03  0.79711339750E+02 0.  0.
          5    1    5    5  501    0 -0.36882266535E+01 -0.37146729825E+02 -0.11916099648E+01  0.37642960655E+02  0.47000000000E+01 0. -1.
        -11    1    6    6    0    0 -0.36568013936E+01 -0.16475490645E+02  0.16989858667E+02  0.23947218752E+02  0.00000000000E+00 0.  1.
         12    1    6    6    0    0 -0.33425733388E+01  0.84318747272E+02  0.19993077837E+03  0.21700953914E+03  0.00000000000E+00 0. -1.
         -5    1    3    3    0  503  0.59517967041E+02 -0.21301978399E+02  0.39003193046E+02  0.74427829151E+02  0.47000000000E+01 0.  1.
         13    1    4    4    0    0 -0.20071596627E+02 -0.29259631283E+02 -0.53500402356E+02  0.64197259025E+02  0.00000000000E+00 0. -1.
        -14    1    4    4    0    0 -0.28758769027E+02  0.19865082880E+02  0.10407561027E+02  0.36469242388E+02  0.00000000000E+00 0.  1.
</event>
<event>
12    1  0.8251070E-002  0.1900730E+03  0.7818608E-02  0.1158499E+00
         21   -1    0    0  503  502  0.00000000000E+00  0.00000000000E+00  0.20611329891E+03  0.20611329891E+03  0.00000000000E+00 0. -1.
         21   -1    0    0  501  503 -0.00000000000E+00 -0.00000000000E+00 -0.18100204401E+03  0.18100204401E+03  0.00000000000E+00 0. -1.
          6    2    1    2  501    0  0.79114559245E+02 -0.23025229412E+02  0.48201068047E+02  0.19564501287E+03  0.17077574015E+03 0.  0.
         24    2    3    3    0    0  0.62887941381E+02  0.23750472818E+02 -0.24974475821E+02  0.10716891628E+03  0.79639651209E+02 0.  0.
         -6    2    1    2    0  502 -0.79114559245E+02  0.23025229412E+02 -0.23089813140E+02  0.19147033005E+03  0.17128477207E+03 0.  0.
        -24    2    5    5    0    0 -0.72332602307E+02 -0.37006257410E+02 -0.51817340717E+02  0.12440964715E+03  0.78684528733E+02 0.  0.
          5    1    3    3  501    0  0.16226617864E+02 -0.46775702230E+02  0.73175543868E+02  0.88476096584E+02  0.47000000000E+01 0. -1.
        -11    1    4    4    0    0 -0.36701990553E+01  0.20760123088E+01  0.22304496197E+02  0.22699575741E+02  0.00000000000E+00 0.  1.
         12    1    4    4    0    0  0.66558140436E+02  0.21674460509E+02 -0.47278972018E+02  0.84469340543E+02  0.00000000000E+00 0. -1.
         -5    1    5    5    0  502 -0.67819569380E+01  0.60031486821E+02  0.28727527577E+02  0.67060682897E+02  0.47000000000E+01 0.  1.
         11    1    6    6    0    0 -0.76276951677E+02 -0.39483332170E+02 -0.14867449384E+02  0.87167355859E+02  0.00000000000E+00 0. -1.
        -12    1    6    6    0    0  0.39443493694E+01  0.24770747603E+01 -0.36949891333E+02  0.37242291294E+02  0.00000000000E+00 0.  1.
</event>
<event>
12    1  0.8251070E-002  0.3242028E+03  0.7818608E-02  0.1073813E+00
         21   -1    0    0  503  502  0.00000000000E+00  0.00000000000E+00  0.31905797072E+04  0.31905797072E+04  0.00000000000E+00 0. -1.
         21   -1    0    0  501  503 -0.00000000000E+00 -0.00000000000E+00 -0.18035628428E+03  0.18035628428E+03  0.00000000000E+00 0. -1.
          6    2    1    2  501    0  0.22978587491E+03 -0.15013807195E+03 -0.18744263300E+02  0.32474422924E+03  0.17252384781E+03 0.  0.
         24    2    3    3    0    0  0.22369830256E+03 -0.75280087602E+02 -0.75718289241E+01  0.24866736254E+03  0.77910862159E+02 0.  0.
         -6    2    1    2    0  502 -0.22978587491E+03  0.15013807195E+03  0.30289676862E+04  0.30461917622E+04  0.17116079928E+03 0.  0.
        -24    2    5    5    0    0 -0.16311038975E+03  0.15713707061E+03  0.26855775109E+04  0.26962867626E+04  0.79615831478E+02 0.  0.
          5    1    3    3  501    0  0.60875723556E+01 -0.74857984349E+02 -0.11172434376E+02  0.76076866707E+02  0.47000000000E+01 0. -1.
        -11    1    4    4    0    0  0.35180370818E+02  0.15479850474E+02  0.64374702060E+01  0.38970826066E+02  0.00000000000E+00 0.  1.
         12    1    4    4    0    0  0.18851793174E+03 -0.90759938076E+02 -0.14009299130E+02  0.20969653647E+03  0.00000000000E+00 0. -1.
         -5    1    5    5    0  502 -0.66675485158E+02 -0.69989986595E+01  0.34339017525E+03  0.34990499963E+03  0.47000000000E+01 0.  1.
         13    1    6    6    0    0 -0.13334038078E+03  0.92591194134E+02  0.21306846886E+04  0.21368598523E+04  0.00000000000E+00 0. -1.
        -14    1    6    6    0    0 -0.29770008971E+02  0.64545876476E+02  0.55489282237E+03  0.55942691026E+03  0.00000000000E+00 0.  1.
</event>
<event>
12    1  0.8251070E-002  0.1848841E+03  0.7818608E-02  0.1163730E+00
         21   -1    0    0  501  502  0.00000000000E+00  0.00000000000E+00  0.21270315179E+03  0.21270315179E+03  0.00000000000E+00 0. -1.
         21   -1    0    0  502  503 -0.00000000000E+00 -0.00000000000E+00 -0.19521481376E+03  0.19521481376E+03  0.00000000000E+00 0. -1.
         -6    2    1    2    0  503 -0.52529562929E+02  0.33274545932E+02 -0.79636050391E+02  0.19907523623E+03  0.17152987719E+03 0.  0.
        -24    2    3    3    0    0 -0.72041925778E+02  0.69756881682E+02 -0.89549457826E+02  0.15627268055E+03  0.79661682611E+02 0.  0.
          6    2    1    2  501    0  0.52529562929E+02 -0.33274545932E+02  0.97124388425E+02  0.20884272933E+03  0.17411372254E+03 0.  0.
         24    2    5    5    0    0  0.20222326306E+02  0.19790798045E+02 -0.10514545218E+02  0.84472643274E+02  0.78895206649E+02 0.  0.
          5    1    5    5  501    0  0.32307236623E+02 -0.53065343977E+02  0.10763893364E+03  0.12437008605E+03  0.47000000000E+01 0. -1.
        -11    1    6    6    0    0 -0.23872650293E+02 -0.59058670523E+01  0.13516292032E+02  0.28061946617E+02  0.00000000000E+00 0.  1.
         12    1    6    6    0    0  0.44094976599E+02  0.25696665097E+02 -0.24030837250E+02  0.56410696657E+02  0.00000000000E+00 0. -1.
         -5    1    3    3    0  503  0.19512362849E+02 -0.36482335750E+02  0.99134074351E+01  0.42802555680E+02  0.47000000000E+01 0.  1.
         13    1    4    4    0    0 -0.22038484369E+02 -0.15719282704E+02 -0.31305593435E+02  0.41386360342E+02  0.00000000000E+00 0. -1.
        -14    1    4    4    0    0 -0.50003441409E+02  0.85476164386E+02 -0.58243864390E+02  0.11488632020E+03  0.00000000000E+00 0.  1.
</event>
<event>
12    1  0.8251070E-002  0.2406246E+03  0.7818608E-02  0.1119518E+00
         21   -1    0    0  501  502  0.00000000000E+00  0.00000000000E+00  0.43395618664E+02  0.43395618664E+02  0.00000000000E+00 0. -1.
         21   -1    0    0  502  503 -0.00000000000E+00 -0.00000000000E+00 -0.13445812085E+04  0.13445812085E+04  0.00000000000E+00 0. -1.
         -6    2    1    2    0  503  0.23285112575E+02  0.16675268980E+03 -0.72506864188E+03  0.76395336788E+03  0.17190566262E+03 0.  0.
        -24    2    3    3    0    0  0.10807845935E+02  0.65786450959E+02 -0.56396623840E+03  0.57335972168E+03  0.78985984330E+02 0.  0.
          6    2    1    2  501    0 -0.23285112575E+02 -0.16675268980E+03 -0.57611694793E+03  0.62402345925E+03  0.17072165646E+03 0.  0.
         24    2    5    5    0    0 -0.34869623899E+02 -0.67647215733E+02 -0.45151991584E+03  0.46432810460E+03  0.77060481794E+02 0.  0.
          5    1    5    5  501    0  0.11584511324E+02 -0.99105474063E+02 -0.12459703209E+03  0.15969535465E+03  0.47000000000E+01 0. -1.
        -13    1    6    6    0    0 -0.48124622403E+02 -0.57236657538E+02 -0.22334049045E+03  0.23552704499E+03  0.00000000000E+00 0.  1.
         14    1    6    6    0    0  0.13254998503E+02 -0.10410558195E+02 -0.22817942539E+03  0.22880105961E+03  0.00000000000E+00 0. -1.
         -5    1    3    3    0  503  0.12477266640E+02  0.10096623884E+03 -0.16110240347E+03  0.19059364620E+03  0.47000000000E+01 0.  1.
         11    1    4    4    0    0 -0.12963294833E+02  0.75893588093E+02 -0.44620335520E+03  0.45279721500E+03  0.00000000000E+00 0. -1.
        -12    1    4    4    0    0  0.23771140768E+02 -0.10107137134E+02 -0.11776288320E+03  0.12056250667E+03  0.00000000000E+00 0.  1.
</event>
<event>
12    1  0.8251070E-002  0.2258216E+03  0.7818608E-02  0.1129836E+00
         21   -1    0    0  501  502  0.00000000000E+00  0.00000000000E+00  0.49343921092E+03  0.49343921092E+03  0.00000000000E+00 0.  1.
         21   -1    0    0  502  503 -0.00000000000E+00 -0.00000000000E+00 -0.10919759288E+03  0.10919759288E+03  0.00000000000E+00 0.  1.
         -6    2    1    2    0  503  0.13644678529E+03  0.55429980977E+02  0.11864174196E+03  0.25401277877E+03  0.16957718253E+03 0.  0.
        -24    2    3    3    0    0  0.15511540580E+02  0.33029935752E+02  0.44418846348E+01  0.86111638650E+02  0.77871043559E+02 0.  0.
          6    2    1    2  501    0 -0.13644678529E+03 -0.55429980977E+02  0.26559987608E+03  0.34862402503E+03  0.17118764165E+03 0.  0.
         24    2    5    5    0    0 -0.45147105333E+02  0.19855456832E+02  0.17980393773E+03  0.20238257488E+03  0.78719440461E+02 0.  0.
          5    1    5    5  501    0 -0.91299679955E+02 -0.75285437808E+02  0.85795938345E+02  0.14624145015E+03  0.47000000000E+01 0. -1.
        -11    1    6    6    0    0  0.45417263151E+01 -0.22461897750E+02  0.22678062336E+02  0.32240636466E+02  0.00000000000E+00 0.  1.
         12    1    6    6    0    0 -0.49688831648E+02  0.42317354581E+02  0.15712587539E+03  0.17014193842E+03  0.00000000000E+00 0. -1.
         -5    1    3    3    0  503  0.12093524471E+03  0.22400045224E+02  0.11419985732E+03  0.16790114012E+03  0.47000000000E+01 0.  1.
         13    1    4    4    0    0 -0.23694060091E+02 -0.10807935862E+02  0.78529997285E+01  0.27200911123E+02  0.00000000000E+00 0. -1.
        -14    1    4    4    0    0  0.39205600670E+02  0.43837871614E+02 -0.34111150937E+01  0.58910727527E+02  0.00000000000E+00 0.  1.
</event>
<event>
12    1  0.8251070E-002  0.1975333E+03  0.7818608E-02  0.1154627E+00
         21   -1    0    0  501  502  0.00000000000E+00  0.00000000000E+00  0.37319058423E+02  0.37319058423E+02  0.00000000000E+00 0. -1.
         21   -1    0    0  502  503 -0.00000000000E+00 -0.00000000000E+00 -0.10118626852E+04  0.10118626852E+04  0.00000000000E+00 0. -1.
         -6    2    1    2    0  503 -0.33535998566E+02 -0.88505214563E+02 -0.59565746228E+03  0.62755655445E+03  0.17338275709E+03 0.  0.
        -24    2    3    3    0    0 -0.83876419394E+02 -0.55428718683E+02 -0.48064458818E+03  0.49764018227E+03  0.80739917552E+02 0.  0.
          6    2    1    2  501    0  0.33535998566E+02  0.88505214563E+02 -0.37888616445E+03  0.42162518913E+03  0.15891896769E+03 0.  0.
         24    2    5    5    0    0  0.15285440474E+02  0.71581344328E+02 -0.38092719490E+03  0.39621345838E+03  0.80759168116E+02 0.  0.
          5    1    5    5  501    0  0.18250558092E+02  0.16923870235E+02  0.20410304565E+01  0.25411730750E+02  0.47000000000E+01 0. -1.
        -11    1    6    6    0    0 -0.32777050114E+02  0.19658562662E+02 -0.12998438640E+03  0.13548702819E+03  0.00000000000E+00 0.  1.
         12    1    6    6    0    0  0.48062490588E+02  0.51922781667E+02 -0.25094280850E+03  0.26072643018E+03  0.00000000000E+00 0. -1.
         -5    1    3    3    0  503  0.50340420828E+02 -0.33076495881E+02 -0.11501287411E+03  0.12991637218E+03  0.47000000000E+01 0.  1.
         11    1    4    4    0    0 -0.20051889614E+02 -0.47953358694E+02 -0.32689905063E+03  0.33100542623E+03  0.00000000000E+00 0. -1.
        -12    1    4    4    0    0 -0.63824529780E+02 -0.74753599885E+01 -0.15374553754E+03  0.16663475605E+03  0.00000000000E+00 0.  1.
</event>
<event>
12    1  0.8251070E-002  0.2050624E+03  0.7818608E-02  0.1145607E+00
         21   -1    0    0  501  502  0.00000000000E+00  0.00000000000E+00  0.20466467815E+03  0.20466467815E+03  0.00000000000E+00 0.  1.
         21   -1    0    0  502  503 -0.00000000000E+00 -0.00000000000E+00 -0.25012202821E+03  0.25012202821E+03  0.00000000000E+00 0.  1.
         -6    2    1    2    0  503  0.50407191062E+02  0.99641172846E+02  0.73741493883E+02  0.21759698285E+03  0.17158493753E+03 0.  0.
        -24    2    3    3    0    0  0.24786466071E+02  0.21453308182E+02 -0.23775876829E+02  0.89919689172E+02  0.80284773460E+02 0.  0.
          6    2    1    2  501    0 -0.50407191062E+02 -0.99641172846E+02 -0.11919884394E+03  0.23718972351E+03  0.17199230303E+03 0.  0.
         24    2    5    5    0    0 -0.54016364531E+02 -0.21787141805E+02 -0.12234905185E+03  0.15904696893E+03  0.83271847900E+02 0.  0.
          5    1    5    5  501    0  0.36091734692E+01 -0.77854031040E+02  0.31502079104E+01  0.78142754573E+02  0.47000000000E+01 0. -1.
        -13    1    6    6    0    0 -0.14886327042E+02  0.19554286210E+02 -0.90587746997E+02  0.93862200848E+02  0.00000000000E+00 0.  1.
         14    1    6    6    0    0 -0.39130037489E+02 -0.41341428015E+02 -0.31761304854E+02  0.65184768085E+02  0.00000000000E+00 0. -1.
         -5    1    3    3    0  503  0.25620724991E+02  0.78187864664E+02  0.97517370712E+02  0.12767729368E+03  0.47000000000E+01 0.  1.
         11    1    4    4    0    0  0.21763716162E+02 -0.26046821512E+02 -0.25244100597E+02  0.42300837663E+02  0.00000000000E+00 0. -1.
        -12    1    4    4    0    0  0.30227499091E+01  0.47500129694E+02  0.14682237683E+01  0.47618851508E+02  0.00000000000E+00 0.  1.
</event>
<event>
12    1  0.8251070E-002  0.2966597E+03  0.7818608E-02  0.1087120E+00
         21   -1    0    0  503  502  0.00000000000E+00  0.00000000000E+00  0.19867397786E+03  0.19867397786E+03  0.00000000000E+00 0. -1.
         21   -1    0    0  501  503 -0.00000000000E+00 -0.00000000000E+00 -0.10969241058E+04  0.10969241058E+04  0.00000000000E+00 0. -1.
          6    2    1    2  501    0  0.94039040555E+02 -0.22286826921E+03 -0.94971377961E+03  0.99450757797E+03  0.16904275463E+03 0.  0.
         24    2    3    3    0    0  0.80393515199E+02 -0.22030770346E+03 -0.94787789318E+03  0.97973539674E+03  0.80064634869E+02 0.  0.
         -6    2    1    2    0  502 -0.94039040555E+02  0.22286826921E+03  0.51463651663E+02  0.30109050569E+03  0.17173636367E+03 0.  0.
        -24    2    5    5    0    0 -0.12681134301E+03  0.21584718606E+03  0.40940159322E+02  0.26564825255E+03  0.78878216229E+02 0.  0.
          5    1    3    3  501    0  0.13645525356E+02 -0.25605657520E+01 -0.18358864251E+01  0.14772181226E+02  0.47000000000E+01 0. -1.
        -11    1    4    4    0    0  0.27000896187E+02 -0.11369639069E+02 -0.72735538979E+02  0.78414129581E+02  0.00000000000E+00 0.  1.
         12    1    4    4    0    0  0.53392619012E+02 -0.20893806439E+03 -0.87514235420E+03  0.90132126716E+03  0.00000000000E+00 0. -1.
         -5    1    5    5    0  502  0.32772302450E+02  0.70210831516E+01  0.10523492341E+02  0.35442253139E+02  0.47000000000E+01 0.  1.
         11    1    6    6    0    0 -0.93789574395E+02  0.93848658632E+02 -0.36686981768E+00  0.13268078077E+03  0.00000000000E+00 0. -1.
        -12    1    6    6    0    0 -0.33021768611E+02  0.12199852743E+03  0.41307029140E+02  0.13296747178E+03  0.00000000000E+00 0.  1.
</event>
<event>
12    1  0.8251070E-002  0.2323640E+03  0.7818608E-02  0.1125684E+00
         21   -1    0    0  501  502  0.00000000000E+00  0.00000000000E+00  0.42064383873E+03  0.42064383873E+03  0.00000000000E+00 0.  1.
         21   -1    0    0  502  503 -0.00000000000E+00 -0.00000000000E+00 -0.15072611076E+03  0.15072611076E+03  0.00000000000E+00 0. -1.
         -6    2    1    2    0  503  0.10818409007E+03 -0.10617285473E+03  0.18672683113E+02  0.22914616185E+03  0.17082980410E+03 0.  0.
        -24    2    3    3    0    0  0.58156719418E+02 -0.66149901184E+02 -0.57311259570E+02  0.12964629165E+03  0.75931330976E+02 0.  0.
          6    2    1    2  501    0 -0.10818409007E+03  0.10617285473E+03  0.25124504485E+03  0.34222378764E+03  0.17611523455E+03 0.  0.
         24    2    5    5    0    0 -0.20300477808E+02 -0.14033390724E+02  0.85351669106E+02  0.11925344687E+03  0.79545155202E+02 0.  0.
          5    1    5    5  501    0 -0.87883612265E+02  0.12020624545E+03  0.16589337574E+03  0.22297034077E+03  0.47000000000E+01 0. -1.
        -11    1    6    6    0    0 -0.32017367735E+02  0.21251361379E+01  0.92612862653E+02  0.98014133517E+02  0.00000000000E+00 0.  1.
         12    1    6    6    0    0  0.11716889927E+02 -0.16158526861E+02 -0.72611935467E+01  0.21239313351E+02  0.00000000000E+00 0. -1.
         -5    1    3    3    0  503  0.50027370656E+02 -0.40022953541E+02  0.75983942682E+02  0.99499870203E+02  0.47000000000E+01 0.  1.
         11    1    4    4    0    0  0.64149572189E+02 -0.75908542817E+02 -0.36467609566E+02  0.10586387973E+03  0.00000000000E+00 0. -1.
        -12    1    4    4    0    0 -0.59928527719E+01  0.97586416332E+01 -0.20843650004E+02  0.23782411912E+02  0.00000000000E+00 0.  1.
</event>
<event>
12    1  0.8251070E-002  0.1828309E+03  0.7818608E-02  0.1165152E+00
         21   -1    0    0  501  502  0.00000000000E+00  0.00000000000E+00  0.43917620500E+03  0.43917620500E+03  0.00000000000E+00 0. -1.
         21   -1    0    0  502  503 -0.00000000000E+00 -0.00000000000E+00 -0.76322711532E+02  0.76322711532E+02  0.00000000000E+00 0.  1.
         -6    2    1    2    0  503  0.26884190737E+02  0.55290774964E+02  0.19790830042E+03  0.26925906441E+03  0.17190962418E+03 0.  0.
        -24    2    3    3    0    0 -0.31449926857E+02  0.44501518868E+02  0.18360673945E+03  0.20805529027E+03  0.81277831901E+02 0.  0.
          6    2    1    2  501    0 -0.26884190737E+02 -0.55290774964E+02  0.16494519305E+03  0.24623985212E+03  0.17218396718E+03 0.  0.
         24    2    5    5    0    0  0.43483470263E+01  0.15932590790E+01  0.16190589784E+03  0.18110466916E+03  0.81018114271E+02 0.  0.
          5    1    5    5  501    0 -0.31232537764E+02 -0.56884034043E+02  0.30392952106E+01  0.65135182962E+02  0.47000000000E+01 0. -1.
        -13    1    6    6    0    0  0.72008205524E+01  0.32565001464E+02  0.27738205977E+02  0.43379018059E+02  0.00000000000E+00 0.  1.
         14    1    6    6    0    0 -0.28524735261E+01 -0.30971742385E+02  0.13416769186E+03  0.13772565110E+03  0.00000000000E+00 0. -1.
         -5    1    3    3    0  503  0.58334117595E+02  0.10789256095E+02  0.14301560971E+02  0.61203774139E+02  0.47000000000E+01 0.  1.
         11    1    4    4    0    0  0.20933715221E+02 -0.91548655487E+01  0.41128042143E+02  0.47048356471E+02  0.00000000000E+00 0. -1.
        -12    1    4    4    0    0 -0.52383642078E+02  0.53656384417E+02  0.14247869730E+03  0.16100693380E+03  0.00000000000E+00 0.  1.
</event>
<event>
12    1  0.8251070E-002  0.2804346E+03  0.7818608E-02  0.1095810E+00
         21   -1    0    0  501  502  0.00000000000E+00  0.00000000000E+00  0.14348798004E+04  0.14348798004E+04  0.00000000000E+00 0. -1.
         21   -1    0    0  502  503 -0.00000000000E+00 -0.00000000000E+00 -0.11530349472E+03  0.11530349472E+03  0.00000000000E+00 0. -1.
         -6    2    1    2    0  503  0.17529759976E+03 -0.12999486467E+03  0.94550331094E+02  0.29346844343E+03  0.17191872747E+03 0.  0.
        -24    2    3    3    0    0  0.19082702313E+03 -0.13784185096E+03  0.10788048645E+03  0.27105145822E+03  0.80095973798E+02 0.  0.
          6    2    1    2  501    0 -0.17529759976E+03  0.12999486467E+03  0.12250259746E+04  0.12567148517E+04  0.17611265347E+03 0.  0.
         24    2    5    5    0    0 -0.13168208153E+03  0.33874626980E+02  0.92910908729E+03  0.94250105869E+03  0.81098018404E+02 0.  0.
          5    1    5    5  501    0 -0.43615518236E+02  0.96120237687E+02  0.29591688729E+03  0.31421379299E+03  0.47000000000E+01 0. -1.
        -13    1    6    6    0    0 -0.26605547762E+02 -0.25860778509E+02  0.19288997236E+03  0.19642600763E+03  0.00000000000E+00 0.  1.
         14    1    6    6    0    0 -0.10507653376E+03  0.59735405488E+02  0.73621911493E+03  0.74607505106E+03  0.00000000000E+00 0. -1.
         -5    1    3    3    0  503 -0.15529423364E+02  0.78469862920E+01 -0.13330155352E+02  0.22416985203E+02  0.47000000000E+01 0.  1.
         13    1    4    4    0    0  0.69880354142E+02 -0.97603527455E+02  0.39308437301E+02  0.12631257146E+03  0.00000000000E+00 0. -1.
        -14    1    4    4    0    0  0.12094666898E+03 -0.40238323504E+02  0.68572049145E+02  0.14473888676E+03  0.00000000000E+00 0.  1.
</event>
<event>
12    1  0.8251070E-002  0.2327902E+03  0.7818608E-02  0.1124745E+00
         21   -1    0    0  501  502  0.00000000000E+00  0.00000000000E+00  0.13840224735E+03  0.13840224735E+03  0.00000000000E+00 0.  1.
         21   -1    0    0  502  503 -0.00000000000E+00 -0.00000000000E+00 -0.44452173983E+03  0.44452173983E+03  0.00000000000E+00 0.  1.
         -6    2    1    2    0  503  0.15615639172E+03 -0.68353909312E+01 -0.25426219294E+03  0.34473257820E+03  0.17251013440E+03 0.  0.
        -24    2    3    3    0    0  0.51197032799E+02 -0.36897173443E+02 -0.34942253445E+02  0.99694818551E+02  0.68815392135E+02 0.  0.
          6    2    1    2  501    0 -0.15615639172E+03  0.68353909312E+01 -0.51857299539E+02  0.23819140898E+03  0.17208842655E+03 0.  0.
         24    2    5    5    0    0 -0.17125946495E+03  0.42174702853E+02 -0.47919368065E+02  0.19927396954E+03  0.79406166047E+02 0.  0.
          5    1    5    5  501    0  0.15103073227E+02 -0.35339311922E+02 -0.39379314743E+01  0.38917439437E+02  0.47000000000E+01 0. -1.
        -11    1    6    6    0    0 -0.12080651616E+03  0.45294567876E+02 -0.66834052712E+02  0.14530176471E+03  0.00000000000E+00 0.  1.
         12    1    6    6    0    0 -0.50452948790E+02 -0.31198650222E+01  0.18914684648E+02  0.53972204834E+02  0.00000000000E+00 0. -1.
         -5    1    3    3    0  503  0.10495935892E+03  0.30061782512E+02 -0.21931993950E+03  0.24503775965E+03  0.47000000000E+01 0.  1.
         11    1    4    4    0    0  0.66863075098E+02 -0.24207273740E+02 -0.17981272683E+02  0.73348408850E+02  0.00000000000E+00 0. -1.
        -12    1    4    4    0    0 -0.15666042299E+02 -0.12689899703E+02 -0.16960980761E+02  0.26346409702E+02  0.00000000000E+00 0.  1.
</event>
<event>
12    1  0.8251070E-002  0.2032341E+03  0.7818608E-02  0.1147604E+00
         21   -1    0    0  503  502  0.00000000000E+00  0.00000000000E+00  0.50018451100E+03  0.50018451100E+03  0.00000000000E+00 0. -1.
         21   -1    0    0  501  503 -0.00000000000E+00 -0.00000000000E+00 -0.81477202664E+02  0.81477202664E+02  0.00000000000E+00 0. -1.
          6    2    1    2  501    0  0.10603619417E+03 -0.97882977257E+00  0.20861765220E+03  0.28935750357E+03  0.17018168962E+03 0.  0.
         24    2    3    3    0    0  0.13341648589E+02  0.12908163937E+02  0.29853872799E+02  0.87457265335E+02  0.80080579765E+02 0.  0.
         -6    2    1    2    0  502 -0.10603619417E+03  0.97882977257E+00  0.21008965613E+03  0.29230421009E+03  0.17337662772E+03 0.  0.
        -24    2    5    5    0    0 -0.91432485648E+02  0.43324396933E+02  0.72376367000E+02  0.14741302552E+03  0.79090826224E+02 0.  0.
          5    1    3    3  501    0  0.92694545578E+02 -0.13886993709E+02  0.17876377940E+03  0.20190023824E+03  0.47000000000E+01 0. -1.
        -13    1    4    4    0    0  0.29182758840E+02  0.28987537241E+02 -0.93845621399E+01  0.42189817911E+02  0.00000000000E+00 0.  1.
         14    1    4    4    0    0 -0.15841110251E+02 -0.16079373304E+02  0.39238434939E+02  0.45267447424E+02  0.00000000000E+00 0. -1.
         -5    1    5    5    0  502 -0.14603708519E+02 -0.42345567160E+02  0.13771328913E+03  0.14489118457E+03  0.47000000000E+01 0.  1.
         11    1    6    6    0    0 -0.13512348575E+02  0.25551801662E+02 -0.11907688038E+02  0.31261336609E+02  0.00000000000E+00 0. -1.
        -12    1    6    6    0    0 -0.77920137073E+02  0.17772595271E+02  0.84284055038E+02  0.11615168892E+03  0.00000000000E+00 0.  1.
</event>
<event>
12    1  0.8251070E-002  0.2261049E+03  0.7818608E-02  0.1129572E+00
         21   -1    0    0  501  502  0.00000000000E+00  0.00000000000E+00  0.10039580492E+04  0.10039580492E+04  0.00000000000E+00 0. -1.
         21   -1    0    0  502  503 -0.00000000000E+00 -0.00000000000E+00 -0.50801086190E+02  0.50801086190E+02  0.00000000000E+00 0. -1.
         -6    2    1    2    0  503  0.98862169779E+02  0.10710576228E+03  0.49840785154E+03  0.54729680423E+03  0.17285263238E+03 0.  0.
        -24    2    3    3    0    0 -0.41739086409E+01  0.87034335746E+02  0.30106454949E+03  0.32372184033E+03  0.81015861639E+02 0.  0.
          6    2    1    2  501    0 -0.98862169779E+02 -0.10710576228E+03  0.45474911146E+03  0.50746233114E+03  0.17168543977E+03 0.  0.
         24    2    5    5    0    0 -0.98836524902E+02 -0.89563590348E+02  0.46258673081E+03  0.48768237333E+03  0.77828775942E+02 0.  0.
          5    1    5    5  501    0 -0.25644877433E-01 -0.17542171936E+02 -0.78376193526E+01  0.19779957811E+02  0.47000000000E+01 0. -1.
        -13    1    6    6    0    0 -0.27094122296E+02 -0.19002896073E+02  0.25339274282E+03  0.25554468032E+03  0.00000000000E+00 0.  1.
         14    1    6    6    0    0 -0.71742402606E+02 -0.70560694275E+02  0.20919398799E+03  0.23213769302E+03  0.00000000000E+00 0. -1.
         -5    1    3    3    0  503  0.10303607842E+03  0.20071426538E+02  0.19734330204E+03  0.22357496390E+03  0.47000000000E+01 0.  1.
         11    1    4    4    0    0  0.33811677370E+02  0.20538789427E+02  0.13820629068E+03  0.14375691351E+03  0.00000000000E+00 0. -1.
        -12    1    4    4    0    0 -0.37985586011E+02  0.66495546319E+02  0.16285825881E+03  0.17996492682E+03  0.00000000000E+00 0.  1.
</event>
<event>
12    1  0.8251070E-002  0.1757735E+03  0.7818608E-02  0.1172020E+00
         21   -1    0    0  501  502  0.00000000000E+00  0.00000000000E+00  0.12856521957E+03  0.12856521957E+03  0.00000000000E+00 0. -1.
         21   -1    0    0  502  503 -0.00000000000E+00 -0.00000000000E+00 -0.25555899386E+03  0.25555899386E+03  0.00000000000E+00 0. -1.
         -6    2    1    2    0  503 -0.30564801724E+02 -0.17027494236E+02 -0.11088187910E+03  0.20761381840E+03  0.17200163899E+03 0.  0.
        -24    2    3    3    0    0 -0.80791762846E+02 -0.23574087374E+02 -0.44748815620E+02  0.12417954732E+03  0.79593070897E+02 0.  0.
          6    2    1    2  501    0  0.30564801724E+02  0.17027494236E+02 -0.16111895192E+02  0.17651039503E+03  0.17225615728E+03 0.  0.
         24    2    5    5    0    0 -0.27933316516E+02 -0.53746681295E+01  0.40837545423E+02  0.91721153359E+02  0.77044841672E+02 0.  0.
          5    1    5    5  501    0  0.58498118239E+02  0.22402162365E+02 -0.56949440615E+02  0.84789241668E+02  0.47000000000E+01 0. -1.
        -13    1    6    6    0    0 -0.73477426202E+00 -0.29132294823E+02 -0.87044450094E+01  0.30413777434E+02  0.00000000000E+00 0.  1.
         14    1    6    6    0    0 -0.27198542254E+02  0.23757626694E+02  0.49541990433E+02  0.61307375925E+02  0.00000000000E+00 0. -1.
         -5    1    3    3    0  503  0.50226961122E+02  0.65465931380E+01 -0.66133063476E+02  0.83434271076E+02  0.47000000000E+01 0.  1.
         11    1    4    4    0    0  0.14383744243E+02  0.53593308187E-01 -0.16991803904E+02  0.22262443051E+02  0.00000000000E+00 0. -1.
        -12    1    4    4    0    0 -0.95175507088E+02 -0.23627680682E+02 -0.27757011715E+02  0.10191710427E+03  0.00000000000E+00 0.  1.
</event>
<event>
12    1  0.8251070E-002  0.2171428E+03  0.7818608E-02  0.1136157E+00
         21   -1    0    0  501  502  0.00000000000E+00  0.00000000000E+00  0.13042663890E+04  0.13042663890E+04  0.00000000000E+00 0.  1.
         21   -1    0    0  502  503 -0.00000000000E+00 -0.00000000000E+00 -0.94374752110E+02  0.94374752110E+02  0.00000000000E+00 0. -1.
         -6    2    1    2    0  503  0.12244454084E+03  0.48406820908E+02  0.55495307571E+02  0.22412212073E+03  0.17267052425E+03 0.  0.
        -24    2    3    3    0    0  0.91053447396E+02  0.23912580317E+02 -0.32470318309E+02  0.12745046042E+03  0.79540910927E+02 0.  0.
          6    2    1    2  501    0 -0.12244454084E+03 -0.48406820908E+02  0.11543963294E+04  0.11745190204E+04  0.17183759253E+03 0.  0.
         24    2    5    5    0    0 -0.55450413576E+02  0.27979308287E+02  0.76471543296E+03  0.77178294699E+03  0.83675765959E+02 0.  0.
          5    1    5    5  501    0 -0.66994127261E+02 -0.76386129195E+02  0.38968089641E+03  0.40273607344E+03  0.47000000000E+01 0. -1.
        -11    1    6    6    0    0 -0.69809740843E+02  0.19188463487E+02  0.72553376327E+03  0.72913705069E+03  0.00000000000E+00 0.  1.
         12    1    6    6    0    0  0.14359327267E+02  0.87908448001E+01  0.39181669689E+02  0.42645896303E+02  0.00000000000E+00 0. -1.
         -5    1    3    3    0  503  0.31391093442E+02  0.24494240591E+02  0.87965625879E+02  0.96671660304E+02  0.47000000000E+01 0.  1.
         11    1    4    4    0    0  0.89867172849E+02  0.27628786669E+02  0.73052209325E+00  0.94021233087E+02  0.00000000000E+00 0. -1.
        -12    1    4    4    0    0  0.11862745466E+01 -0.37162063520E+01 -0.33200840402E+02  0.33429227337E+02  0.00000000000E+00 0.  1.
</event>
<event>
12    1  0.8251070E-002  0.1980464E+03  0.7818608E-02  0.1152102E+00
         21   -1    0    0  503  502  0.00000000000E+00  0.00000000000E+00  0.71779957838E+02  0.71779957838E+02  0.00000000000E+00 0. -1.
         21   -1    0    0  501  503 -0.00000000000E+00 -0.00000000000E+00 -0.66388684302E+03  0.66388684302E+03  0.00000000000E+00 0. -1.
          6    2    1    2  501    0 -0.37536460314E+02 -0.82298755386E+02 -0.45856601726E+03  0.49950493507E+03  0.17618262396E+03 0.  0.
         24    2    3    3    0    0 -0.65754010346E+02 -0.99374215871E+02 -0.43631906814E+03  0.45944475252E+03  0.80723768148E+02 0.  0.
         -6    2    1    2    0  502  0.37536460314E+02  0.82298755386E+02 -0.13354086792E+03  0.23616186579E+03  0.17250273173E+03 0.  0.
        -24    2    5    5    0    0 -0.15155067127E+02  0.94428403506E+02 -0.13247810611E+03  0.18187793731E+03  0.79892027353E+02 0.  0.
          5    1    3    3  501    0  0.28217550033E+02  0.17075460486E+02 -0.22246949124E+02  0.40060182550E+02  0.47000000000E+01 0. -1.
        -13    1    4    4    0    0 -0.36467145295E+02 -0.43373190385E+02 -0.82879562005E+02  0.10039974167E+03  0.00000000000E+00 0.  1.
         14    1    4    4    0    0 -0.29286865051E+02 -0.56001025486E+02 -0.35343950613E+03  0.35904501085E+03  0.00000000000E+00 0. -1.
         -5    1    5    5    0  502  0.52691527441E+02 -0.12129648120E+02 -0.10627618096E+01  0.54283928471E+02  0.47000000000E+01 0.  1.
         11    1    6    6    0    0  0.63800168848E+01  0.14029299899E+02  0.89156266412E+01  0.17804894538E+02  0.00000000000E+00 0. -1.
        -12    1    6    6    0    0 -0.21535084012E+02  0.80399103607E+02 -0.14139373275E+03  0.16407304278E+03  0.00000000000E+00 0.  1.
</event>
<event>
12    1  0.8251070E-002  0.1838210E+03  0.7818608E-02  0.1164460E+00
         21   -1    0    0  501  502  0.00000000000E+00  0.00000000000E+00  0.30592650662E+04  0.30592650662E+04  0.00000000000E+00 0. -1.
         21   -1    0    0  502  503 -0.00000000000E+00 -0.00000000000E+00 -0.11292769301E+02  0.11292769301E+02  0.00000000000E+00 0. -1.
         -6    2    1    2    0  503  0.61475062091E+02  0.13085407750E+02  0.17895773555E+04  0.17989934082E+04  0.17274188893E+03 0.  0.
        -24    2    3    3    0    0  0.29844512918E+02 -0.11356351980E+02  0.41918638489E+03  0.42801149962E+03  0.80355191796E+02 0.  0.
          6    2    1    2  501    0 -0.61475062091E+02 -0.13085407750E+02  0.12583949414E+04  0.12715644273E+04  0.17137051421E+03 0.  0.
         24    2    5    5    0    0 -0.69596440412E+02  0.40867247344E+02  0.10159297312E+04  0.10229918747E+04  0.88799552206E+02 0.  0.
          5    1    5    5  501    0  0.81213783210E+01 -0.53952655093E+02  0.24246521015E+03  0.24857255261E+03  0.47000000000E+01 0. -1.
        -13    1    6    6    0    0  0.46917778567E+01 -0.18047833892E+02  0.74446663860E+02  0.76746614568E+02  0.00000000000E+00 0.  1.
         14    1    6    6    0    0 -0.74288218269E+02  0.58915081235E+02  0.94148306735E+03  0.94624526011E+03  0.00000000000E+00 0. -1.
         -5    1    3    3    0  503  0.31630549173E+02  0.24441759730E+02  0.13703909707E+04  0.13709819086E+04  0.47000000000E+01 0.  1.
         13    1    4    4    0    0  0.19684486135E+02 -0.39821149880E+02  0.34585400158E+03  0.34869498618E+03  0.00000000000E+00 0. -1.
        -14    1    4    4    0    0  0.10160026783E+02  0.28464797900E+02  0.73332383303E+02  0.79316513442E+02  0.00000000000E+00 0.  1.
</event>
<event>
12    1  0.8251070E-002  0.2295615E+03  0.7818608E-02  0.1127176E+00
         21   -1    0    0  501  502  0.00000000000E+00  0.00000000000E+00  0.12052786095E+03  0.12052786095E+03  0.00000000000E+00 0. -1.
         21   -1    0    0  502  503 -0.00000000000E+00 -0.00000000000E+00 -0.55331964622E+03  0.55331964622E+03  0.00000000000E+00 0. -1.
         -6    2    1    2    0  503  0.15076363628E+03  0.16235265077E+02 -0.37185823667E+03  0.43633669616E+03  0.17063969756E+03 0.  0.
        -24    2    3    3    0    0  0.10467219312E+03  0.33939768283E+02 -0.12604574925E+03  0.18557039153E+03  0.80253744006E+02 0.  0.
          6    2    1    2  501    0 -0.15076363628E+03 -0.16235265077E+02 -0.60933548602E+02  0.23751081100E+03  0.17235205291E+03 0.  0.
         24    2    5    5    0    0 -0.53574190517E+02  0.47015929146E+01 -0.90844418704E+02  0.13358347803E+03  0.81850707552E+02 0.  0.
          5    1    5    5  501    0 -0.97189445759E+02 -0.20936857991E+02  0.29910870102E+02  0.10392733298E+03  0.47000000000E+01 0. -1.
        -11    1    6    6    0    0 -0.11257111764E+02  0.23848634369E+02  0.52163415579E+01  0.26882896901E+02  0.00000000000E+00 0.  1.
         12    1    6    6    0    0 -0.42317078753E+02 -0.19147041455E+02 -0.96060760262E+02  0.10670058113E+03  0.00000000000E+00 0. -1.
         -5    1    3    3    0  503  0.46091443160E+02 -0.17704503206E+02 -0.24581248742E+03  0.25076630463E+03  0.47000000000E+01 0.  1.
         11    1    4    4    0    0  0.22316032745E+02  0.24759604298E+02 -0.88549974679E+02  0.94615756289E+02  0.00000000000E+00 0. -1.
        -12    1    4    4    0    0  0.82356160370E+02  0.91801639847E+01 -0.37495774572E+02  0.90954635244E+02  0.00000000000E+00 0.  1.
</event>
<event>
12    1  0.8251070E-002  0.1737381E+03  0.7818608E-02  0.1174082E+00
         21   -1    0    0  501  502  0.00000000000E+00  0.00000000000E+00  0.14387286213E+03  0.14387286213E+03  0.00000000000E+00 0. -1.
         21   -1    0    0  502  503 -0.00000000000E+00 -0.00000000000E+00 -0.41322271057E+03  0.41322271057E+03  0.00000000000E+00 0. -1.
         -6    2    1    2    0  503  0.39670123902E+01  0.23246191587E+02 -0.33022695960E+03  0.37300065760E+03  0.17182410516E+03 0.  0.
        -24    2    3    3    0    0 -0.58263519744E+00  0.31087557912E+02 -0.34460394746E+03  0.35536619989E+03  0.81033818242E+02 0.  0.
          6    2    1    2  501    0 -0.39670123902E+01 -0.23246191587E+02  0.60877111157E+02  0.18409491510E+03  0.17213016148E+03 0.  0.
         24    2    5    5    0    0  0.31665436714E+02 -0.72249663099E+02  0.27521805068E+02  0.11477191680E+03  0.78691990897E+02 0.  0.
          5    1    5    5  501    0 -0.35632449104E+02  0.49003471512E+02  0.33355306089E+02  0.69322998303E+02  0.47000000000E+01 0. -1.
        -13    1    6    6    0    0  0.22223657615E+02 -0.74279826618E+02  0.48655961288E+02  0.91535709802E+02  0.00000000000E+00 0.  1.
         14    1    6    6    0    0  0.94417790987E+01  0.20301635186E+01 -0.21134156220E+02  0.23236206997E+02  0.00000000000E+00 0. -1.
         -5    1    3    3    0  503  0.45496475877E+01 -0.78413663242E+01  0.14376987857E+02  0.17634457713E+02  0.47000000000E+01 0.  1.
         11    1    4    4    0    0  0.14996857299E+02  0.48172150462E+02 -0.30776072831E+03  0.31186876679E+03  0.00000000000E+00 0. -1.
        -12    1    4    4    0    0 -0.15579492496E+02 -0.17084592550E+02 -0.36843219151E+02  0.43497433102E+02  0.00000000000E+00 0.  1.
</event>
<event>
12    1  0.8251070E-002  0.2627461E+03  0.7818608E-02  0.1105541E+00
         21   -1    0    0  501  502  0.00000000000E+00  0.00000000000E+00  0.15442852587E+03  0.15442852587E+03  0.00000000000E+00 0.  1.
         21   -1    0    0  502  503 -0.00000000000E+00 -0.00000000000E+00 -0.45241342532E+03  0.45241342532E+03  0.00000000000E+00 0.  1.
         -6    2    1    2    0  503 -0.11139622623E+03  0.16419523315E+03 -0.11457411238E+03  0.28641249456E+03  0.17185952404E+03 0.  0.
        -24    2    3    3    0    0 -0.42963128674E+01  0.27153181199E+02 -0.14807433723E+02  0.85847304118E+02  0.79967155616E+02 0.  0.
          6    2    1    2  501    0  0.11139622623E+03 -0.16419523315E+03 -0.18341078708E+03  0.32042945663E+03  0.17223915366E+03 0.  0.
         24    2    5    5    0    0  0.13496949248E+03 -0.92388520485E+02 -0.97406241906E+02  0.20583986437E+03  0.78292216619E+02 0.  0.
          5    1    5    5  501    0 -0.23573266244E+02 -0.71806712665E+02 -0.86004545169E+02  0.11458959226E+03  0.47000000000E+01 0. -1.
        -11    1    6    6    0    0  0.85118965343E+02 -0.27314774451E+02 -0.16964381502E+02  0.90989699440E+02  0.00000000000E+00 0.  1.
         12    1    6    6    0    0  0.49850527135E+02 -0.65073746034E+02 -0.80441860404E+02  0.11485016493E+03  0.00000000000E+00 0. -1.
         -5    1    3    3    0  503 -0.10709991337E+03  0.13704205195E+03 -0.99766678658E+02  0.20056519044E+03  0.47000000000E+01 0.  1.
         11    1    4    4    0    0  0.17874227844E+02  0.50230357620E+01 -0.41004125415E+02  0.45011745249E+02  0.00000000000E+00 0. -1.
        -12    1    4    4    0    0 -0.22170540712E+02  0.22130145437E+02  0.26196691692E+02  0.40835558869E+02  0.00000000000E+00 0.  1.
</event>
<event>
12    1  0.8251070E-002  0.1744860E+03  0.7818608E-02  0.1173600E+00
         21   -1    0    0  503  502  0.00000000000E+00  0.00000000000E+00  0.58210393511E+02  0.58210393511E+02  0.00000000000E+00 0. -1.
         21   -1    0    0  501  503 -0.00000000000E+00 -0.00000000000E+00 -0.61391252361E+03  0.61391252361E+03  0.00000000000E+00 0. -1.
          6    2    1    2  501    0 -0.19903503750E+02  0.22754660526E+02 -0.41101852747E+03  0.44652165193E+03  0.17184711717E+03 0.  0.
         24    2    3    3    0    0  0.11329267129E+02  0.75202796094E+02 -0.21427365140E+03  0.24047085925E+03  0.78289358356E+02 0.  0.
         -6    2    1    2    0  502  0.19903503750E+02 -0.22754660526E+02 -0.14468360263E+03  0.22560126519E+03  0.17043668018E+03 0.  0.
        -24    2    5    5    0    0 -0.44979487761E+02  0.21929806053E+02 -0.10479272340E+03  0.13717120025E+03  0.73009263704E+02 0.  0.
          5    1    3    3  501    0 -0.31232770879E+02 -0.52448135567E+02 -0.19674487607E+03  0.20605079268E+03  0.47000000000E+01 0. -1.
        -13    1    4    4    0    0  0.18098383276E+02  0.38459875072E+02 -0.28971750315E+02  0.51440021229E+02  0.00000000000E+00 0.  1.
         14    1    4    4    0    0 -0.67691161466E+01  0.36742921022E+02 -0.18530190108E+03  0.18903083802E+03  0.00000000000E+00 0. -1.
         -5    1    5    5    0  502  0.64882991511E+02 -0.44684466579E+02 -0.39890879227E+02  0.88430064947E+02  0.47000000000E+01 0.  1.
         13    1    6    6    0    0  0.17760986982E+02 -0.68794563927E+01 -0.17393940077E+02  0.25793966935E+02  0.00000000000E+00 0. -1.
        -14    1    6    6    0    0 -0.62740474744E+02  0.28809262446E+02 -0.87398783322E+02  0.11137723331E+03  0.00000000000E+00 0.  1.
</event>
<event>
12    1  0.8251070E-002  0.2392516E+03  0.7818608E-02  0.1123587E+00
         21   -1    0    0  501  502  0.00000000000E+00  0.00000000000E+00  0.86503194062E+03  0.86503194062E+03  0.00000000000E+00 0. -1.
         21   -1    0    0  502  503 -0.00000000000E+00 -0.00000000000E+00 -0.44024992990E+03  0.44024992990E+03  0.00000000000E+00 0. -1.
         -6    2    1    2    0  503  0.13049287623E+03 -0.52187709647E+02 -0.39202411591E+03  0.45926486537E+03  0.19362169640E+03 0.  0.
        -24    2    3    3    0    0 -0.10229179069E+01 -0.38226538166E+02 -0.78587273998E+02  0.11903543941E+03  0.80815602579E+02 0.  0.
          6    2    1    2  501    0 -0.13049287623E+03  0.52187709647E+02  0.81680612663E+03  0.84601700516E+03  0.16976624142E+03 0.  0.
         24    2    5    5    0    0 -0.87275598159E+02 -0.27690379378E+02  0.35631698150E+03  0.37663380880E+03  0.80668751618E+02 0.  0.
          5    1    5    5  501    0 -0.43217278068E+02  0.79878089024E+02  0.46048914514E+03  0.46938319635E+03  0.47000000000E+01 0. -1.
        -11    1    6    6    0    0 -0.35764057946E+02  0.21430684497E+02  0.68886887133E+02  0.80521706996E+02  0.00000000000E+00 0.  1.
         12    1    6    6    0    0 -0.51511540214E+02 -0.49121063875E+02  0.28743009436E+03  0.29611210181E+03  0.00000000000E+00 0. -1.
         -5    1    3    3    0  503  0.13151579413E+03 -0.13961171480E+02 -0.31343684192E+03  0.34022942596E+03  0.47000000000E+01 0.  1.
         13    1    4    4    0    0  0.10470649395E+02 -0.61549467396E+02 -0.63121641102E+02  0.88782391333E+02  0.00000000000E+00 0. -1.
        -14    1    4    4    0    0 -0.11493567302E+02  0.23322929229E+02 -0.15465632897E+02  0.30253048079E+02  0.00000000000E+00 0.  1.
</event>
<event>
12    1  0.8251070E-002  0.1849525E+03  0.7818608E-02  0.1163113E+00
         21   -1    0    0  503  502  0.00000000000E+00  0.00000000000E+00  0.66146606889E+03  0.66146606889E+03  0.00000000000E+00 0. -1.
         21   -1    0    0  501  503 -0.00000000000E+00 -0.00000000000E+00 -0.30443832778E+03  0.30443832778E+03  0.00000000000E+00 0. -1.
          6    2    1    2  501    0  0.64758997477E+02 -0.23888927761E+02 -0.26153709087E+03  0.32028077235E+03  0.17150426994E+03 0.  0.
         24    2    3    3    0    0 -0.28130443666E+02  0.16453669214E+02 -0.12679095410E+03  0.15165519664E+03  0.76559176688E+02 0.  0.
         -6    2    1    2    0  502 -0.64758997477E+02  0.23888927761E+02  0.61856483198E+03  0.64562362432E+03  0.17158963922E+03 0.  0.
        -24    2    5    5    0    0 -0.93339423562E+02  0.35357581115E+02  0.58926858162E+03  0.60285995925E+03  0.78995333059E+02 0.  0.
          5    1    3    3  501    0  0.92889441144E+02 -0.40342596975E+02 -0.13474613677E+03  0.16862557570E+03  0.47000000000E+01 0. -1.
        -13    1    4    4    0    0  0.17192677476E+02 -0.17440800093E+02 -0.23862816098E+02  0.34193620148E+02  0.00000000000E+00 0.  1.
         14    1    4    4    0    0 -0.45323121142E+02  0.33894469307E+02 -0.10292813800E+03  0.11746157649E+03  0.00000000000E+00 0. -1.
         -5    1    5    5    0  502  0.28580426085E+02 -0.11468653354E+02  0.29296250362E+02  0.42763665070E+02  0.47000000000E+01 0.  1.
         13    1    6    6    0    0 -0.19033662929E+02  0.45031535931E+02  0.16758949593E+03  0.17457479400E+03  0.00000000000E+00 0. -1.
        -14    1    6    6    0    0 -0.74305760633E+02 -0.96739548162E+01  0.42167908568E+03  0.42828516524E+03  0.00000000000E+00 0.  1.
</event>
<event>
12    1  0.8251070E-002  0.2733416E+03  0.7818608E-02  0.1099559E+00
         21   -1    0    0  501  502  0.00000000000E+00  0.00000000000E+00  0.15414113477E+03  0.15414113477E+03  0.00000000000E+00 0.  1.
         21   -1    0    0  502  503 -0.00000000000E+00 -0.00000000000E+00 -0.49032396202E+03  0.49032396202E+03  0.00000000000E+00 0. -1.
         -6    2    1    2    0  503 -0.10676601092E+03 -0.18134616151E+03 -0.20840195364E+03  0.34273082033E+03  0.17247501135E+03 0.  0.
        -24    2    3    3    0    0 -0.14393282334E+03 -0.14027541767E+03 -0.17541248961E+03  0.27808894007E+03  0.78549771763E+02 0.  0.
          6    2    1    2  501    0  0.10676601092E+03  0.18134616151E+03 -0.12778087360E+03  0.30173427645E+03  0.17444257091E+03 0.  0.
         24    2    5    5    0    0  0.12000929965E+03  0.14796394880E+03 -0.15337615571E+03  0.25738379406E+03  0.80166140960E+02 0.  0.
          5    1    5    5  501    0 -0.13243288737E+02  0.33382212712E+02  0.25595282109E+02  0.44350482392E+02  0.47000000000E+01 0. -1.
        -13    1    6    6    0    0  0.81831505871E+02  0.44440080248E+02 -0.47800887276E+02  0.10467206366E+03  0.00000000000E+00 0.  1.
         14    1    6    6    0    0  0.38177793783E+02  0.10352386855E+03 -0.10557526844E+03  0.15271173041E+03  0.00000000000E+00 0. -1.
         -5    1    3    3    0  503  0.37166812424E+02 -0.41070743845E+02 -0.32989464037E+02  0.64641880257E+02  0.47000000000E+01 0.  1.
         11    1    4    4    0    0 -0.12157568491E+03 -0.75705165765E+02 -0.91836821409E+02  0.17013500830E+03  0.00000000000E+00 0. -1.
        -12    1    4    4    0    0 -0.22357138435E+02 -0.64570251901E+02 -0.83575668199E+02  0.10795393177E+03  0.00000000000E+00 0.  1.
</event>
<event>
12    1  0.8251070E-002  0.2920431E+03  0.7818608E-02  0.1089350E+00
         21   -1    0    0  503  502  0.00000000000E+00  0.00000000000E+00  0.26846648052E+03  0.26846648052E+03  0.00000000000E+00 0. -1.
         21   -1    0    0  501  503 -0.00000000000E+00 -0.00000000000E+00 -0.13151720569E+04  0.13151720569E+04  0.00000000000E+00 0. -1.
          6    2    1    2  501    0 -0.11437549799E+03  0.20571154985E+03 -0.12130143219E+04  0.12475615279E+04  0.17206691871E+03 0.  0.
         24    2    3    3    0    0 -0.25028695646E+02  0.17251325051E+03 -0.72152317526E+03  0.74689136165E+03  0.82847790880E+02 0.  0.
         -6    2    1    2    0  502  0.11437549799E+03 -0.20571154985E+03  0.16630874547E+03  0.33607700955E+03  0.17288771284E+03 0.  0.
        -24    2    5    5    0    0 -0.88481767789E+01 -0.49222585662E+02  0.65795519571E+02  0.11292264927E+03  0.76950121187E+02 0.  0.
          5    1    3    3  501    0 -0.89346802341E+02  0.33198299337E+02 -0.49149114659E+03  0.50067016622E+03  0.47000000000E+01 0. -1.
        -11    1    4    4    0    0 -0.50263698773E+02  0.83446356866E+02 -0.43542499954E+03  0.44618904526E+03  0.00000000000E+00 0.  1.
         12    1    4    4    0    0  0.25235003128E+02  0.89066893646E+02 -0.28609817572E+03  0.30070231638E+03  0.00000000000E+00 0. -1.
         -5    1    5    5    0  502  0.12322367477E+03 -0.15648896419E+03  0.10051322589E+03  0.22315436029E+03  0.47000000000E+01 0.  1.
         11    1    6    6    0    0  0.48539860386E+01 -0.84433802101E+01  0.69093699992E+02  0.69776724116E+02  0.00000000000E+00 0. -1.
        -12    1    6    6    0    0 -0.13702162818E+02 -0.40779205452E+02 -0.32981804206E+01  0.43145925152E+02  0.00000000000E+00 0.  1.
</event>
<event>
12    1  0.8251070E-002  0.1998504E+03  0.7818608E-02  0.1150055E+00
         21   -1    0    0  501  502  0.00000000000E+00  0.00000000000E+00  0.37325250221E+03  0.37325250221E+03  0.00000000000E+00 0.  1.
         21   -1    0    0  502  503 -0.00000000000E+00 -0.00000000000E+00 -0.15546057569E+03  0.15546057569E+03  0.00000000000E+00 0.  1.
         -6    2    1    2    0  503 -0.65023778567E+02 -0.75869045556E+02 -0.39252566824E+02  0.20366872564E+03  0.17307796495E+03 0.  0.
        -24    2    3    3    0    0 -0.33496674577E+02  0.23418975505E+02  0.53811794853E+01  0.90238876303E+02  0.80272175019E+02 0.  0.
          6    2    1    2  501    0  0.65023778567E+02  0.75869045556E+02  0.25704449334E+03  0.32504435226E+03  0.17203998235E+03 0.  0.
         24    2    5    5    0    0  0.43318373338E+02 -0.60802212384E+01  0.53413919936E+02  0.10442180724E+03  0.78341664685E+02 0.  0.
          5    1    5    5  501    0  0.21705405228E+02  0.81949266794E+02  0.20363057341E+03  0.22062254502E+03  0.47000000000E+01 0. -1.
        -11    1    6    6    0    0  0.51211507325E+02  0.19146269683E+02  0.55500565918E+02  0.77907066063E+02  0.00000000000E+00 0.  1.
         12    1    6    6    0    0 -0.78931339870E+01 -0.25226490921E+02 -0.20866459817E+01  0.26514741179E+02  0.00000000000E+00 0. -1.
         -5    1    3    3    0  503 -0.31527103989E+02 -0.99288021060E+02 -0.44633746310E+02  0.11342984934E+03  0.47000000000E+01 0.  1.
         13    1    4    4    0    0  0.11805700117E+02 -0.21859876197E+02 -0.50285343957E+01  0.25347877639E+02  0.00000000000E+00 0. -1.
        -14    1    4    4    0    0 -0.45302374695E+02  0.45278851702E+02  0.10409713881E+02  0.64890998664E+02  0.00000000000E+00 0.  1.
</event>
<event>
12    1  0.8251070E-002  0.2722089E+03  0.7818608E-02  0.1100030E+00
         21   -1    0    0  501  502  0.00000000000E+00  0.00000000000E+00  0.35792862832E+03  0.35792862832E+03  0.00000000000E+00 0.  1.
         21   -1    0    0  502  503 -0.00000000000E+00 -0.00000000000E+00 -0.20706858744E+03  0.20706858744E+03  0.00000000000E+00 0.  1.
         -6    2    1    2    0  503 -0.20809631186E+03  0.25986427959E+02  0.81407894560E+02  0.28406785898E+03  0.17345873793E+03 0.  0.
        -24    2    3    3    0    0 -0.10121423836E+03 -0.50816656562E+02  0.58933610317E+02  0.15046518356E+03  0.79623780422E+02 0.  0.
          6    2    1    2  501    0  0.20809631186E+03 -0.25986427959E+02  0.69452146327E+02  0.28092935677E+03  0.17354634373E+03 0.  0.
         24    2    5    5    0    0  0.11764604737E+03 -0.37834833530E+02  0.10697930158E+03  0.18217707861E+03  0.80447808644E+02 0.  0.
          5    1    5    5  501    0  0.90450264488E+02  0.11848405571E+02 -0.37527155252E+02  0.98752278160E+02  0.47000000000E+01 0. -1.
        -11    1    6    6    0    0  0.11109633997E+03 -0.38282074255E+02  0.54924141969E+02  0.12970958074E+03  0.00000000000E+00 0.  1.
         12    1    6    6    0    0  0.65497073995E+01  0.44724072440E+00  0.52055159610E+02  0.52467497875E+02  0.00000000000E+00 0. -1.
         -5    1    3    3    0  503 -0.10688207350E+03  0.76803084521E+02  0.22474284243E+02  0.13360267542E+03  0.47000000000E+01 0.  1.
         11    1    4    4    0    0  0.70648977274E+00  0.16034967960E+02  0.11155260634E+02  0.19546333802E+02  0.00000000000E+00 0. -1.
        -12    1    4    4    0    0 -0.10192072813E+03 -0.66851624522E+02  0.47778349683E+02  0.13091884976E+03  0.00000000000E+00 0.  1.
</event>
<event>
12    1  0.8251070E-002  0.1949430E+03  0.7818608E-02  0.1154678E+00
         21   -1    0    0  501  502  0.00000000000E+00  0.00000000000E+00  0.80553487530E+03  0.80553487530E+03  0.00000000000E+00 0. -1.
         21   -1    0    0  502  503 -0.00000000000E+00 -0.00000000000E+00 -0.53419125406E+02  0.53419125406E+02  0.00000000000E+00 0.  1.
         -6    2    1    2    0  503 -0.23040404339E+02 -0.84073685543E+02  0.22400209933E+03  0.29695068481E+03  0.17436606284E+03 0.  0.
        -24    2    3    3    0    0 -0.34824789214E+02 -0.10681525271E+03  0.23527217391E+03  0.26857542825E+03  0.64478684004E+02 0.  0.
          6    2    1    2  501    0  0.23040404339E+02  0.84073685543E+02  0.52811365056E+03  0.56200331590E+03  0.17130223098E+03 0.  0.
         24    2    5    5    0    0 -0.32852918779E+02  0.10158133344E+03  0.36252238111E+03  0.38629577530E+03  0.80024169069E+02 0.  0.
          5    1    5    5  501    0  0.55893323118E+02 -0.17507647894E+02  0.16559126945E+03  0.17570754060E+03  0.47000000000E+01 0. -1.
        -13    1    6    6    0    0  0.75624970024E+01  0.65847031757E+02  0.11296292867E+03  0.13097192907E+03  0.00000000000E+00 0.  1.
         14    1    6    6    0    0 -0.40415415781E+02  0.35734301679E+02  0.24955945244E+03  0.25532384623E+03  0.00000000000E+00 0. -1.
         -5    1    3    3    0  503  0.11784384875E+02  0.22741567162E+02 -0.11270074573E+02  0.28375256558E+02  0.47000000000E+01 0.  1.
         13    1    4    4    0    0  0.72721813484E+01 -0.33139904664E+02  0.12448695506E+03  0.12902767100E+03  0.00000000000E+00 0. -1.
        -14    1    4    4    0    0 -0.42096970563E+02 -0.73675348041E+02  0.11078521884E+03  0.13954775725E+03  0.00000000000E+00 0.  1.
</event>
<event>
12    1  0.8251070E-002  0.2087161E+03  0.7818608E-02  0.1142869E+00
         21   -1    0    0  501  502  0.00000000000E+00  0.00000000000E+00  0.45537777395E+03  0.45537777395E+03  0.00000000000E+00 0.  1.
         21   -1    0    0  502  503 -0.00000000000E+00 -0.00000000000E+00 -0.10935096312E+03  0.10935096312E+03  0.00000000000E+00 0. -1.
         -6    2    1    2    0  503 -0.26189739245E+02 -0.11226931082E+03  0.70273457189E+02  0.21889306073E+03  0.17229484223E+03 0.  0.
        -24    2    3    3    0    0 -0.74629151104E+02 -0.35652648312E+02  0.46771334530E+02  0.12513310465E+03  0.81425515778E+02 0.  0.
          6    2    1    2  501    0  0.26189739245E+02  0.11226931082E+03  0.27575335364E+03  0.34583567634E+03  0.17398879962E+03 0.  0.
         24    2    5    5    0    0  0.78302921032E+02  0.10702496621E+03  0.22471505675E+03  0.27255345055E+03  0.78758084321E+02 0.  0.
          5    1    5    5  501    0 -0.52113181787E+02  0.52443446102E+01  0.51038296895E+02  0.73282225787E+02  0.47000000000E+01 0. -1.
        -11    1    6    6    0    0  0.19589084128E+02  0.69897696831E+01  0.10038586490E+03  0.10251785683E+03  0.00000000000E+00 0.  1.
         12    1    6    6    0    0  0.58713836904E+02  0.10003519653E+03  0.12432919185E+03  0.17003559372E+03  0.00000000000E+00 0. -1.
         -5    1    3    3    0  503  0.48439411859E+02 -0.76616662507E+02  0.23502122659E+02  0.93759956082E+02  0.47000000000E+01 0.  1.
         11    1    4    4    0    0 -0.68368109009E+02 -0.31191385475E+02 -0.25751927400E+01  0.75191305847E+02  0.00000000000E+00 0. -1.
        -12    1    4    4    0    0 -0.62610420953E+01 -0.44612628364E+01  0.49346527270E+02  0.49941798804E+02  0.00000000000E+00 0.  1.
</event>
<event>
12    1  0.8251070E-002  0.1714539E+03  0.7818608E-02  0.1176522E+00
         21   -1    0    0  503  502  0.00000000000E+00  0.00000000000E+00  0.96076846511E+02  0.96076846511E+02  0.00000000000E+00 0. -1.
         21   -1    0    0  501  503 -0.00000000000E+00 -0.00000000000E+00 -0.56477413943E+03  0.56477413943E+03  0.00000000000E+00 0. -1.
          6    2    1    2  501    0 -0.11502315331E+02  0.12290840197E+01 -0.45882817201E+03  0.48981602151E+03  0.17106323274E+03 0.  0.
         24    2    3    3    0    0 -0.53997499350E+02  0.44223717230E+02 -0.22751415327E+03  0.25068709307E+03  0.78802675046E+02 0.  0.
         -6    2    1    2    0  502  0.11502315331E+02 -0.12290840197E+01 -0.98691209140E+01  0.17103496443E+03  0.17035769899E+03 0.  0.
        -24    2    5    5    0    0 -0.20167408427E+02  0.31522449173E+02  0.45215897567E+02  0.99396402259E+02  0.80217069410E+02 0.  0.
          5    1    3    3  501    0  0.42495184019E+02 -0.42994633210E+02 -0.23131401874E+03  0.23912892844E+03  0.47000000000E+01 0. -1.
        -13    1    4    4    0    0 -0.53879363242E+02  0.29739277330E+02 -0.72932595574E+02  0.95428370501E+02  0.00000000000E+00 0.  1.
         14    1    4    4    0    0 -0.11813610768E+00  0.14484439900E+02 -0.15458155769E+03  0.15525872257E+03  0.00000000000E+00 0. -1.
         -5    1    5    5    0  502  0.31669723758E+02 -0.32751533193E+02 -0.55085018481E+02  0.71638562174E+02  0.47000000000E+01 0.  1.
         13    1    6    6    0    0 -0.19712716182E+02 -0.22429000385E+02  0.32161154724E+02  0.43886115238E+02  0.00000000000E+00 0. -1.
        -14    1    6    6    0    0 -0.45469224438E+00  0.53951449558E+02  0.13054742843E+02  0.55510287021E+02  0.00000000000E+00 0.  1.
</event>
<event>
12    1  0.8251070E-002  0.1748145E+03  0.7818608E-02  0.1173316E+00
         21   -1    0    0  501  502  0.00000000000E+00  0.00000000000E+00  0.60685789707E+02  0.60685789707E+02  0.00000000000E+00 0. -1.
         21   -1    0    0  502  503 -0.00000000000E+00 -0.00000000000E+00 -0.70460821182E+03  0.70460821182E+03  0.00000000000E+00 0. -1.
         -6    2    1    2    0  503 -0.27917100546E+02 -0.11008882907E+02 -0.52966676682E+03  0.55776964931E+03  0.17221944665E+03 0.  0.
        -24    2    3    3    0    0 -0.38738329521E+01 -0.58674254987E+02 -0.19522521698E+03  0.21906135789E+03  0.80108166853E+02 0.  0.
          6    2    1    2  501    0  0.27917100546E+02  0.11008882907E+02 -0.11425565529E+03  0.20752435222E+03  0.17062075487E+03 0.  0.
         24    2    5    5    0    0  0.47880472008E+02  0.52720549940E+02 -0.32346842567E+02  0.11334610118E+03  0.82030631131E+02 0.  0.
          5    1    5    5  501    0 -0.19963371463E+02 -0.41711667033E+02 -0.81908812726E+02  0.94178251040E+02  0.47000000000E+01 0. -1.
        -11    1    6    6    0    0  0.61429032793E+00  0.15640518459E+02 -0.48643472152E+02  0.51099809719E+02  0.00000000000E+00 0.  1.
         12    1    6    6    0    0  0.47266181680E+02  0.37080031481E+02  0.16296629585E+02  0.62246291465E+02  0.00000000000E+00 0. -1.
         -5    1    3    3    0  503 -0.24043267593E+02  0.47665372079E+02 -0.33444154984E+03  0.33870829141E+03  0.47000000000E+01 0.  1.
         11    1    4    4    0    0 -0.37959724921E+02 -0.31830605443E+02 -0.14199812435E+03  0.15039147408E+03  0.00000000000E+00 0. -1.
        -12    1    4    4    0    0  0.34085891969E+02 -0.26843649544E+02 -0.53227092636E+02  0.68669883811E+02  0.00000000000E+00 0.  1.
</event>
<event>
12    1  0.8251070E-002  0.1849277E+03  0.7818608E-02  0.1163283E+00
         21   -1    0    0  501  502  0.00000000000E+00  0.00000000000E+00  0.61894769343E+03  0.61894769343E+03  0.00000000000E+00 0.  1.
         21   -1    0    0  502  503 -0.00000000000E+00 -0.00000000000E+00 -0.80192408860E+02  0.80192408860E+02  0.00000000000E+00 0.  1.
         -6    2    1    2    0  503  0.47587323001E+02  0.47893803978E+02  0.73962184023E+02  0.19916996459E+03  0.17216242436E+03 0.  0.
        -24    2    3    3    0    0 -0.21508648054E+02  0.51492465247E+02  0.37146992392E+01  0.10045824950E+03  0.83450374373E+02 0.  0.
          6    2    1    2  501    0 -0.47587323001E+02 -0.47893803978E+02  0.46479310054E+03  0.49997013769E+03  0.17140344951E+03 0.  0.
         24    2    5    5    0    0 -0.54862048361E+02 -0.74702850389E+02  0.45319940912E+03  0.46950457879E+03  0.80339808745E+02 0.  0.
          5    1    5    5  501    0  0.72747253606E+01  0.26809046411E+02  0.11593691421E+02  0.30465558904E+02  0.47000000000E+01 0. -1.
        -11    1    6    6    0    0  0.20864392510E+02 -0.10422250795E+02  0.84596257358E+02  0.87752338689E+02  0.00000000000E+00 0.  1.
         12    1    6    6    0    0 -0.75726440872E+02 -0.64280599594E+02  0.36860315176E+03  0.38175224010E+03  0.00000000000E+00 0. -1.
         -5    1    3    3    0  503  0.69095971055E+02 -0.35986612687E+01  0.70247484784E+02  0.98711715097E+02  0.47000000000E+01 0.  1.
         13    1    4    4    0    0 -0.45730510505E+02  0.14989982813E+02  0.22090427272E+02  0.52952489581E+02  0.00000000000E+00 0. -1.
        -14    1    4    4    0    0  0.24221862450E+02  0.36502482434E+02 -0.18375728033E+02  0.47505759915E+02  0.00000000000E+00 0.  1.
</event>
<event>
12    1  0.8251070E-002  0.1936465E+03  0.7818608E-02  0.1155701E+00
         21   -1    0    0  503  502  0.00000000000E+00  0.00000000000E+00  0.10803880438E+04  0.10803880438E+04  0.00000000000E+00 0.  1.
         21   -1    0    0  501  503 -0.00000000000E+00 -0.00000000000E+00 -0.40456083711E+02  0.40456083711E+02  0.00000000000E+00 0.  1.
          6    2    1    2  501    0 -0.56337809349E+02 -0.63821727934E+02  0.74084966779E+03  0.76573963208E+03  0.17393042330E+03 0.  0.
         24    2    3    3    0    0 -0.42489248138E+02 -0.78155141659E+02  0.25885747018E+03  0.28331264490E+03  0.73111575822E+02 0.  0.
         -6    2    1    2    0  502  0.56337809349E+02  0.63821727934E+02  0.29908229227E+03  0.35510449540E+03  0.17146959902E+03 0.  0.
        -24    2    5    5    0    0 -0.29498948236E+02  0.38285391179E+02  0.20542454841E+03  0.22543600875E+03  0.79285495673E+02 0.  0.
          5    1    3    3  501    0 -0.13848561211E+02  0.14333413725E+02  0.48199219761E+03  0.48242698718E+03  0.47000000000E+01 0. -1.
        -11    1    4    4    0    0 -0.36200271853E+02 -0.91701856358E+02  0.23841933078E+03  0.25799896789E+03  0.00000000000E+00 0.  1.
         12    1    4    4    0    0 -0.62889762843E+01  0.13546714700E+02  0.20438139394E+02  0.25313677009E+02  0.00000000000E+00 0. -1.
         -5    1    5    5    0  502  0.85836757585E+02  0.25536336755E+02  0.93657743856E+02  0.12966848666E+03  0.47000000000E+01 0.  1.
         11    1    6    6    0    0  0.36101366036E+00  0.12520826874E+02 -0.33521831700E+01  0.12966825690E+02  0.00000000000E+00 0. -1.
        -12    1    6    6    0    0 -0.29859961897E+02  0.25764564305E+02  0.20877673158E+03  0.21246918306E+03  0.00000000000E+00 0.  1.
</event>
<event>
12    1  0.8251070E-002  0.2391774E+03  0.7818608E-02  0.1120393E+00
         21   -1    0    0  503  502  0.00000000000E+00  0.00000000000E+00  0.12324045303E+03  0.12324045303E+03  0.00000000000E+00 0.  1.
         21   -1    0    0  501  503 -0.00000000000E+00 -0.00000000000E+00 -0.72530607479E+03  0.72530607479E+03  0.00000000000E+00 0. -1.
          6    2    1    2  501    0  0.10283036581E+03  0.12990506004E+03 -0.46294965658E+02  0.24361658987E+03  0.17250046451E+03 0.  0.
         24    2    3    3    0    0  0.12264177574E+03  0.12662004087E+03 -0.74392140580E+02  0.20876225652E+03  0.83509575871E+02 0.  0.
         -6    2    1    2    0  502 -0.10283036581E+03 -0.12990506004E+03 -0.55577065610E+03  0.60492993796E+03  0.17207498044E+03 0.  0.
        -24    2    5    5    0    0 -0.12317750633E+03 -0.54062901845E+02 -0.31341817669E+03  0.35013030419E+03  0.79150369639E+02 0.  0.
          5    1    3    3  501    0 -0.19811409932E+02  0.32850191735E+01  0.28097174922E+02  0.34854333347E+02  0.47000000000E+01 0. -1.
        -13    1    4    4    0    0  0.89802206649E+02  0.51042481165E+02 -0.92275132982E+01  0.10370592174E+03  0.00000000000E+00 0.  1.
         14    1    4    4    0    0  0.32839569088E+02  0.75577559703E+02 -0.65164627281E+02  0.10505633478E+03  0.00000000000E+00 0. -1.
         -5    1    5    5    0  502  0.20347140524E+02 -0.75842158197E+02 -0.24235247942E+03  0.25479963376E+03  0.47000000000E+01 0.  1.
         11    1    6    6    0    0 -0.52475614037E+02 -0.10350957712E+01 -0.19755361236E+03  0.20440692564E+03  0.00000000000E+00 0. -1.
        -12    1    6    6    0    0 -0.70701892293E+02 -0.53027806074E+02 -0.11586456433E+03  0.14572337856E+03  0.00000000000E+00 0.  1.
</event>
<event>
12    1  0.8251070E-002  0.2308972E+03  0.7818608E-02  0.1126010E+00
         21   -1    0    0  501  502  0.00000000000E+00  0.00000000000E+00  0.33158046357E+03  0.33158046357E+03  0.00000000000E+00 0. -1.
         21   -1    0    0  502  503 -0.00000000000E+00 -0.00000000000E+00 -0.53540302366E+03  0.53540302366E+03  0.00000000000E+00 0. -1.
         -6    2    1    2    0  503 -0.30868892200E+02 -0.14933321005E+03 -0.46451678656E+03  0.51873822531E+03  0.17337879131E+03 0.  0.
        -24    2    3    3    0    0 -0.15448143685E+02 -0.62129336199E+02 -0.11251068488E+03  0.15573312794E+03  0.86576286393E+02 0.  0.
          6    2    1    2  501    0  0.30868892200E+02  0.14933321005E+03  0.26069422646E+03  0.34824526192E+03  0.17337816070E+03 0.  0.
         24    2    5    5    0    0 -0.35104927619E+02  0.84398524472E+02  0.89447539648E+02  0.15352347054E+03  0.84930128814E+02 0.  0.
          5    1    5    5  501    0  0.65973819820E+02  0.64934685575E+02  0.17124668682E+03  0.19472179138E+03  0.47000000000E+01 0. -1.
        -11    1    6    6    0    0  0.23380495895E+02  0.29906342152E+02  0.68414237993E+01  0.38572554606E+02  0.00000000000E+00 0.  1.
         12    1    6    6    0    0 -0.58485423515E+02  0.54492182320E+02  0.82606115849E+02  0.11495091593E+03  0.00000000000E+00 0. -1.
         -5    1    3    3    0  503 -0.15420748516E+02 -0.87203873847E+02 -0.35200610168E+03  0.36300509737E+03  0.47000000000E+01 0.  1.
         11    1    4    4    0    0 -0.48095602053E+02 -0.25676144685E+02 -0.80616175853E+02  0.97321216350E+02  0.00000000000E+00 0. -1.
        -12    1    4    4    0    0  0.32647458368E+02 -0.36453191514E+02 -0.31894509029E+02  0.58411911590E+02  0.00000000000E+00 0.  1.
</event>
<event>
12    1  0.8251070E-002  0.1856651E+03  0.7818608E-02  0.1162574E+00
         21   -1    0    0  501  502  0.00000000000E+00  0.00000000000E+00  0.63548965559E+02  0.63548965559E+02  0.00000000000E+00 0. -1.
         21   -1    0    0  502  503 -0.00000000000E+00 -0.00000000000E+00 -0.75692733519E+03  0.75692733519E+03  0.00000000000E+00 0.  1.
         -6    2    1    2    0  503 -0.41513369470E+01 -0.68340677631E+02 -0.12698071808E+03  0.22442441831E+03  0.17191432445E+03 0.  0.
        -24    2    3    3    0    0 -0.61846185210E+02 -0.71034130804E+02 -0.63925331139E+02  0.13878551343E+03  0.79398818716E+02 0.  0.
          6    2    1    2  501    0  0.41513369470E+01  0.68340677631E+02 -0.56639765155E+03  0.59605188244E+03  0.17258002509E+03 0.  0.
         24    2    5    5    0    0  0.17386045908E+02  0.94435393072E+02 -0.54670239271E+03  0.56046979543E+03  0.77605201740E+02 0.  0.
          5    1    5    5  501    0 -0.13234708961E+02 -0.26094715442E+02 -0.19695258842E+02  0.35582087012E+02  0.47000000000E+01 0. -1.
        -13    1    6    6    0    0  0.42480740387E+02  0.81410715120E+02 -0.46591005569E+03  0.47487313868E+03  0.00000000000E+00 0.  1.
         14    1    6    6    0    0 -0.25094694479E+02  0.13024677952E+02 -0.80792337018E+02  0.85596656755E+02  0.00000000000E+00 0. -1.
         -5    1    3    3    0  503  0.57694848263E+02  0.26934531733E+01 -0.63055386943E+02  0.85638904877E+02  0.47000000000E+01 0.  1.
         11    1    4    4    0    0  0.11742301349E+02 -0.31092034771E+02  0.33828601808E+00  0.33237188579E+02  0.00000000000E+00 0. -1.
        -12    1    4    4    0    0 -0.73588486558E+02 -0.39942096033E+02 -0.64263617157E+02  0.10554832485E+03  0.00000000000E+00 0.  1.
</event>
<event>
12    1  0.1349310E-001  0.1824606E+03  0.7818608E-02  0.1172942E+00
         21   -1    0    0  501  502  0.00000000000E+00  0.00000000000E+00  0.97998177851E+02  0.97998177851E+02  0.00000000000E+00 0.  1.
         21   -1    0    0  502  503 -0.00000000000E+00 -0.00000000000E+00 -0.28937529370E+03  0.28937529370E+03  0.00000000000E+00 0.  1.
         -6    2    1    2    0  503 -0.92555904917E+01 -0.34263990042E+02 -0.11608735669E+03  0.21625946469E+03  0.17897540254E+03 0.  0.
        -24    2    3    3    0    0 -0.42003186968E+02  0.15810694739E+02 -0.36903968626E+01  0.88842645903E+02  0.76584273310E+02 0.  0.
          6    2    1    2  501    0  0.92555904917E+01  0.34263990042E+02 -0.75289759154E+02  0.17111400686E+03  0.14950507865E+03 0.  0.
         24    2    5    5    0    0 -0.17694929848E+02  0.59701092603E+02 -0.85844575286E+02  0.13229557210E+03  0.79091695468E+02 0.  0.
          5    1    5    5  501    0  0.26950520340E+02 -0.25437102560E+02  0.10554816132E+02  0.38818434755E+02  0.47000000000E+01 0. -1.
        -13    1    6    6    0    0 -0.18512556491E+02  0.30434135685E+02  0.57966637506E+01  0.36090894605E+02  0.00000000000E+00 0.  1.
         14    1    6    6    0    0  0.81762664247E+00  0.29266956917E+02 -0.91641239036E+02  0.96204677499E+02  0.00000000000E+00 0. -1.
         -5    1    3    3    0  503  0.32747596476E+02 -0.50074684781E+02 -0.11239695983E+03  0.12741681879E+03  0.47000000000E+01 0.  1.
         11    1    4    4    0    0 -0.58478068400E+02  0.12127963350E+02 -0.22269664567E+02  0.63739390793E+02  0.00000000000E+00 0. -1.
        -12    1    4    4    0    0  0.16474881432E+02  0.36827313885E+01  0.18579267704E+02  0.25103255109E+02  0.00000000000E+00 0.  1.
</event>
<event>
12    1  0.8251070E-002  0.1977031E+03  0.7818608E-02  0.1152150E+00
         21   -1    0    0  501  502  0.00000000000E+00  0.00000000000E+00  0.22671430142E+03  0.22671430142E+03  0.00000000000E+00 0. -1.
         21   -1    0    0  502  503 -0.00000000000E+00 -0.00000000000E+00 -0.45715077684E+03  0.45715077684E+03  0.00000000000E+00 0. -1.
         -6    2    1    2    0  503 -0.65207734627E+02  0.67509402456E+02 -0.38572043893E+03  0.43246973373E+03  0.17158160015E+03 0.  0.
        -24    2    3    3    0    0 -0.52350317337E+02  0.43780514378E+02 -0.39043246079E+03  0.40467285515E+03  0.81641436099E+02 0.  0.
          6    2    1    2  501    0  0.65207734627E+02 -0.67509402456E+02  0.15528396350E+03  0.25139534454E+03  0.17400270647E+03 0.  0.
         24    2    5    5    0    0  0.45011109166E+02  0.22936720816E+02  0.11744247429E+03  0.15118320355E+03  0.80694071398E+02 0.  0.
          5    1    5    5  501    0  0.20196625460E+02 -0.90446123271E+02  0.37841489217E+02  0.10021214099E+03  0.47000000000E+01 0. -1.
        -11    1    6    6    0    0  0.38393738972E+02 -0.90590991126E+01  0.12667460328E+02  0.41432004780E+02  0.00000000000E+00 0.  1.
         12    1    6    6    0    0  0.66173701947E+01  0.31995819928E+02  0.10477501396E+03  0.10975119877E+03  0.00000000000E+00 0. -1.
         -5    1    3    3    0  503 -0.12857417290E+02  0.23728888078E+02  0.47120218658E+01  0.27796878581E+02  0.47000000000E+01 0.  1.
         13    1    4    4    0    0 -0.68909897110E+02  0.16834870937E+02 -0.21464700472E+03  0.22606486555E+03  0.00000000000E+00 0. -1.
        -14    1    4    4    0    0  0.16559579774E+02  0.26945643441E+02 -0.17578545607E+03  0.17860798960E+03  0.00000000000E+00 0.  1.
</event>
<event>
12    1  0.8251070E-002  0.2018563E+03  0.7818608E-02  0.1148264E+00
         21   -1    0    0  501  502  0.00000000000E+00  0.00000000000E+00  0.15355328748E+03  0.15355328748E+03  0.00000000000E+00 0. -1.
         21   -1    0    0  502  503 -0.00000000000E+00 -0.00000000000E+00 -0.38351378526E+03  0.38351378526E+03  0.00000000000E+00 0. -1.
         -6    2    1    2    0  503  0.17722444848E+02  0.10393405163E+03 -0.26427996721E+03  0.33231405868E+03  0.17167515949E+03 0.  0.
        -24    2    3    3    0    0  0.33901245659E+02  0.13643011406E+03 -0.23563765235E+03  0.28583589316E+03  0.80091098970E+02 0.  0.
          6    2    1    2  501    0 -0.17722444848E+02 -0.10393405163E+03  0.34319469425E+02  0.20475301407E+03  0.17213250318E+03 0.  0.
         24    2    5    5    0    0  0.36017335984E+02 -0.11382775277E+03  0.72868264992E+01  0.14360807847E+03  0.79474376804E+02 0.  0.
          5    1    5    5  501    0 -0.53739780833E+02  0.98937011441E+01  0.27032642926E+02  0.61144935602E+02  0.47000000000E+01 0. -1.
        -11    1    6    6    0    0  0.27963494943E+02  0.27428258593E+00 -0.55299035631E+01  0.28506352166E+02  0.00000000000E+00 0.  1.
         12    1    6    6    0    0  0.80538410412E+01 -0.11410203536E+03  0.12816730062E+02  0.11510172630E+03  0.00000000000E+00 0. -1.
         -5    1    3    3    0  503 -0.16178800811E+02 -0.32496062431E+02 -0.28642314855E+02  0.46478165513E+02  0.47000000000E+01 0.  1.
         13    1    4    4    0    0  0.31136131512E+02  0.35035867800E+02 -0.27615754517E+02  0.54402211495E+02  0.00000000000E+00 0. -1.
        -14    1    4    4    0    0  0.27651141470E+01  0.10139424626E+03 -0.20802189784E+03  0.23143368167E+03  0.00000000000E+00 0.  1.
</event>
<event>
12    1  0.8251070E-002  0.2285567E+03  0.7818608E-02  0.1127973E+00
         21   -1    0    0  503  502  0.00000000000E+00  0.00000000000E+00  0.25474280280E+03  0.25474280280E+03  0.00000000000E+00 0. -1.
         21   -1    0    0  501  503 -0.00000000000E+00 -0.00000000000E+00 -0.22178238936E+03  0.22178238936E+03  0.00000000000E+00 0.  1.
          6    2    1    2  501    0 -0.99285924630E+02 -0.11344599019E+03 -0.51891345210E+02  0.23437340449E+03  0.17178618543E+03 0.  0.
         24    2    3    3    0    0 -0.18111858067E+02 -0.14047040845E+02  0.27801726892E+02  0.83236195459E+02  0.75033122401E+02 0.  0.
         -6    2    1    2    0  502  0.99285924630E+02  0.11344599019E+03  0.84851758648E+02  0.24215178767E+03  0.16944019537E+03 0.  0.
        -24    2    5    5    0    0  0.12260895623E+03  0.43584461663E+02  0.53891028588E+02  0.16211895830E+03  0.80285442210E+02 0.  0.
          5    1    3    3  501    0 -0.81174066563E+02 -0.99398949341E+02 -0.79693072102E+02  0.15113720903E+03  0.47000000000E+01 0. -1.
        -11    1    4    4    0    0  0.27644705045E+02 -0.57932254045E+01 -0.14884194509E+01  0.28284387391E+02  0.00000000000E+00 0.  1.
         12    1    4    4    0    0 -0.45756563112E+02 -0.82538154403E+01  0.29290146343E+02  0.54951808068E+02  0.00000000000E+00 0. -1.
         -5    1    5    5    0  502 -0.23323031603E+02  0.69861528523E+02  0.30960730061E+02  0.80032829368E+02  0.47000000000E+01 0.  1.
         13    1    6    6    0    0  0.17215620826E+02  0.22882404766E+02  0.46305275734E+02  0.54444105366E+02  0.00000000000E+00 0. -1.
        -14    1    6    6    0    0  0.10539333541E+03  0.20702056896E+02  0.75857528542E+01  0.10767485293E+03  0.00000000000E+00 0.  1.
</event>
<event>
12    1  0.8251070E-002  0.1932637E+03  0.7818608E-02  0.1155838E+00
         21   -1    0    0  503  502  0.00000000000E+00  0.00000000000E+00  0.28740092131E+03  0.28740092131E+03  0.00000000000E+00 0. -1.
         21   -1    0    0  501  503 -0.00000000000E+00 -0.00000000000E+00 -0.12961275114E+03  0.12961275114E+03  0.00000000000E+00 0. -1.
          6    2    1    2  501    0 -0.84192504500E+02  0.58481621823E+01  0.65893330538E+02  0.20418816150E+03  0.17386286399E+03 0.  0.
         24    2    3    3    0    0  0.13233223648E+02  0.18973571208E+02 -0.66856841033E-01  0.85710800010E+02  0.82530128777E+02 0.  0.
         -6    2    1    2    0  502  0.84192504500E+02 -0.58481621823E+01  0.91894839632E+02  0.21282551095E+03  0.17241652399E+03 0.  0.
        -24    2    5    5    0    0  0.98918760285E+02 -0.84093097935E+01  0.38582298796E+00  0.11998472135E+03  0.67383580128E+02 0.  0.
          5    1    3    3  501    0 -0.97425728148E+02 -0.13125409025E+02  0.65960187379E+02  0.11847736149E+03  0.47000000000E+01 0. -1.
        -11    1    4    4    0    0  0.45872124398E+02  0.16075696156E+02  0.13187110035E+02  0.50364468376E+02  0.00000000000E+00 0.  1.
         12    1    4    4    0    0 -0.32638900751E+02  0.28978750521E+01 -0.13253966876E+02  0.35346331634E+02  0.00000000000E+00 0. -1.
         -5    1    5    5    0  502 -0.14726255785E+02  0.25611476112E+01  0.91509016644E+02  0.92840789601E+02  0.47000000000E+01 0.  1.
         11    1    6    6    0    0  0.15454162795E+02  0.44921438359E+01 -0.26800204033E+02  0.31261181042E+02  0.00000000000E+00 0. -1.
        -12    1    6    6    0    0  0.83464597489E+02 -0.12901453629E+02  0.27186027021E+02  0.88723540309E+02  0.00000000000E+00 0.  1.
</event>
<event>
12    1  0.8251070E-002  0.2728352E+03  0.7818608E-02  0.1099816E+00
         21   -1    0    0  503  502  0.00000000000E+00  0.00000000000E+00  0.73443348228E+03  0.73443348228E+03  0.00000000000E+00 0.  1.
         21   -1    0    0  501  503 -0.00000000000E+00 -0.00000000000E+00 -0.11950521036E+03  0.11950521036E+03  0.00000000000E+00 0. -1.
          6    2    1    2  501    0  0.17906706239E+03 -0.11229324777E+03  0.47513000756E+03  0.54737289582E+03  0.17086186429E+03 0.  0.
         24    2    3    3    0    0  0.13041162761E+03 -0.14600449121E+03  0.39109614525E+03  0.44447693243E+03  0.79240422531E+02 0.  0.
         -6    2    1    2    0  502 -0.17906706239E+03  0.11229324777E+03  0.13979826436E+03  0.30656579682E+03  0.17252317738E+03 0.  0.
        -24    2    5    5    0    0 -0.18110402759E+03  0.12495463412E+03  0.15993446071E+03  0.28223441102E+03  0.75265540866E+02 0.  0.
          5    1    3    3  501    0  0.48655434776E+02  0.33711243440E+02  0.84033862304E+02  0.10289596339E+03  0.47000000000E+01 0. -1.
        -13    1    4    4    0    0  0.51100674673E+02 -0.11500345888E+03  0.24257201377E+03  0.27327322659E+03  0.00000000000E+00 0.  1.
         14    1    4    4    0    0  0.79310952938E+02 -0.31001032332E+02  0.14852413149E+03  0.17120370585E+03  0.00000000000E+00 0. -1.
         -5    1    5    5    0  502  0.20369651988E+01 -0.12661386352E+02 -0.20136196349E+02  0.24331385801E+02  0.47000000000E+01 0.  1.
         11    1    6    6    0    0 -0.66697855999E+02  0.78362803529E+02  0.41049253117E+02  0.11078977459E+03  0.00000000000E+00 0. -1.
        -12    1    6    6    0    0 -0.11440617159E+03  0.46591830595E+02  0.11888520759E+03  0.17144463643E+03  0.00000000000E+00 0.  1.
</event>
<event>
12    1  0.8251070E-002  0.1755355E+03  0.7818608E-02  0.1174518E+00
         21   -1    0    0  501  502  0.00000000000E+00  0.00000000000E+00  0.11525850064E+03  0.11525850064E+03  0.00000000000E+00 0.  1.
         21   -1    0    0  502  503 -0.00000000000E+00 -0.00000000000E+00 -0.28500887009E+03  0.28500887009E+03  0.00000000000E+00 0.  1.
         -6    2    1    2    0  503 -0.26429624700E+01  0.28686980983E+02 -0.15312267786E+03  0.23293616141E+03  0.17315534266E+03 0.  0.
        -24    2    3    3    0    0 -0.47415547422E+02 -0.17521360412E+02 -0.37790465660E+02  0.10078698681E+03  0.78579037967E+02 0.  0.
          6    2    1    2  501    0  0.26429624700E+01 -0.28686980983E+02 -0.16627691587E+02  0.16733120932E+03  0.16399184539E+03 0.  0.
         24    2    5    5    0    0 -0.15289260199E+02 -0.25500776460E+02  0.49607513924E+02  0.98476950495E+02  0.79704160892E+02 0.  0.
          5    1    5    5  501    0  0.17932222669E+02 -0.31862045231E+01 -0.66235205511E+02  0.68854258824E+02  0.47000000000E+01 0. -1.
        -11    1    6    6    0    0 -0.39223828197E+02 -0.39164308180E+02  0.22504876959E+02  0.59823249833E+02  0.00000000000E+00 0.  1.
         12    1    6    6    0    0  0.23934567998E+02  0.13663531720E+02  0.27102636965E+02  0.38653700661E+02  0.00000000000E+00 0. -1.
         -5    1    3    3    0  503  0.44772584952E+02  0.46208341395E+02 -0.11533221220E+03  0.13214917460E+03  0.47000000000E+01 0.  1.
         11    1    4    4    0    0 -0.24680780763E+02  0.22912556390E+02 -0.42427699260E+02  0.54168587243E+02  0.00000000000E+00 0. -1.
        -12    1    4    4    0    0 -0.22734766659E+02 -0.40433916801E+02  0.46372336002E+01  0.46618399569E+02  0.00000000000E+00 0.  1.
</event>
<event>
12    1  0.8251070E-002  0.1843338E+03  0.7818608E-02  0.1163823E+00
         21   -1    0    0  501  502  0.00000000000E+00  0.00000000000E+00  0.91198982445E+03  0.91198982445E+03  0.00000000000E+00 0.  1.
         21   -1    0    0  502  503 -0.00000000000E+00 -0.00000000000E+00 -0.50087397854E+02  0.50087397854E+02  0.00000000000E+00 0.  1.
         -6    2    1    2    0  503 -0.63566461357E+02 -0.99798358366E+01  0.18573370824E+03  0.26123267576E+03  0.17206164121E+03 0.  0.
        -24    2    3    3    0    0  0.10613636733E+02  0.34768112683E+02  0.13373088335E+03  0.16008204726E+03  0.80130155054E+02 0.  0.
          6    2    1    2  501    0  0.63566461357E+02  0.99798358366E+01  0.67616871836E+03  0.70084454655E+03  0.17273867721E+03 0.  0.
         24    2    5    5    0    0  0.69491760631E+02  0.47918577533E+02  0.29369140135E+03  0.31641582061E+03  0.82091640512E+02 0.  0.
          5    1    5    5  501    0 -0.59252992741E+01 -0.37938741697E+02  0.38247731701E+03  0.38442872593E+03  0.47000000000E+01 0. -1.
        -11    1    6    6    0    0  0.46509435145E+02 -0.89411509759E+01  0.19118441176E+03  0.19696332409E+03  0.00000000000E+00 0.  1.
         12    1    6    6    0    0  0.22982325486E+02  0.56859728509E+02  0.10250698959E+03  0.11945249652E+03  0.00000000000E+00 0. -1.
         -5    1    3    3    0  503 -0.74180098089E+02 -0.44747948520E+02  0.52002824886E+02  0.10115062850E+03  0.47000000000E+01 0.  1.
         11    1    4    4    0    0 -0.12062515209E+02  0.25645988931E+02  0.13262015549E+03  0.13561462555E+03  0.00000000000E+00 0. -1.
        -12    1    4    4    0    0  0.22676151942E+02  0.91221237520E+01  0.11107278605E+01  0.24467421707E+02  0.00000000000E+00 0.  1.
</event>
<event>
12    1  0.8251070E-002  0.1858831E+03  0.7818608E-02  0.1162404E+00
         21   -1    0    0  503  502  0.00000000000E+00  0.00000000000E+00  0.38725870861E+03  0.38725870861E+03  0.00000000000E+00 0.  1.
         21   -1    0    0  501  503 -0.00000000000E+00 -0.00000000000E+00 -0.12996841045E+03  0.12996841045E+03  0.00000000000E+00 0.  1.
          6    2    1    2  501    0  0.46251954382E+02 -0.47575266741E+02 -0.16618774115E+02  0.18662451265E+03  0.17363719583E+03 0.  0.
         24    2    3    3    0    0  0.69125643393E+02 -0.44635434153E+02 -0.66706688368E+02  0.13128250854E+03  0.77554098654E+02 0.  0.
         -6    2    1    2    0  502 -0.46251954382E+02  0.47575266741E+02  0.27390907227E+03  0.33060260642E+03  0.17282723804E+03 0.  0.
        -24    2    5    5    0    0  0.10391616942E+02  0.64791677573E+02  0.87159463932E+02  0.13463729013E+03  0.78895377271E+02 0.  0.
          5    1    3    3  501    0 -0.22873689010E+02 -0.29398325877E+01  0.50087914253E+02  0.55342004109E+02  0.47000000000E+01 0. -1.
        -13    1    4    4    0    0  0.43229064068E+02  0.26419043927E+01 -0.64041533292E+02  0.77311380956E+02  0.00000000000E+00 0.  1.
         14    1    4    4    0    0  0.25896579325E+02 -0.47277338546E+02 -0.26651550762E+01  0.53971127580E+02  0.00000000000E+00 0. -1.
         -5    1    5    5    0  502 -0.56643571324E+02 -0.17216410832E+02  0.18674960834E+03  0.19596531629E+03  0.47000000000E+01 0.  1.
         11    1    6    6    0    0 -0.28137382203E+02  0.95942836160E+01  0.81185700660E+01  0.30816776847E+02  0.00000000000E+00 0. -1.
        -12    1    6    6    0    0  0.38528999145E+02  0.55197393957E+02  0.79040893866E+02  0.10382051328E+03  0.00000000000E+00 0.  1.
</event>
<event>
12    1  0.8251070E-002  0.2200184E+03  0.7818608E-02  0.1134401E+00
         21   -1    0    0  501  502  0.00000000000E+00  0.00000000000E+00  0.56058838545E+03  0.56058838545E+03  0.00000000000E+00 0. -1.
         21   -1    0    0  502  503 -0.00000000000E+00 -0.00000000000E+00 -0.14476497002E+03  0.14476497002E+03  0.00000000000E+00 0. -1.
         -6    2    1    2    0  503  0.10400714555E+03  0.85266136434E+02 -0.19022859898E+02  0.21801425510E+03  0.17053019053E+03 0.  0.
        -24    2    3    3    0    0  0.10387742841E+03  0.40230268027E+01 -0.33969080784E+02  0.13527406410E+03  0.79614503011E+02 0.  0.
          6    2    1    2  501    0 -0.10400714555E+03 -0.85266136434E+02  0.43484627533E+03  0.48733910037E+03  0.17412729607E+03 0.  0.
         24    2    5    5    0    0 -0.10530256506E+02 -0.66236347172E+02  0.13577690981E+03  0.17338904534E+03  0.84440818424E+02 0.  0.
          5    1    5    5  501    0 -0.93476889047E+02 -0.19029789262E+02  0.29906936552E+03  0.31395005504E+03  0.47000000000E+01 0. -1.
        -11    1    6    6    0    0  0.13759281203E+02  0.16527672885E+02  0.29738203116E+02  0.36699353057E+02  0.00000000000E+00 0.  1.
         12    1    6    6    0    0 -0.24289537709E+02 -0.82764020057E+02  0.10603870669E+03  0.13668969228E+03  0.00000000000E+00 0. -1.
         -5    1    3    3    0  503  0.12971714212E+00  0.81243109632E+02  0.14946220886E+02  0.82740191008E+02  0.47000000000E+01 0.  1.
         13    1    4    4    0    0  0.15982847449E+02  0.34353538384E+02 -0.11840009438E+02  0.39696383155E+02  0.00000000000E+00 0. -1.
        -14    1    4    4    0    0  0.87894580962E+02 -0.30330511582E+02 -0.22129071346E+02  0.95577680940E+02  0.00000000000E+00 0.  1.
</event>
<event>
12    1  0.8251070E-002  0.2144707E+03  0.7818608E-02  0.1138117E+00
         21   -1    0    0  501  502  0.00000000000E+00  0.00000000000E+00  0.47054679837E+03  0.47054679837E+03  0.00000000000E+00 0.  1.
         21   -1    0    0  502  503 -0.00000000000E+00 -0.00000000000E+00 -0.11271267544E+03  0.11271267544E+03  0.00000000000E+00 0. -1.
         -6    2    1    2    0  503 -0.11566346733E+03 -0.53622953247E+02  0.28560356601E+03  0.35716534399E+03  0.17246514789E+03 0.  0.
        -24    2    3    3    0    0 -0.13712727509E+03 -0.27015265543E+02  0.14281066596E+03  0.21026208877E+03  0.65433519816E+02 0.  0.
          6    2    1    2  501    0  0.11566346733E+03  0.53622953247E+02  0.72230556918E+02  0.22609412981E+03  0.17218549124E+03 0.  0.
         24    2    5    5    0    0  0.96167501265E+02  0.78959246065E+02  0.15955934096E+01  0.14841911133E+03  0.80888416051E+02 0.  0.
          5    1    5    5  501    0  0.19495966065E+02 -0.25336292818E+02  0.70634963508E+02  0.77675018483E+02  0.47000000000E+01 0. -1.
        -13    1    6    6    0    0  0.40037952991E+02 -0.60941649405E+01 -0.18544682932E+02  0.44543033026E+02  0.00000000000E+00 0.  1.
         14    1    6    6    0    0  0.56129548274E+02  0.85053411005E+02  0.20140276342E+02  0.10387607831E+03  0.00000000000E+00 0. -1.
         -5    1    3    3    0  503  0.21463807759E+02 -0.26607687704E+02  0.14279290006E+03  0.14690325522E+03  0.47000000000E+01 0.  1.
         11    1    4    4    0    0 -0.61442591724E+02  0.91634450055E+01  0.28178725916E+02  0.68214378223E+02  0.00000000000E+00 0. -1.
        -12    1    4    4    0    0 -0.75684683366E+02 -0.36178710549E+02  0.11463194004E+03  0.14204771054E+03  0.00000000000E+00 0.  1.
</event>
<event>
12    1  0.8251070E-002  0.2144795E+03  0.7818608E-02  0.1138258E+00
         21   -1    0    0  501  502  0.00000000000E+00  0.00000000000E+00  0.58869476281E+03  0.58869476281E+03  0.00000000000E+00 0. -1.
         21   -1    0    0  502  503 -0.00000000000E+00 -0.00000000000E+00 -0.10470932189E+03  0.10470932189E+03  0.00000000000E+00 0. -1.
         -6    2    1    2    0  503 -0.37232883078E+02 -0.12115461816E+03  0.66590241902E+02  0.22457896623E+03  0.17302231843E+03 0.  0.
        -24    2    3    3    0    0 -0.51077201316E+02 -0.12078688159E+03 -0.41631776460E+01  0.15232983644E+03  0.77386664001E+02 0.  0.
          6    2    1    2  501    0  0.37232883078E+02  0.12115461816E+03  0.41739519902E+03  0.46882511847E+03  0.17179496633E+03 0.  0.
         24    2    5    5    0    0 -0.20934694994E+02  0.81616830272E+02  0.12860195158E+03  0.17155363719E+03  0.76109263865E+02 0.  0.
          5    1    5    5  501    0  0.58167578072E+02  0.39537787889E+02  0.28879324745E+03  0.29727148128E+03  0.47000000000E+01 0. -1.
        -13    1    6    6    0    0 -0.33345282127E+02  0.31886333393E+02  0.10586391584E+03  0.11548079829E+03  0.00000000000E+00 0.  1.
         14    1    6    6    0    0  0.12410587133E+02  0.49730496878E+02  0.22738035733E+02  0.56072838895E+02  0.00000000000E+00 0. -1.
         -5    1    3    3    0  503  0.13844318237E+02 -0.36773657261E+00  0.70753419548E+02  0.72249129790E+02  0.47000000000E+01 0.  1.
         11    1    4    4    0    0 -0.91434692367E+01 -0.10368636783E+03 -0.16511052787E+02  0.10539013600E+03  0.00000000000E+00 0. -1.
        -12    1    4    4    0    0 -0.41933732079E+02 -0.17100513761E+02  0.12347875141E+02  0.46939700441E+02  0.00000000000E+00 0.  1.
</event>
<event>
12    1  0.8251070E-002  0.1804207E+03  0.7818608E-02  0.1168708E+00
         21   -1    0    0  501  502  0.00000000000E+00  0.00000000000E+00  0.14551686136E+03  0.14551686136E+03  0.00000000000E+00 0. -1.
         21   -1    0    0  502  503 -0.00000000000E+00 -0.00000000000E+00 -0.26259892098E+03  0.26259892098E+03  0.00000000000E+00 0. -1.
         -6    2    1    2    0  503 -0.52278787861E+01  0.51775160170E+02 -0.14273053637E+03  0.22588108338E+03  0.16715938469E+03 0.  0.
        -24    2    3    3    0    0 -0.38614899911E+01  0.79444332884E+02 -0.15747620079E+03  0.19414821783E+03  0.81046058145E+02 0.  0.
          6    2    1    2  501    0  0.52278787861E+01 -0.51775160170E+02  0.25648476758E+02  0.18223469896E+03  0.17275312795E+03 0.  0.
         24    2    5    5    0    0  0.34604178705E+02 -0.33712400334E+02 -0.44361478765E+02  0.10405085048E+03  0.80775389617E+02 0.  0.
          5    1    5    5  501    0 -0.29376299919E+02 -0.18062759836E+02  0.70009955523E+02  0.78183848474E+02  0.47000000000E+01 0. -1.
        -11    1    6    6    0    0  0.18517930828E+02 -0.59204582834E+02 -0.19643723560E+02  0.65068980828E+02  0.00000000000E+00 0.  1.
         12    1    6    6    0    0  0.16086247877E+02  0.25492182500E+02 -0.24717755205E+02  0.38981869654E+02  0.00000000000E+00 0. -1.
         -5    1    3    3    0  503 -0.13663887951E+01 -0.27669172713E+02  0.14745664414E+02  0.31732865549E+02  0.47000000000E+01 0.  1.
         11    1    4    4    0    0 -0.27364258760E+02  0.82031829010E+02 -0.10124910422E+03  0.13315181086E+03  0.00000000000E+00 0. -1.
        -12    1    4    4    0    0  0.23502768769E+02 -0.25874961265E+01 -0.56227096565E+02  0.60996406977E+02  0.00000000000E+00 0.  1.
</event>
<event>
12    1  0.8251070E-002  0.2238044E+03  0.7818608E-02  0.1131850E+00
         21   -1    0    0  503  502  0.00000000000E+00  0.00000000000E+00  0.53177199634E+02  0.53177199634E+02  0.00000000000E+00 0. -1.
         21   -1    0    0  501  503 -0.00000000000E+00 -0.00000000000E+00 -0.30853015612E+04  0.30853015612E+04  0.00000000000E+00 0.  1.
          6    2    1    2  501    0 -0.41129715240E+02  0.13032906489E+03 -0.28336355035E+04  0.28424599501E+04  0.17723171967E+03 0.  0.
         24    2    3    3    0    0  0.23641520006E+02  0.13440432610E+03 -0.20962370147E+04  0.21021961174E+04  0.79971556873E+02 0.  0.
         -6    2    1    2    0  502  0.41129715240E+02 -0.13032906489E+03 -0.19848885808E+03  0.29601881077E+03  0.17190692516E+03 0.  0.
        -24    2    5    5    0    0  0.46563442175E+02 -0.14352423100E+03 -0.21388541155E+03  0.27450645023E+03  0.82701045429E+02 0.  0.
          5    1    3    3  501    0 -0.64771235247E+02 -0.40752612130E+01 -0.73739848880E+03  0.74026383267E+03  0.47000000000E+01 0. -1.
        -13    1    4    4    0    0  0.49311309360E+02  0.51137664533E+02 -0.94049937540E+03  0.94317853087E+03  0.00000000000E+00 0.  1.
         14    1    4    4    0    0 -0.25669789354E+02  0.83266661570E+02 -0.11557376393E+04  0.11590175866E+04  0.00000000000E+00 0. -1.
         -5    1    5    5    0  502 -0.54337269351E+01  0.13195166107E+02  0.15396553472E+02  0.21512360536E+02  0.47000000000E+01 0.  1.
         11    1    6    6    0    0  0.51663057611E+02 -0.12222875282E+03 -0.12271318054E+03  0.18074142916E+03  0.00000000000E+00 0. -1.
        -12    1    6    6    0    0 -0.50996154359E+01 -0.21295478172E+02 -0.91172231011E+02  0.93765021067E+02  0.00000000000E+00 0.  1.
</event>
<event>
12    1  0.8251070E-002  0.1777314E+03  0.7818608E-02  0.1170283E+00
         21   -1    0    0  501  502  0.00000000000E+00  0.00000000000E+00  0.10296535564E+04  0.10296535564E+04  0.00000000000E+00 0.  1.
         21   -1    0    0  502  503 -0.00000000000E+00 -0.00000000000E+00 -0.36415226936E+02  0.36415226936E+02  0.00000000000E+00 0.  1.
         -6    2    1    2    0  503 -0.10423479862E+02 -0.39389297008E+02  0.28292185746E+03  0.33411558666E+03  0.17299792532E+03 0.  0.
        -24    2    3    3    0    0 -0.57075039745E+02 -0.21850431892E+02  0.26115215920E+03  0.27952630574E+03  0.78736927841E+02 0.  0.
          6    2    1    2  501    0  0.10423479862E+02  0.39389297008E+02  0.71031647197E+03  0.73195319665E+03  0.17188899349E+03 0.  0.
         24    2    5    5    0    0  0.69449330893E+02  0.36024623509E+01  0.48121246283E+03  0.49263022318E+03  0.79264841599E+02 0.  0.
          5    1    5    5  501    0 -0.59025851030E+02  0.35786834657E+02  0.22910400914E+03  0.23932297347E+03  0.47000000000E+01 0. -1.
        -11    1    6    6    0    0  0.55317894725E+02  0.33215488450E+02  0.21704924290E+03  0.22643699342E+03  0.00000000000E+00 0.  1.
         12    1    6    6    0    0  0.14131436168E+02 -0.29613026099E+02  0.26416321993E+03  0.26619322975E+03  0.00000000000E+00 0. -1.
         -5    1    3    3    0  503  0.46651559883E+02 -0.17538865116E+02  0.21769698260E+02  0.54589280920E+02  0.47000000000E+01 0.  1.
         11    1    4    4    0    0 -0.42512989725E+02 -0.22691444548E+01  0.24834399211E+03  0.25196674727E+03  0.00000000000E+00 0. -1.
        -12    1    4    4    0    0 -0.14562050020E+02 -0.19581287438E+02  0.12808167090E+02  0.27559558463E+02  0.00000000000E+00 0.  1.
</event>
<event>
12    1  0.8251070E-002  0.1824042E+03  0.7818608E-02  0.1166020E+00
         21   -1    0    0  501  502  0.00000000000E+00  0.00000000000E+00  0.71133606168E+02  0.71133606168E+02  0.00000000000E+00 0.  1.
         21   -1    0    0  502  503 -0.00000000000E+00 -0.00000000000E+00 -0.56802790209E+03  0.56802790209E+03  0.00000000000E+00 0.  1.
         -6    2    1    2    0  503  0.28317427781E+02  0.46157532365E+02 -0.38520835120E+03  0.42528056658E+03  0.17188860337E+03 0.  0.
        -24    2    3    3    0    0 -0.24390836078E+02  0.52313675943E+02 -0.12092624035E+03  0.15568237798E+03  0.79260416559E+02 0.  0.
          6    2    1    2  501    0 -0.28317427781E+02 -0.46157532365E+02 -0.11168594472E+03  0.21388094167E+03  0.17418068909E+03 0.  0.
         24    2    5    5    0    0  0.16230263050E+02  0.12393605651E+02 -0.71204679719E+02  0.12977651053E+03  0.10655896665E+03 0.  0.
          5    1    5    5  501    0 -0.44547690831E+02 -0.58551138016E+02 -0.40481265003E+02  0.84104431141E+02  0.47000000000E+01 0. -1.
        -11    1    6    6    0    0 -0.50637315403E+01  0.39724547023E+02  0.10183564800E+02  0.41320527651E+02  0.00000000000E+00 0.  1.
         12    1    6    6    0    0  0.21293994591E+02 -0.27330941372E+02 -0.81388244519E+02  0.88455982883E+02  0.00000000000E+00 0. -1.
         -5    1    3    3    0  503  0.52708263858E+02 -0.61561435778E+01 -0.26428211085E+03  0.26959818860E+03  0.47000000000E+01 0.  1.
         11    1    4    4    0    0 -0.24563356951E+02  0.20937891493E+01  0.97431742333E-01  0.24652625634E+02  0.00000000000E+00 0. -1.
        -12    1    4    4    0    0  0.17252087326E+00  0.50219886793E+02 -0.12102367210E+03  0.13102975235E+03  0.00000000000E+00 0.  1.
</event>
<event>
12    1  0.8251070E-002  0.1838222E+03  0.7818608E-02  0.1165117E+00
         21   -1    0    0  503  502  0.00000000000E+00  0.00000000000E+00  0.17131921954E+03  0.17131921954E+03  0.00000000000E+00 0. -1.
         21   -1    0    0  501  503 -0.00000000000E+00 -0.00000000000E+00 -0.30267866668E+03  0.30267866668E+03  0.00000000000E+00 0. -1.
          6    2    1    2  501    0  0.51409106775E+02  0.11742720775E+02 -0.20792177244E+03  0.27486881389E+03  0.17187383059E+03 0.  0.
         24    2    3    3    0    0 -0.33549912190E+02 -0.63187270185E+01 -0.14138629675E+03  0.16535484069E+03  0.78655041237E+02 0.  0.
         -6    2    1    2    0  502 -0.51409106775E+02 -0.11742720775E+02  0.76562325299E+02  0.19912907234E+03  0.17609602507E+03 0.  0.
        -24    2    5    5    0    0 -0.46446553758E+02 -0.75174011040E+02  0.60993891221E+02  0.13345851838E+03  0.79262267635E+02 0.  0.
          5    1    3    3  501    0  0.84959018966E+02  0.18061447794E+02 -0.66535475690E+02  0.10951397320E+03  0.47000000000E+01 0. -1.
        -11    1    4    4    0    0 -0.12719542536E+02 -0.42295080470E+02 -0.73863334070E+02  0.86060750137E+02  0.00000000000E+00 0.  1.
         12    1    4    4    0    0 -0.20830369655E+02  0.35976353451E+02 -0.67522962678E+02  0.79294090551E+02  0.00000000000E+00 0. -1.
         -5    1    5    5    0  502 -0.49625530172E+01  0.63431290265E+02  0.15568434078E+02  0.65670553955E+02  0.47000000000E+01 0.  1.
         11    1    6    6    0    0 -0.53867333480E+02 -0.26559944761E+02  0.59075543773E+02  0.84243932447E+02  0.00000000000E+00 0. -1.
        -12    1    6    6    0    0  0.74207797216E+01 -0.48614066279E+02  0.19183474478E+01  0.49214585935E+02  0.00000000000E+00 0.  1.
</event>
<event>
12    1  0.8251070E-002  0.1832378E+03  0.7818608E-02  0.1165271E+00
         21   -1    0    0  503  502  0.00000000000E+00  0.00000000000E+00  0.51555088856E+02  0.51555088856E+02  0.00000000000E+00 0. -1.
         21   -1    0    0  501  503 -0.00000000000E+00 -0.00000000000E+00 -0.96156026397E+03  0.96156026397E+03  0.00000000000E+00 0. -1.
          6    2    1    2  501    0  0.31358196928E+02  0.44634739012E+02 -0.74464690504E+03  0.76629667095E+03  0.17244123139E+03 0.  0.
         24    2    3    3    0    0  0.38533326906E+02 -0.44500212271E+02 -0.19667508129E+03  0.21105642416E+03  0.48975916582E+02 0.  0.
         -6    2    1    2    0  502 -0.31358196928E+02 -0.44634739012E+02 -0.16535827007E+03  0.24681868187E+03  0.17493000829E+03 0.  0.
        -24    2    5    5    0    0  0.32795283136E+02 -0.37800753331E+02 -0.35978644257E+02  0.10216893268E+03  0.81483743255E+02 0.  0.
          5    1    3    3  501    0 -0.71751299778E+01  0.89134951283E+02 -0.54797182375E+03  0.55524024679E+03  0.47000000000E+01 0. -1.
        -13    1    4    4    0    0 -0.64296246375E+01 -0.22975165435E+02 -0.39299692651E+02  0.45974603230E+02  0.00000000000E+00 0.  1.
         14    1    4    4    0    0  0.44962951543E+02 -0.21525046835E+02 -0.15737538864E+03  0.16508182093E+03  0.00000000000E+00 0. -1.
         -5    1    5    5    0  502 -0.64153480064E+02 -0.68339856804E+01 -0.12937962582E+03  0.14464974919E+03  0.47000000000E+01 0.  1.
         13    1    6    6    0    0  0.13013005579E+02 -0.45599634468E+02 -0.55710919692E+02  0.73159903983E+02  0.00000000000E+00 0. -1.
        -14    1    6    6    0    0  0.19782277557E+02  0.77988811370E+01  0.19732275435E+02  0.29009028701E+02  0.00000000000E+00 0.  1.
</event>
<event>
12    1  0.8251070E-002  0.2198102E+03  0.7818608E-02  0.1134661E+00
         21   -1    0    0  501  502  0.00000000000E+00  0.00000000000E+00  0.29131856509E+03  0.29131856509E+03  0.00000000000E+00 0. -1.
         21   -1    0    0  502  503 -0.00000000000E+00 -0.00000000000E+00 -0.16640941673E+03  0.16640941673E+03  0.00000000000E+00 0.  1.
         -6    2    1    2    0  503 -0.95935312956E+02  0.92957213086E+02  0.30748584977E+02  0.21859888297E+03  0.17028026433E+03 0.  0.
        -24    2    3    3    0    0 -0.94179927989E+02  0.12800567645E+03  0.17522962016E+02  0.18080360200E+03  0.84424974134E+02 0.  0.
          6    2    1    2  501    0  0.95935312956E+02 -0.92957213086E+02  0.94160563383E+02  0.23912909885E+03  0.17456198465E+03 0.  0.
         24    2    5    5    0    0  0.50917624446E+01 -0.44972157532E+02  0.85824055763E+02  0.13594623407E+03  0.95221788532E+02 0.  0.
          5    1    5    5  501    0  0.90843550511E+02 -0.47985055554E+02  0.83365076202E+01  0.10318286479E+03  0.47000000000E+01 0. -1.
        -11    1    6    6    0    0  0.11303624196E+02 -0.67925990109E+02  0.29699347443E+02  0.74991754818E+02  0.00000000000E+00 0.  1.
         12    1    6    6    0    0 -0.62118617517E+01  0.22953832577E+02  0.56124708320E+02  0.60954479248E+02  0.00000000000E+00 0. -1.
         -5    1    3    3    0  503 -0.17553849673E+01 -0.35048463369E+02  0.13225622961E+02  0.37795280970E+02  0.47000000000E+01 0.  1.
         13    1    4    4    0    0 -0.59415772038E+02  0.16533920412E+02  0.17235278039E+02  0.64036390437E+02  0.00000000000E+00 0. -1.
        -14    1    4    4    0    0 -0.34764155951E+02  0.11147175604E+03  0.28768397702E+00  0.11676721156E+03  0.00000000000E+00 0.  1.
</event>
<event>
12    1  0.8251070E-002  0.1781779E+03  0.7818608E-02  0.1170105E+00
         21   -1    0    0  503  502  0.00000000000E+00  0.00000000000E+00  0.23747882668E+03  0.23747882668E+03  0.00000000000E+00 0. -1.
         21   -1    0    0  501  503 -0.00000000000E+00 -0.00000000000E+00 -0.20858074930E+03  0.20858074930E+03  0.00000000000E+00 0. -1.
          6    2    1    2  501    0  0.41009600052E+02  0.14188630823E+02 -0.12055803453E+03  0.21513160936E+03  0.17281280367E+03 0.  0.
         24    2    3    3    0    0  0.42269756757E+02  0.75617549562E+02 -0.80315762222E+02  0.14153384762E+03  0.77951665936E+02 0.  0.
         -6    2    1    2    0  502 -0.41009600052E+02 -0.14188630823E+02  0.14945611192E+03  0.23092796662E+03  0.17060917865E+03 0.  0.
        -24    2    5    5    0    0 -0.78711556287E+02  0.22842295950E+02  0.64259140086E+02  0.13056193128E+03  0.78739451593E+02 0.  0.
          5    1    3    3  501    0 -0.12601567054E+01 -0.61428918739E+02 -0.40242272310E+02  0.73597761739E+02  0.47000000000E+01 0. -1.
        -11    1    4    4    0    0  0.29352588515E+02  0.90582126644E+02 -0.74580655030E+02  0.12095027997E+03  0.00000000000E+00 0.  1.
         12    1    4    4    0    0  0.12917168242E+02 -0.14964577082E+02 -0.57351071918E+01  0.20583567648E+02  0.00000000000E+00 0. -1.
         -5    1    5    5    0  502  0.37701956235E+02 -0.37030926773E+02  0.85196971830E+02  0.10036603534E+03  0.47000000000E+01 0.  1.
         11    1    6    6    0    0 -0.63611734862E+02  0.49515671907E+02  0.33991756478E+02  0.87485393553E+02  0.00000000000E+00 0. -1.
        -12    1    6    6    0    0 -0.15099821424E+02 -0.26673375957E+02  0.30267383608E+02  0.43076537726E+02  0.00000000000E+00 0.  1.
</event>
<event>
12    1  0.8251070E-002  0.2514789E+03  0.7818608E-02  0.1114204E+00
         21   -1    0    0  503  502  0.00000000000E+00  0.00000000000E+00  0.98623945512E+03  0.98623945512E+03  0.00000000000E+00 0.  1.
         21   -1    0    0  501  503 -0.00000000000E+00 -0.00000000000E+00 -0.11434106746E+03  0.11434106746E+03  0.00000000000E+00 0.  1.
          6    2    1    2  501    0  0.80086657566E+02  0.14722228021E+03  0.80544782119E+03  0.84047035396E+03  0.17191844206E+03 0.  0.
         24    2    3    3    0    0 -0.11360334695E+02  0.85600983518E+02  0.28442154346E+03  0.30788213716E+03  0.80244690856E+02 0.  0.
         -6    2    1    2    0  502 -0.80086657566E+02 -0.14722228021E+03  0.66450566469E+02  0.26011016862E+03  0.18749226525E+03 0.  0.
        -24    2    5    5    0    0  0.19794560675E+02 -0.78519761446E+02  0.78275781076E+02  0.13821587203E+03  0.80120857506E+02 0.  0.
          5    1    3    3  501    0  0.91446992261E+02  0.61621296694E+02  0.52102627773E+03  0.53258821681E+03  0.47000000000E+01 0. -1.
        -11    1    4    4    0    0  0.16929594536E+02  0.54447685155E+02  0.24005109022E+03  0.24672998907E+03  0.00000000000E+00 0.  1.
         12    1    4    4    0    0 -0.28289929231E+02  0.31153298364E+02  0.44370453244E+02  0.61152148089E+02  0.00000000000E+00 0. -1.
         -5    1    5    5    0  502 -0.99881218241E+02 -0.68702518766E+02 -0.11825214608E+02  0.12189429660E+03  0.47000000000E+01 0.  1.
         11    1    6    6    0    0  0.33171773446E+02 -0.77053632970E+02  0.31609783701E+02  0.89648242220E+02  0.00000000000E+00 0. -1.
        -12    1    6    6    0    0 -0.13377212771E+02 -0.14661284761E+01  0.46665997375E+02  0.48567629808E+02  0.00000000000E+00 0.  1.
</event>
<event>
12    1  0.8251070E-002  0.2461458E+03  0.7818608E-02  0.1116136E+00
         21   -1    0    0  501  502  0.00000000000E+00  0.00000000000E+00  0.80521849191E+03  0.80521849191E+03  0.00000000000E+00 0. -1.
         21   -1    0    0  502  503 -0.00000000000E+00 -0.00000000000E+00 -0.12150857648E+03  0.12150857648E+03  0.00000000000E+00 0. -1.
         -6    2    1    2    0  503  0.12329927039E+03 -0.12288539351E+03  0.54767033862E+02  0.25216497689E+03  0.17402361207E+03 0.  0.
        -24    2    3    3    0    0  0.11792922458E+03 -0.12242674779E+03 -0.72674172666E+01  0.18971971386E+03  0.83935355419E+02 0.  0.
          6    2    1    2  501    0 -0.12329927039E+03  0.12288539351E+03  0.62894288156E+03  0.67456209150E+03  0.17076690839E+03 0.  0.
         24    2    5    5    0    0 -0.79867053200E+02  0.10875872949E+03  0.60015640134E+03  0.62037102609E+03  0.80407067607E+02 0.  0.
          5    1    5    5  501    0 -0.43432217185E+02  0.14126664019E+02  0.28786480225E+02  0.54191065404E+02  0.47000000000E+01 0. -1.
        -13    1    6    6    0    0 -0.77849651743E+01  0.31260356198E+02  0.30715710818E+03  0.30884187646E+03  0.00000000000E+00 0.  1.
         14    1    6    6    0    0 -0.72082088026E+02  0.77498373296E+02  0.29299929316E+03  0.31152914963E+03  0.00000000000E+00 0. -1.
         -5    1    3    3    0  503  0.53700458070E+01 -0.45864571821E+00  0.62034451129E+02  0.62445263028E+02  0.47000000000E+01 0.  1.
         11    1    4    4    0    0  0.67470697209E+02 -0.55518309490E+02  0.37066433489E+02  0.94913108484E+02  0.00000000000E+00 0. -1.
        -12    1    4    4    0    0  0.50458527369E+02 -0.66908438305E+02 -0.44333850756E+02  0.94806605379E+02  0.00000000000E+00 0.  1.
</event>
<event>
12    1  0.8251070E-002  0.2113313E+03  0.7818608E-02  0.1142632E+00
         21   -1    0    0  503  502  0.00000000000E+00  0.00000000000E+00  0.89566371446E+02  0.89566371446E+02  0.00000000000E+00 0. -1.
         21   -1    0    0  501  503 -0.00000000000E+00 -0.00000000000E+00 -0.66881503852E+03  0.66881503852E+03  0.00000000000E+00 0. -1.
          6    2    1    2  501    0 -0.12263090299E+03  0.66809484542E+01 -0.49935203179E+03  0.54223000903E+03  0.17198243397E+03 0.  0.
         24    2    3    3    0    0  0.15053004411E+01  0.94338362897E+01 -0.25192801915E+03  0.26535800353E+03  0.82800241611E+02 0.  0.
         -6    2    1    2    0  502  0.12263090299E+03 -0.66809484542E+01 -0.79896635287E+02  0.21615140094E+03  0.15891816246E+03 0.  0.
        -24    2    5    5    0    0  0.11116759472E+03  0.25398520094E+02 -0.10507128060E+03  0.17353271366E+03  0.77912192667E+02 0.  0.
          5    1    3    3  501    0 -0.12413620343E+03 -0.27528878355E+01 -0.24742401264E+03  0.27687200549E+03  0.47000000000E+01 0. -1.
        -13    1    4    4    0    0 -0.70762488802E+01 -0.33326989086E+02 -0.64753936672E+02  0.73169896913E+02  0.00000000000E+00 0.  1.
         14    1    4    4    0    0  0.85815493213E+01  0.42760825376E+02 -0.18717408248E+03  0.19218810662E+03  0.00000000000E+00 0. -1.
         -5    1    5    5    0  502  0.11463308272E+02 -0.32079468548E+02  0.25174645312E+02  0.42618687280E+02  0.47000000000E+01 0.  1.
         13    1    6    6    0    0  0.61328994474E+02  0.70219097117E+01 -0.71638474420E+01  0.62143973879E+02  0.00000000000E+00 0. -1.
        -14    1    6    6    0    0  0.49838600245E+02  0.18376610382E+02 -0.97907433157E+02  0.11138873978E+03  0.00000000000E+00 0.  1.
</event>
<event>
12    1  0.8251070E-002  0.2510394E+03  0.7818608E-02  0.1113125E+00
         21   -1    0    0  501  502  0.00000000000E+00  0.00000000000E+00  0.41360262933E+03  0.41360262933E+03  0.00000000000E+00 0. -1.
         21   -1    0    0  502  503 -0.00000000000E+00 -0.00000000000E+00 -0.25579173962E+03  0.25579173962E+03  0.00000000000E+00 0. -1.
         -6    2    1    2    0  503  0.17244725317E+03  0.48887123651E+02 -0.13549467914E+03  0.28527106123E+03  0.17576337592E+03 0.  0.
        -24    2    3    3    0    0  0.80076642420E+02  0.31252173907E+02  0.13324688987E+02  0.10916707061E+03  0.65961617124E+02 0.  0.
          6    2    1    2  501    0 -0.17244725317E+03 -0.48887123651E+02  0.29330556885E+03  0.38412330772E+03  0.17144839699E+03 0.  0.
         24    2    5    5    0    0 -0.52698916392E+02  0.33352854378E+02  0.11007214192E+03  0.15024372997E+03  0.81041429419E+02 0.  0.
          5    1    5    5  501    0 -0.11974833678E+03 -0.82239978028E+02  0.18323342693E+03  0.23387957776E+03  0.47000000000E+01 0. -1.
        -13    1    6    6    0    0 -0.46955628416E+01  0.30335742457E+02  0.95004638185E+02  0.99840807576E+02  0.00000000000E+00 0.  1.
         14    1    6    6    0    0 -0.48003353550E+02  0.30171119210E+01  0.15067503738E+02  0.50402922389E+02  0.00000000000E+00 0. -1.
         -5    1    3    3    0  503  0.92370610752E+02  0.17634949743E+02 -0.14881936812E+03  0.17610399062E+03  0.47000000000E+01 0.  1.
         11    1    4    4    0    0  0.73773499844E+02  0.37733513656E+02 -0.10649386174E+02  0.83544938553E+02  0.00000000000E+00 0. -1.
        -12    1    4    4    0    0  0.63031425766E+01 -0.64813397485E+01  0.23974075161E+02  0.25622132056E+02  0.00000000000E+00 0.  1.
</event>
<event>
12    1  0.8251070E-002  0.4170078E+03  0.7818608E-02  0.1038119E+00
         21   -1    0    0  501  502  0.00000000000E+00  0.00000000000E+00  0.25854535120E+03  0.25854535120E+03  0.00000000000E+00 0. -1.
         21   -1    0    0  502  503 -0.00000000000E+00 -0.00000000000E+00 -0.81845634074E+03  0.81845634074E+03  0.00000000000E+00 0. -1.
         -6    2    1    2    0  503 -0.58836355982E+00  0.37994420134E+03 -0.50817249170E+03  0.65679649416E+03  0.16965969209E+03 0.  0.
        -24    2    3    3    0    0 -0.48245519818E+02  0.19409018862E+03 -0.20136951241E+03  0.29490828396E+03  0.80141025176E+02 0.  0.
          6    2    1    2  501    0  0.58836355982E+00 -0.37994420134E+03 -0.51738497844E+02  0.42020519777E+03  0.17186504523E+03 0.  0.
         24    2    5    5    0    0 -0.39949365006E+02 -0.29974423176E+03  0.80078351541E+01  0.31219104655E+03  0.77178804626E+02 0.  0.
          5    1    5    5  501    0  0.40537728566E+02 -0.80199969575E+02 -0.59746332998E+02  0.10801415122E+03  0.47000000000E+01 0. -1.
        -13    1    6    6    0    0 -0.68200296611E+01 -0.36682048299E+01 -0.11236357184E+02  0.13646400772E+02  0.00000000000E+00 0.  1.
         14    1    6    6    0    0 -0.33129335345E+02 -0.29607602693E+03  0.19244192339E+02  0.29854464578E+03  0.00000000000E+00 0. -1.
         -5    1    3    3    0  503  0.47657156258E+02  0.18585401272E+03 -0.30680297928E+03  0.36188821020E+03  0.47000000000E+01 0.  1.
         13    1    4    4    0    0 -0.25783470204E+02  0.15361839207E+03 -0.19275483885E+03  0.24782620043E+03  0.00000000000E+00 0. -1.
        -14    1    4    4    0    0 -0.22462049614E+02  0.40471796555E+02 -0.86146735627E+01  0.47082083534E+02  0.00000000000E+00 0.  1.
</event>
<event>
12    1  0.8251070E-002  0.2940422E+03  0.7818608E-02  0.1088334E+00
         21   -1    0    0  503  502  0.00000000000E+00  0.00000000000E+00  0.46417134577E+03  0.46417134577E+03  0.00000000000E+00 0. -1.
         21   -1    0    0  501  503 -0.00000000000E+00 -0.00000000000E+00 -0.22361810055E+03  0.22361810055E+03  0.00000000000E+00 0.  1.
          6    2    1    2  501    0  0.56797723809E+01 -0.23743923618E+03 -0.21081326062E+02  0.29419897317E+03  0.17233387018E+03 0.  0.
         24    2    3    3    0    0  0.14836491378E+02 -0.10091654271E+03 -0.71185855341E+02  0.14840855788E+03  0.80953097420E+02 0.  0.
         -6    2    1    2    0  502 -0.56797723809E+01  0.23743923618E+03  0.26163457129E+03  0.39359047315E+03  0.17335270685E+03 0.  0.
        -24    2    5    5    0    0 -0.79004346285E+01  0.11009044429E+03  0.21748159185E+03  0.25870451492E+03  0.86298670060E+02 0.  0.
          5    1    3    3  501    0 -0.91567189969E+01 -0.13652269347E+03  0.50104529279E+02  0.14579041529E+03  0.47000000000E+01 0. -1.
        -13    1    4    4    0    0 -0.19578246895E+02 -0.43359577712E+02 -0.65709972832E+02  0.81124356765E+02  0.00000000000E+00 0.  1.
         14    1    4    4    0    0  0.34414738273E+02 -0.57556964999E+02 -0.54758825086E+01  0.67284201114E+02  0.00000000000E+00 0. -1.
         -5    1    5    5    0  502  0.22206622475E+01  0.12734879189E+03  0.44152979441E+02  0.13488595824E+03  0.47000000000E+01 0.  1.
         11    1    6    6    0    0 -0.61880477036E+01 -0.86224603470E+01  0.62911510959E+02  0.63800446456E+02  0.00000000000E+00 0. -1.
        -12    1    6    6    0    0 -0.17123869249E+01  0.11871290464E+03  0.15457008089E+03  0.19490406846E+03  0.00000000000E+00 0.  1.
</event>
<event>
12    1  0.8251070E-002  0.2451131E+03  0.7818608E-02  0.1116473E+00
         21   -1    0    0  503  502  0.00000000000E+00  0.00000000000E+00  0.98474710143E+02  0.98474710143E+02  0.00000000000E+00 0.  1.
         21   -1    0    0  501  503 -0.00000000000E+00 -0.00000000000E+00 -0.71760488874E+03  0.71760488874E+03  0.00000000000E+00 0. -1.
          6    2    1    2  501    0 -0.12498482052E+03  0.12213315859E+03 -0.46781292659E+03  0.52802173909E+03  0.17152349365E+03 0.  0.
         24    2    3    3    0    0 -0.87153583175E+02  0.14089287495E+02 -0.16031872126E+03  0.19987625776E+03  0.80337855011E+02 0.  0.
         -6    2    1    2    0  502  0.12498482052E+03 -0.12213315859E+03 -0.15131725201E+03  0.28805785980E+03  0.17187991753E+03 0.  0.
        -24    2    5    5    0    0  0.15508316290E+03 -0.12111449518E+03 -0.14373644161E+03  0.25664915757E+03  0.80555056193E+02 0.  0.
          5    1    3    3  501    0 -0.37831237345E+02  0.10804387110E+03 -0.30749420534E+03  0.32814548133E+03  0.47000000000E+01 0. -1.
        -13    1    4    4    0    0 -0.12072717039E+02 -0.77686702838E+01 -0.10024331662E+03  0.10126611112E+03  0.00000000000E+00 0.  1.
         14    1    4    4    0    0 -0.75080866135E+02  0.21857957778E+02 -0.60075404642E+02  0.98610146643E+02  0.00000000000E+00 0. -1.
         -5    1    5    5    0  502 -0.30098342380E+02 -0.10186634056E+01 -0.75808103968E+01  0.31408702225E+02  0.47000000000E+01 0.  1.
         11    1    6    6    0    0  0.80665089598E+02 -0.49620848647E+02 -0.11607906287E+03  0.14981132847E+03  0.00000000000E+00 0. -1.
        -12    1    6    6    0    0  0.74418073302E+02 -0.71493646537E+02 -0.27657378735E+02  0.10683782910E+03  0.00000000000E+00 0.  1.
</event>
<event>
12    1  0.8251070E-002  0.1817535E+03  0.7818608E-02  0.1166750E+00
         21   -1    0    0  503  502  0.00000000000E+00  0.00000000000E+00  0.10395719191E+03  0.10395719191E+03  0.00000000000E+00 0.  1.
         21   -1    0    0  501  503 -0.00000000000E+00 -0.00000000000E+00 -0.31345326423E+03  0.31345326423E+03  0.00000000000E+00 0.  1.
          6    2    1    2  501    0 -0.18046451455E+02 -0.56457724848E+02 -0.97869794925E+02  0.20411545598E+03  0.16903098386E+03 0.  0.
         24    2    3    3    0    0  0.32461357148E+01 -0.10002929312E+03 -0.86445614381E+02  0.15407089851E+03  0.79048090699E+02 0.  0.
         -6    2    1    2    0  502  0.18046451455E+02  0.56457724848E+02 -0.11162627739E+03  0.21329500016E+03  0.17181729303E+03 0.  0.
        -24    2    5    5    0    0 -0.52998445718E+02  0.39858978676E+01 -0.51532210917E+02  0.10636485069E+03  0.76375323693E+02 0.  0.
          5    1    3    3  501    0 -0.21292587169E+02  0.43571568277E+02 -0.11424180544E+02  0.50044557462E+02  0.47000000000E+01 0. -1.
        -11    1    4    4    0    0  0.33295696010E+02 -0.26682893783E+02 -0.97324602418E+01  0.43764151720E+02  0.00000000000E+00 0.  1.
         12    1    4    4    0    0 -0.30049560295E+02 -0.73346399341E+02 -0.76713154139E+02  0.11030674679E+03  0.00000000000E+00 0. -1.
         -5    1    5    5    0  502  0.71044897173E+02  0.52471826980E+02 -0.60094066474E+02  0.10693014947E+03  0.47000000000E+01 0.  1.
         13    1    6    6    0    0 -0.16331426825E+02 -0.35180365214E+02 -0.15673657441E+02  0.41833445188E+02  0.00000000000E+00 0. -1.
        -14    1    6    6    0    0 -0.36667018893E+02  0.39166263081E+02 -0.35858553476E+02  0.64531405499E+02  0.00000000000E+00 0.  1.
</event>
<event>
12    1  0.8251070E-002  0.2012147E+03  0.7818608E-02  0.1148906E+00
         21   -1    0    0  503  502  0.00000000000E+00  0.00000000000E+00  0.10246112872E+04  0.10246112872E+04  0.00000000000E+00 0. -1.
         21   -1    0    0  501  503 -0.00000000000E+00 -0.00000000000E+00 -0.39525076066E+02  0.39525076066E+02  0.00000000000E+00 0. -1.
          6    2    1    2  501    0 -0.99264845887E+02  0.27141963175E+02  0.45492052887E+03  0.49707110486E+03  0.17186273563E+03 0.  0.
         24    2    3    3    0    0 -0.76851172930E+02 -0.19479095899E+02  0.41881052127E+03  0.43381038613E+03  0.80645275299E+02 0.  0.
         -6    2    1    2    0  502  0.99264845887E+02 -0.27141963175E+02  0.53016568223E+03  0.56706525838E+03  0.17290795486E+03 0.  0.
        -24    2    5    5    0    0  0.10157991710E+03 -0.41751133504E+02  0.53394564093E+03  0.55109135779E+03  0.80883252034E+02 0.  0.
          5    1    3    3  501    0 -0.22413672956E+02  0.46621059074E+02  0.36110007599E+02  0.63260718723E+02  0.47000000000E+01 0. -1.
        -11    1    4    4    0    0  0.14151146886E+02 -0.33859415841E+01  0.12409867446E+03  0.12494879175E+03  0.00000000000E+00 0.  1.
         12    1    4    4    0    0 -0.91002319816E+02 -0.16093154315E+02  0.29471184682E+03  0.30886159438E+03  0.00000000000E+00 0. -1.
         -5    1    5    5    0  502 -0.23150712096E+01  0.14609170329E+02 -0.37799586949E+01  0.15973900593E+02  0.47000000000E+01 0.  1.
         11    1    6    6    0    0  0.27283032411E+02 -0.18485139181E+02  0.34728506806E+03  0.34884521313E+03  0.00000000000E+00 0. -1.
        -12    1    6    6    0    0  0.74296884685E+02 -0.23265994324E+02  0.18666057287E+03  0.20224614466E+03  0.00000000000E+00 0.  1.
</event>
<event>
12    1  0.8251070E-002  0.2250595E+03  0.7818608E-02  0.1130358E+00
         21   -1    0    0  503  502  0.00000000000E+00  0.00000000000E+00  0.20957389303E+03  0.20957389303E+03  0.00000000000E+00 0.  1.
         21   -1    0    0  501  503 -0.00000000000E+00 -0.00000000000E+00 -0.27665663586E+03  0.27665663586E+03  0.00000000000E+00 0.  1.
          6    2    1    2  501    0 -0.14349322870E+03  0.24859959175E+02  0.54210007094E+02  0.23149619463E+03  0.17159090595E+03 0.  0.
         24    2    3    3    0    0 -0.14487437241E+03  0.70168017179E+02  0.48354127866E+02  0.18554938843E+03  0.78602286543E+02 0.  0.
         -6    2    1    2    0  502  0.14349322870E+03 -0.24859959175E+02 -0.12129274993E+03  0.25473433426E+03  0.17020377673E+03 0.  0.
        -24    2    5    5    0    0  0.31840758803E+02 -0.18609085052E+02 -0.11205606628E+03  0.14242781714E+03  0.79805946767E+02 0.  0.
          5    1    3    3  501    0  0.13811437126E+01 -0.45308058004E+02  0.58558792279E+01  0.45946806195E+02  0.47000000000E+01 0. -1.
        -11    1    4    4    0    0 -0.56430668003E+02 -0.15928695942E+01  0.43994870024E+02  0.71571685136E+02  0.00000000000E+00 0.  1.
         12    1    4    4    0    0 -0.88443704408E+02  0.71760886773E+02  0.43592578421E+01  0.11397770330E+03  0.00000000000E+00 0. -1.
         -5    1    5    5    0  502  0.11165246989E+03 -0.62508741228E+01 -0.92366836493E+01  0.11230651711E+03  0.47000000000E+01 0.  1.
         11    1    6    6    0    0  0.18367544621E+02 -0.79856490034E+01  0.76935657267E+01  0.21455261336E+02  0.00000000000E+00 0. -1.
        -12    1    6    6    0    0  0.13473214183E+02 -0.10623436049E+02 -0.11974963200E+03  0.12097255581E+03  0.00000000000E+00 0.  1.
</event>
<event>
12    1  0.8251070E-002  0.2185221E+03  0.7818608E-02  0.1135048E+00
         21   -1    0    0  503  502  0.00000000000E+00  0.00000000000E+00  0.76871175681E+02  0.76871175681E+02  0.00000000000E+00 0. -1.
         21   -1    0    0  501  503 -0.00000000000E+00 -0.00000000000E+00 -0.63730610463E+03  0.63730610463E+03  0.00000000000E+00 0.  1.
          6    2    1    2  501    0 -0.45804597262E+01  0.13322496832E+03 -0.33871039292E+03  0.40308390076E+03  0.17315319224E+03 0.  0.
         24    2    3    3    0    0 -0.42956714610E+02  0.73904791464E+02 -0.29904704479E+03  0.32192423401E+03  0.83059496244E+02 0.  0.
         -6    2    1    2    0  502  0.45804597262E+01 -0.13322496832E+03 -0.22172453603E+03  0.31109337955E+03  0.17276414016E+03 0.  0.
        -24    2    5    5    0    0  0.27955029714E+02 -0.97010886592E+02 -0.23266859634E+03  0.26637545591E+03  0.81416288204E+02 0.  0.
          5    1    3    3  501    0  0.38376254884E+02  0.59320176861E+02 -0.39663348131E+02  0.81159666748E+02  0.47000000000E+01 0. -1.
        -13    1    4    4    0    0  0.13049755357E+02  0.60079876467E+02 -0.15126766672E+03  0.16328439811E+03  0.00000000000E+00 0.  1.
         14    1    4    4    0    0 -0.56006469968E+02  0.13824914997E+02 -0.14777937807E+03  0.15863983590E+03  0.00000000000E+00 0. -1.
         -5    1    5    5    0  502 -0.23374569988E+02 -0.36214081733E+02  0.10944060317E+02  0.44717923634E+02  0.47000000000E+01 0.  1.
         11    1    6    6    0    0 -0.21083341057E+02 -0.21261413883E+01 -0.24405052964E+02  0.32320803788E+02  0.00000000000E+00 0. -1.
        -12    1    6    6    0    0  0.49038370772E+02 -0.94884745204E+02 -0.20826354338E+03  0.23405465213E+03  0.00000000000E+00 0.  1.
</event>
<event>
12    1  0.8251070E-002  0.2226839E+03  0.7818608E-02  0.1132817E+00
         21   -1    0    0  503  502  0.00000000000E+00  0.00000000000E+00  0.43081888539E+03  0.43081888539E+03  0.00000000000E+00 0. -1.
         21   -1    0    0  501  503 -0.00000000000E+00 -0.00000000000E+00 -0.18216593128E+03  0.18216593128E+03  0.00000000000E+00 0. -1.
          6    2    1    2  501    0 -0.89153920504E+02  0.10208962596E+03  0.31291573405E+03  0.38121375996E+03  0.17040235005E+03 0.  0.
         24    2    3    3    0    0 -0.12402901828E+03  0.89419738799E+02  0.21012197330E+03  0.27182708009E+03  0.79747293020E+02 0.  0.
         -6    2    1    2    0  502  0.89153920504E+02 -0.10208962596E+03 -0.64262779939E+02  0.23177105671E+03  0.17668447745E+03 0.  0.
        -24    2    5    5    0    0  0.36159506409E+02  0.22829369466E+01 -0.75948236232E+02  0.11403966878E+03  0.76968758368E+02 0.  0.
          5    1    3    3  501    0  0.34875097777E+02  0.12669887165E+02  0.10279376074E+03  0.10938667987E+03  0.47000000000E+01 0. -1.
        -13    1    4    4    0    0 -0.43113126523E+02 -0.92721099023E+01  0.43476989666E+02  0.61927072682E+02  0.00000000000E+00 0.  1.
         14    1    4    4    0    0 -0.80915891758E+02  0.98691848701E+02  0.16664498364E+03  0.20990000741E+03  0.00000000000E+00 0. -1.
         -5    1    5    5    0  502  0.52994414095E+02 -0.10437256291E+03  0.11685456293E+02  0.11773138792E+03  0.47000000000E+01 0.  1.
         11    1    6    6    0    0  0.51731787606E+02 -0.19728578546E+02 -0.63778088091E+02  0.84457321654E+02  0.00000000000E+00 0. -1.
        -12    1    6    6    0    0 -0.15572281197E+02  0.22011515493E+02 -0.12170148141E+02  0.29582347130E+02  0.00000000000E+00 0.  1.
</event>
<event>
12    1  0.8251070E-002  0.1784640E+03  0.7818608E-02  0.1169683E+00
         21   -1    0    0  503  502  0.00000000000E+00  0.00000000000E+00  0.10347367041E+03  0.10347367041E+03  0.00000000000E+00 0. -1.
         21   -1    0    0  501  503 -0.00000000000E+00 -0.00000000000E+00 -0.92456142387E+03  0.92456142387E+03  0.00000000000E+00 0. -1.
          6    2    1    2  501    0  0.41736628204E+02  0.16066842843E+02 -0.83068652002E+03  0.84931312541E+03  0.17115081322E+03 0.  0.
         24    2    3    3    0    0  0.63851122333E+02  0.63389043975E+02 -0.64666824122E+03  0.65796721219E+03  0.81522398119E+02 0.  0.
         -6    2    1    2    0  502 -0.41736628204E+02 -0.16066842843E+02  0.95987665569E+01  0.17872196887E+03  0.17276954669E+03 0.  0.
        -24    2    5    5    0    0 -0.69620901606E+02 -0.39703769428E+02  0.50554483534E+02  0.12362480239E+03  0.79396956568E+02 0.  0.
          5    1    3    3  501    0 -0.22114494129E+02 -0.47322201133E+02 -0.18401827880E+03  0.19134591321E+03  0.47000000000E+01 0. -1.
        -13    1    4    4    0    0 -0.76882684017E+00  0.54730671094E+02 -0.24480781824E+03  0.25085235762E+03  0.00000000000E+00 0.  1.
         14    1    4    4    0    0  0.64619949173E+02  0.86583728811E+01 -0.40186042298E+03  0.40711485457E+03  0.00000000000E+00 0. -1.
         -5    1    5    5    0  502  0.27884273402E+02  0.23636926586E+02 -0.40955716977E+02  0.55097166485E+02  0.47000000000E+01 0.  1.
         11    1    6    6    0    0 -0.37015748662E+02  0.21267754496E+02  0.27316896434E+02  0.50682303234E+02  0.00000000000E+00 0. -1.
        -12    1    6    6    0    0 -0.32605152943E+02 -0.60971523925E+02  0.23237587101E+02  0.72942499151E+02  0.00000000000E+00 0.  1.
</event>
<event>
12    1  0.8251070E-002  0.1883821E+03  0.7818608E-02  0.1160130E+00
         21   -1    0    0  501  502  0.00000000000E+00  0.00000000000E+00  0.19164711062E+02  0.19164711062E+02  0.00000000000E+00 0. -1.
         21   -1    0    0  502  503 -0.00000000000E+00 -0.00000000000E+00 -0.21863191539E+04  0.21863191539E+04  0.00000000000E+00 0. -1.
         -6    2    1    2    0  503  0.44884842297E+01  0.75607308437E+02 -0.15226565476E+04  0.15342655443E+04  0.17248532416E+03 0.  0.
        -24    2    3    3    0    0 -0.49788077281E+02  0.88348540078E+02 -0.92875354822E+03  0.93773294106E+03  0.80471101951E+02 0.  0.
          6    2    1    2  501    0 -0.44884842297E+01 -0.75607308437E+02 -0.64449789523E+03  0.67121832061E+03  0.17152225913E+03 0.  0.
         24    2    5    5    0    0 -0.45533213713E+02 -0.20568518071E+02 -0.17523187143E+03  0.19693293251E+03  0.74699622867E+02 0.  0.
          5    1    5    5  501    0  0.41044729483E+02 -0.55038790366E+02 -0.46926602380E+03  0.47428538809E+03  0.47000000000E+01 0. -1.
        -13    1    6    6    0    0  0.54820251144E+01  0.12242519739E+02 -0.22197133420E+01  0.13596286855E+02  0.00000000000E+00 0.  1.
         14    1    6    6    0    0 -0.51015238827E+02 -0.32811037810E+02 -0.17301215809E+03  0.18333664566E+03  0.00000000000E+00 0. -1.
         -5    1    3    3    0  503  0.54276561510E+02 -0.12741231641E+02 -0.59390299936E+03  0.59653260327E+03  0.47000000000E+01 0.  1.
         13    1    4    4    0    0  0.36641001042E+01  0.64956533393E+02 -0.34582167582E+03  0.35188834639E+03  0.00000000000E+00 0. -1.
        -14    1    4    4    0    0 -0.53452177385E+02  0.23392006684E+02 -0.58293187240E+03  0.58584459467E+03  0.00000000000E+00 0.  1.
</event>
<event>
12    1  0.8251070E-002  0.2141000E+03  0.7818608E-02  0.1138671E+00
         21   -1    0    0  501  502  0.00000000000E+00  0.00000000000E+00  0.89671389856E+03  0.89671389856E+03  0.00000000000E+00 0. -1.
         21   -1    0    0  502  503 -0.00000000000E+00 -0.00000000000E+00 -0.56624999948E+02  0.56624999948E+02  0.00000000000E+00 0. -1.
         -6    2    1    2    0  503 -0.33306037418E+02 -0.12297625869E+03  0.26491821914E+03  0.33961249009E+03  0.17006624668E+03 0.  0.
        -24    2    3    3    0    0 -0.71081946804E+02 -0.10619180828E+03  0.12963654855E+03  0.19807819211E+03  0.78102446580E+02 0.  0.
          6    2    1    2  501    0  0.33306037418E+02  0.12297625869E+03  0.57517067947E+03  0.61372640842E+03  0.17206493409E+03 0.  0.
         24    2    5    5    0    0 -0.12478455063E+01  0.62622522781E+02  0.14192340177E+03  0.17490772388E+03  0.80791846289E+02 0.  0.
          5    1    5    5  501    0  0.34553882925E+02  0.60353735906E+02  0.43324727771E+03  0.43881868454E+03  0.47000000000E+01 0. -1.
        -11    1    6    6    0    0 -0.22260580956E+02 -0.11310694071E+02  0.41713997430E+02  0.48616076009E+02  0.00000000000E+00 0.  1.
         12    1    6    6    0    0  0.21012735450E+02  0.73933216853E+02  0.10020940434E+03  0.12629164787E+03  0.00000000000E+00 0. -1.
         -5    1    3    3    0  503  0.37775909386E+02 -0.16784450402E+02  0.13528167059E+03  0.14153429797E+03  0.47000000000E+01 0.  1.
         13    1    4    4    0    0 -0.63559672600E+02 -0.70839216006E+02  0.43456334128E+02  0.10462542464E+03  0.00000000000E+00 0. -1.
        -14    1    4    4    0    0 -0.75222742040E+01 -0.35352592279E+02  0.86180214423E+02  0.93452767471E+02  0.00000000000E+00 0.  1.
</event>
<event>
12    1  0.8251070E-002  0.3516485E+03  0.7818608E-02  0.1062288E+00
         21   -1    0    0  501  502  0.00000000000E+00  0.00000000000E+00  0.53339805252E+03  0.53339805252E+03  0.00000000000E+00 0.  1.
         21   -1    0    0  502  503 -0.00000000000E+00 -0.00000000000E+00 -0.23366230114E+03  0.23366230114E+03  0.00000000000E+00 0. -1.
         -6    2    1    2    0  503 -0.11602593494E+03  0.27962329814E+03  0.10002071010E+03  0.36559655332E+03  0.17890078511E+03 0.  0.
        -24    2    3    3    0    0 -0.11713342192E+03  0.29771614795E+03  0.10257336829E+03  0.34669724631E+03  0.85571849559E+02 0.  0.
          6    2    1    2  501    0  0.11602593494E+03 -0.27962329814E+03  0.19971504128E+03  0.40146380034E+03  0.17215074451E+03 0.  0.
         24    2    5    5    0    0  0.10375435062E+03 -0.25323478181E+03  0.10466659749E+03  0.30194876508E+03  0.72973557639E+02 0.  0.
          5    1    5    5  501    0  0.12271584323E+02 -0.26388516324E+02  0.95048443794E+02  0.99515035262E+02  0.47000000000E+01 0. -1.
        -11    1    6    6    0    0 -0.64175448043E+01 -0.61971095142E+02  0.18379372966E+02  0.64956930847E+02  0.00000000000E+00 0.  1.
         12    1    6    6    0    0  0.11017189542E+03 -0.19126368667E+03  0.86287224521E+02  0.23699183424E+03  0.00000000000E+00 0. -1.
         -5    1    3    3    0  503  0.11074869828E+01 -0.18092849812E+02 -0.25526581872E+01  0.18899307012E+02  0.47000000000E+01 0.  1.
         13    1    4    4    0    0 -0.12426568061E+03  0.21836118945E+03  0.71991523414E+02  0.26135483137E+03  0.00000000000E+00 0. -1.
        -14    1    4    4    0    0  0.71322586908E+01  0.79354958494E+02  0.30581844874E+02  0.85342414939E+02  0.00000000000E+00 0.  1.
</event>
<event>
12    1  0.8251070E-002  0.1857905E+03  0.7818608E-02  0.1162561E+00
         21   -1    0    0  503  502  0.00000000000E+00  0.00000000000E+00  0.11704338836E+04  0.11704338836E+04  0.00000000000E+00 0. -1.
         21   -1    0    0  501  503 -0.00000000000E+00 -0.00000000000E+00 -0.41181820159E+02  0.41181820159E+02  0.00000000000E+00 0. -1.
          6    2    1    2  501    0  0.41231570702E+02  0.46854194687E+02  0.24069409095E+03  0.30405882748E+03  0.17499362035E+03 0.  0.
         24    2    3    3    0    0  0.16813336541E+01 -0.42749715606E+02  0.12096700159E+03  0.14930176652E+03  0.76338960846E+02 0.  0.
         -6    2    1    2    0  502 -0.41231570702E+02 -0.46854194687E+02  0.88855797249E+03  0.90755687629E+03  0.17386447376E+03 0.  0.
        -24    2    5    5    0    0  0.45158477487E+02 -0.24427253445E+02  0.49049466177E+03  0.49958298317E+03  0.79763181053E+02 0.  0.
          5    1    3    3  501    0  0.39550237047E+02  0.89603910293E+02  0.11972708936E+03  0.15475706096E+03  0.47000000000E+01 0. -1.
        -11    1    4    4    0    0  0.27420779719E+02 -0.50948984784E+02  0.98180385819E+02  0.11396089843E+03  0.00000000000E+00 0.  1.
         12    1    4    4    0    0 -0.25739446065E+02  0.81992691776E+01  0.22786615776E+02  0.35340868090E+02  0.00000000000E+00 0. -1.
         -5    1    5    5    0  502 -0.86390048189E+02 -0.22426941242E+02  0.39806331073E+03  0.40797389312E+03  0.47000000000E+01 0.  1.
         11    1    6    6    0    0  0.15702058727E+02 -0.50526910968E+02  0.33673660928E+03  0.34086810852E+03  0.00000000000E+00 0. -1.
        -12    1    6    6    0    0  0.29456418760E+02  0.26099657523E+02  0.15375805249E+03  0.15871487465E+03  0.00000000000E+00 0.  1.
</event>
<event>
12    1  0.8251070E-002  0.1772696E+03  0.7818608E-02  0.1171315E+00
         21   -1    0    0  501  502  0.00000000000E+00  0.00000000000E+00  0.28525086097E+02  0.28525086097E+02  0.00000000000E+00 0. -1.
         21   -1    0    0  502  503 -0.00000000000E+00 -0.00000000000E+00 -0.11312943729E+04  0.11312943729E+04  0.00000000000E+00 0. -1.
         -6    2    1    2    0  503 -0.18596295736E+02 -0.13961053603E+02 -0.66889372882E+03  0.69112711738E+03  0.17232857772E+03 0.  0.
        -24    2    3    3    0    0  0.46152584634E+02 -0.15036883295E+02 -0.49098611095E+03  0.50174183439E+03  0.91221369778E+02 0.  0.
          6    2    1    2  501    0  0.18596295736E+02  0.13961053603E+02 -0.43387555802E+03  0.46869234165E+03  0.17573781050E+03 0.  0.
         24    2    5    5    0    0 -0.52774733653E+02 -0.96134749928E+01 -0.19488023340E+03  0.21811214007E+03  0.81957360015E+02 0.  0.
          5    1    5    5  501    0  0.71371029389E+02  0.23574528595E+02 -0.23899532462E+03  0.25058020158E+03  0.47000000000E+01 0. -1.
        -11    1    6    6    0    0 -0.38844469322E+02  0.24857678806E+02 -0.16214303696E+03  0.16857390494E+03  0.00000000000E+00 0.  1.
         12    1    6    6    0    0 -0.13930264331E+02 -0.34471153799E+02 -0.32737196441E+02  0.49538235126E+02  0.00000000000E+00 0. -1.
         -5    1    3    3    0  503 -0.64748880371E+02  0.10758296928E+01 -0.17790761787E+03  0.18938528299E+03  0.47000000000E+01 0.  1.
         13    1    4    4    0    0 -0.22014063476E+02  0.70108391402E+01 -0.22813694534E+03  0.22930380871E+03  0.00000000000E+00 0. -1.
        -14    1    4    4    0    0  0.68166648110E+02 -0.22047722436E+02 -0.26284916560E+03  0.27243802568E+03  0.00000000000E+00 0.  1.
</event>
<event>
12    1  0.8251070E-002  0.1912871E+03  0.7818608E-02  0.1157332E+00
         21   -1    0    0  503  502  0.00000000000E+00  0.00000000000E+00  0.11658815152E+04  0.11658815152E+04  0.00000000000E+00 0.  1.
         21   -1    0    0  501  503 -0.00000000000E+00 -0.00000000000E+00 -0.60061343673E+02  0.60061343673E+02  0.00000000000E+00 0.  1.
          6    2    1    2  501    0  0.32145472991E+02  0.76972088269E+02  0.12912092071E+03  0.23068802916E+03  0.17200790919E+03 0.  0.
         24    2    3    3    0    0  0.69772532890E+02  0.95621050640E+02  0.12130130916E+03  0.18771343481E+03  0.80689121534E+02 0.  0.
         -6    2    1    2    0  502 -0.32145472991E+02 -0.76972088269E+02  0.97669925083E+03  0.99525482973E+03  0.17214155723E+03 0.  0.
        -24    2    5    5    0    0 -0.39240535000E+02 -0.58741960885E+02  0.29991049567E+03  0.31816710532E+03  0.79331985563E+02 0.  0.
          5    1    3    3  501    0 -0.37627059899E+02 -0.18648962371E+02  0.78196115498E+01  0.42974594343E+02  0.47000000000E+01 0. -1.
        -13    1    4    4    0    0  0.46517271211E+02  0.62036482083E+02  0.22403714514E+02  0.80711263491E+02  0.00000000000E+00 0.  1.
         14    1    4    4    0    0  0.23255261679E+02  0.33584568557E+02  0.98897594647E+02  0.10700217132E+03  0.00000000000E+00 0. -1.
         -5    1    5    5    0  502  0.70950620085E+01 -0.18230127383E+02  0.67678875516E+03  0.67708772442E+03  0.47000000000E+01 0.  1.
         11    1    6    6    0    0 -0.15187714863E+02  0.19301157516E+02  0.69730698371E+02  0.73929504661E+02  0.00000000000E+00 0. -1.
        -12    1    6    6    0    0 -0.24052820137E+02 -0.78043118402E+02  0.23017979730E+03  0.24423760065E+03  0.00000000000E+00 0.  1.
</event>
<event>
12    1  0.8251070E-002  0.2169426E+03  0.7818608E-02  0.1136372E+00
         21   -1    0    0  501  502  0.00000000000E+00  0.00000000000E+00  0.94890561120E+02  0.94890561120E+02  0.00000000000E+00 0. -1.
         21   -1    0    0  502  503 -0.00000000000E+00 -0.00000000000E+00 -0.52638262612E+03  0.52638262612E+03  0.00000000000E+00 0.  1.
         -6    2    1    2    0  503  0.94668436202E+02  0.90868584373E+02 -0.29267062692E+03  0.36371646801E+03  0.17150615384E+03 0.  0.
        -24    2    3    3    0    0  0.33925144427E+02  0.10339438152E+03 -0.12421140339E+03  0.18414129411E+03  0.81475333135E+02 0.  0.
          6    2    1    2  501    0 -0.94668436202E+02 -0.90868584373E+02 -0.13882143808E+03  0.25755671923E+03  0.17275664823E+03 0.  0.
         24    2    5    5    0    0 -0.12278729772E+03 -0.28733399988E+02 -0.90951878806E+02  0.17409992671E+03  0.78333973892E+02 0.  0.
          5    1    5    5  501    0  0.28118861520E+02 -0.62135184385E+02 -0.47869559278E+02  0.83456792517E+02  0.47000000000E+01 0. -1.
        -13    1    6    6    0    0 -0.75699291063E+02  0.59121765683E+01 -0.87046467017E+02  0.11550941052E+03  0.00000000000E+00 0.  1.
         14    1    6    6    0    0 -0.47088006659E+02 -0.34645576556E+02 -0.39054117897E+01  0.58590516189E+02  0.00000000000E+00 0. -1.
         -5    1    3    3    0  503  0.60743291776E+02 -0.12525797150E+02 -0.16845922353E+03  0.17957517390E+03  0.47000000000E+01 0.  1.
         13    1    4    4    0    0  0.18104924612E+02  0.24110854610E+02  0.61243621422E+01  0.30767343351E+02  0.00000000000E+00 0. -1.
        -14    1    4    4    0    0  0.15820219815E+02  0.79283526914E+02 -0.13033576553E+03  0.15337395076E+03  0.00000000000E+00 0.  1.
</event>
<event>
12    1  0.8251070E-002  0.1890322E+03  0.7818608E-02  0.1159946E+00
         21   -1    0    0  501  502  0.00000000000E+00  0.00000000000E+00  0.89687780944E+03  0.89687780944E+03  0.00000000000E+00 0. -1.
         21   -1    0    0  502  503 -0.00000000000E+00 -0.00000000000E+00 -0.20968883720E+03  0.20968883720E+03  0.00000000000E+00 0. -1.
         -6    2    1    2    0  503  0.73748007201E+02  0.13070670053E+02 -0.15471949063E+03  0.24427710460E+03  0.17356143601E+03 0.  0.
        -24    2    3    3    0    0  0.10602491445E+03  0.35502838919E+02 -0.15127850420E+03  0.20454133571E+03  0.80313374524E+02 0.  0.
          6    2    1    2  501    0 -0.73748007201E+02 -0.13070670053E+02  0.84190846286E+03  0.86228954205E+03  0.17065691753E+03 0.  0.
         24    2    5    5    0    0 -0.45428348972E+02  0.57544128431E+02  0.44545592884E+03  0.45857534297E+03  0.80531354323E+02 0.  0.
          5    1    5    5  501    0 -0.28319658229E+02 -0.70614798484E+02  0.39645253402E+03  0.40371419908E+03  0.47000000000E+01 0. -1.
        -13    1    6    6    0    0  0.19903844832E+02 -0.23758348917E+01  0.93769175510E+02  0.95887777669E+02  0.00000000000E+00 0.  1.
         14    1    6    6    0    0 -0.65332193805E+02  0.59919963323E+02  0.35168675333E+03  0.36268756530E+03  0.00000000000E+00 0. -1.
         -5    1    3    3    0  503 -0.32276907246E+02 -0.22432168866E+02 -0.34409864289E+01  0.39735768887E+02  0.47000000000E+01 0.  1.
         13    1    4    4    0    0  0.50065561961E+02  0.30431766673E+02 -0.13319997842E+03  0.14551593441E+03  0.00000000000E+00 0. -1.
        -14    1    4    4    0    0  0.55959352486E+02  0.50710722467E+01 -0.18078525783E+02  0.59025401302E+02  0.00000000000E+00 0.  1.
</event>
<event>
12    1  0.8251070E-002  0.2191674E+03  0.7818608E-02  0.1134758E+00
         21   -1    0    0  503  502  0.00000000000E+00  0.00000000000E+00  0.35529106333E+02  0.35529106333E+02  0.00000000000E+00 0. -1.
         21   -1    0    0  501  503 -0.00000000000E+00 -0.00000000000E+00 -0.14157710124E+04  0.14157710124E+04  0.00000000000E+00 0.  1.
          6    2    1    2  501    0  0.35070605976E+02  0.12963034660E+03 -0.52838966704E+03  0.57204019261E+03  0.17320614183E+03 0.  0.
         24    2    3    3    0    0  0.13526854051E+02  0.64604705103E+02 -0.47371206650E+03  0.48426663566E+03  0.75857160277E+02 0.  0.
         -6    2    1    2    0  502 -0.35070605976E+02 -0.12963034660E+03 -0.85185223899E+03  0.87925992608E+03  0.17149870664E+03 0.  0.
        -24    2    5    5    0    0 -0.59958347305E+02 -0.13878938642E+03 -0.55242496738E+03  0.57862381936E+03  0.82308459803E+02 0.  0.
          5    1    3    3  501    0  0.21543751926E+02  0.65025641494E+02 -0.54677600534E+02  0.87773556946E+02  0.47000000000E+01 0. -1.
        -13    1    4    4    0    0  0.24005603023E+01 -0.88294733812E+01 -0.21259911258E+03  0.21279592327E+03  0.00000000000E+00 0.  1.
         14    1    4    4    0    0  0.11126293748E+02  0.73434178484E+02 -0.26111295392E+03  0.27147071239E+03  0.00000000000E+00 0. -1.
         -5    1    5    5    0  502  0.24887741329E+02  0.91590398279E+01 -0.29942727161E+03  0.30063610672E+03  0.47000000000E+01 0.  1.
         13    1    6    6    0    0 -0.42227279886E+02 -0.93012205273E+02 -0.21956879144E+03  0.24216702432E+03  0.00000000000E+00 0. -1.
        -14    1    6    6    0    0 -0.17731067419E+02 -0.45777181151E+02 -0.33285617594E+03  0.33645679504E+03  0.00000000000E+00 0.  1.
</event>
<event>
12    1  0.8251070E-002  0.2030914E+03  0.7818608E-02  0.1147432E+00
         21   -1    0    0  501  502  0.00000000000E+00  0.00000000000E+00  0.12175445969E+04  0.12175445969E+04  0.00000000000E+00 0.  1.
         21   -1    0    0  502  503 -0.00000000000E+00 -0.00000000000E+00 -0.19512566693E+03  0.19512566693E+03  0.00000000000E+00 0.  1.
         -6    2    1    2    0  503 -0.39375162015E+02  0.98948932648E+02 -0.13161757193E+03  0.24089964613E+03  0.17137140838E+03 0.  0.
        -24    2    3    3    0    0  0.36045727792E+02  0.17633981143E+02 -0.47194829840E+02  0.10143738837E+03  0.80323969108E+02 0.  0.
          6    2    1    2  501    0  0.39375162015E+02 -0.98948932648E+02  0.11540365019E+04  0.11717706177E+04  0.17293015385E+03 0.  0.
         24    2    5    5    0    0  0.43770132184E+02 -0.98910872948E+02  0.11569354828E+04  0.11647129055E+04  0.79732400288E+02 0.  0.
          5    1    5    5  501    0 -0.43949701688E+01 -0.38059700349E-01 -0.28989808773E+01  0.70577121968E+01  0.47000000000E+01 0. -1.
        -13    1    6    6    0    0  0.18954679462E+02 -0.88934584722E+02  0.57345314826E+03  0.58061790662E+03  0.00000000000E+00 0.  1.
         14    1    6    6    0    0  0.24815452722E+02 -0.99762882255E+01  0.58348233456E+03  0.58409499892E+03  0.00000000000E+00 0. -1.
         -5    1    3    3    0  503 -0.75420889807E+02  0.81314951505E+02 -0.84422742095E+02  0.13946225776E+03  0.47000000000E+01 0.  1.
         11    1    4    4    0    0  0.60741149801E+02  0.15817836520E+02 -0.43580165184E+02  0.76412839424E+02  0.00000000000E+00 0. -1.
        -12    1    4    4    0    0 -0.24695422009E+02  0.18161446232E+01 -0.36146646558E+01  0.25024548949E+02  0.00000000000E+00 0.  1.
</event>
<event>
12    1  0.8251070E-002  0.2001274E+03  0.7818608E-02  0.1150368E+00
         21   -1    0    0  503  502  0.00000000000E+00  0.00000000000E+00  0.89857342352E+03  0.89857342352E+03  0.00000000000E+00 0.  1.
         21   -1    0    0  501  503 -0.00000000000E+00 -0.00000000000E+00 -0.45227307488E+02  0.45227307488E+02  0.00000000000E+00 0.  1.
          6    2    1    2  501    0  0.97512042203E+02 -0.21478014293E+02  0.33934891503E+03  0.39221745549E+03  0.16943123322E+03 0.  0.
         24    2    3    3    0    0  0.71132340953E+02 -0.54868500512E+02  0.32599550309E+03  0.34737086345E+03  0.79517837360E+02 0.  0.
         -6    2    1    2    0  502 -0.97512042203E+02  0.21478014293E+02  0.51399720101E+03  0.55158327552E+03  0.17343899133E+03 0.  0.
        -24    2    5    5    0    0 -0.26161809264E+02 -0.48603524190E+02  0.21700131441E+03  0.23816514517E+03  0.81156164826E+02 0.  0.
          5    1    3    3  501    0  0.26379701249E+02  0.33390486218E+02  0.13353411938E+02  0.44846592048E+02  0.47000000000E+01 0. -1.
        -13    1    4    4    0    0 -0.66878627460E+01 -0.40229001615E+02  0.10913003894E+03  0.11650092479E+03  0.00000000000E+00 0.  1.
         14    1    4    4    0    0  0.77820203699E+02 -0.14639498897E+02  0.21686546415E+03  0.23086993866E+03  0.00000000000E+00 0. -1.
         -5    1    5    5    0  502 -0.71350232939E+02  0.70081538483E+02  0.29699588660E+03  0.31341813035E+03  0.47000000000E+01 0.  1.
         13    1    6    6    0    0 -0.20104775577E+02 -0.13659765126E+02  0.19482987360E+03  0.19634019159E+03  0.00000000000E+00 0. -1.
        -14    1    6    6    0    0 -0.60570336869E+01 -0.34943759064E+02  0.22171440809E+02  0.41824953582E+02  0.00000000000E+00 0.  1.
</event>
<event>
12    1  0.8251070E-002  0.2385120E+03  0.7818608E-02  0.1121305E+00
         21   -1    0    0  501  502  0.00000000000E+00  0.00000000000E+00  0.15733127175E+03  0.15733127175E+03  0.00000000000E+00 0. -1.
         21   -1    0    0  502  503 -0.00000000000E+00 -0.00000000000E+00 -0.38619374324E+03  0.38619374324E+03  0.00000000000E+00 0.  1.
         -6    2    1    2    0  503  0.23778176800E+02 -0.16154434365E+03 -0.38975025561E+02  0.23865582413E+03  0.16963364382E+03 0.  0.
        -24    2    3    3    0    0 -0.30669147108E+02 -0.46075045706E+02 -0.51883240227E+02  0.11025651785E+03  0.80007016505E+02 0.  0.
          6    2    1    2  501    0 -0.23778176800E+02  0.16154434365E+03 -0.18988744593E+03  0.30486919087E+03  0.17385627617E+03 0.  0.
         24    2    5    5    0    0 -0.25746264693E+02  0.17227669185E+03 -0.20813362499E+03  0.28309604874E+03  0.80508622259E+02 0.  0.
          5    1    5    5  501    0  0.19680878931E+01 -0.10732348204E+02  0.18246179061E+02  0.21773142131E+02  0.47000000000E+01 0. -1.
        -11    1    6    6    0    0 -0.16690949170E+02  0.10975640953E+03 -0.70111457165E+02  0.13130374573E+03  0.00000000000E+00 0.  1.
         12    1    6    6    0    0 -0.90553155227E+01  0.62520282322E+02 -0.13802216783E+03  0.15179230301E+03  0.00000000000E+00 0. -1.
         -5    1    3    3    0  503  0.54447323908E+02 -0.11546929794E+03  0.12908214666E+02  0.12839930628E+03  0.47000000000E+01 0.  1.
         11    1    4    4    0    0 -0.24704162533E+02  0.15336883476E+02 -0.36500517327E+02  0.46666941258E+02  0.00000000000E+00 0. -1.
        -12    1    4    4    0    0 -0.59649845751E+01 -0.61411929183E+02 -0.15382722900E+02  0.63589576589E+02  0.00000000000E+00 0.  1.
</event>
<event>
12    1  0.8251070E-002  0.2866742E+03  0.7818608E-02  0.1092483E+00
         21   -1    0    0  501  502  0.00000000000E+00  0.00000000000E+00  0.97767668356E+03  0.97767668356E+03  0.00000000000E+00 0.  1.
         21   -1    0    0  502  503 -0.00000000000E+00 -0.00000000000E+00 -0.11915612214E+03  0.11915612214E+03  0.00000000000E+00 0. -1.
         -6    2    1    2    0  503  0.22957348039E+03 -0.21476196357E+02  0.12655088587E+03  0.31072740994E+03  0.16544239682E+03 0.  0.
        -24    2    3    3    0    0  0.20164237460E+03 -0.57836612171E+02  0.13706123598E+03  0.26345390819E+03  0.81347762027E+02 0.  0.
          6    2    1    2  501    0 -0.22957348039E+03  0.21476196357E+02  0.73196967554E+03  0.78610539576E+03  0.17034341025E+03 0.  0.
         24    2    5    5    0    0 -0.13286459944E+03 -0.35020442797E+02  0.54732678295E+03  0.57009714204E+03  0.81022903104E+02 0.  0.
          5    1    5    5  501    0 -0.96708880945E+02  0.56496639154E+02  0.18464289259E+03  0.21600825372E+03  0.47000000000E+01 0. -1.
        -13    1    6    6    0    0 -0.42632044893E+02 -0.13204295274E+02  0.34024302501E+03  0.34315763248E+03  0.00000000000E+00 0.  1.
         14    1    6    6    0    0 -0.90232554552E+02 -0.21816147523E+02  0.20708375794E+03  0.22693950955E+03  0.00000000000E+00 0. -1.
         -5    1    3    3    0  503  0.27931105785E+02  0.36360415814E+02 -0.10510350111E+02  0.47273501753E+02  0.47000000000E+01 0.  1.
         11    1    4    4    0    0  0.59211807701E+02 -0.56232080497E+01  0.71004772179E+00  0.59482457983E+02  0.00000000000E+00 0. -1.
        -12    1    4    4    0    0  0.14243056690E+03 -0.52213404121E+02  0.13635118826E+03  0.20397145020E+03  0.00000000000E+00 0.  1.
</event>
<event>
12    1  0.8251070E-002  0.1739787E+03  0.7818608E-02  0.1173816E+00
         21   -1    0    0  501  502  0.00000000000E+00  0.00000000000E+00  0.62729206148E+02  0.62729206148E+02  0.00000000000E+00 0.  1.
         21   -1    0    0  502  503 -0.00000000000E+00 -0.00000000000E+00 -0.48870788065E+03  0.48870788065E+03  0.00000000000E+00 0.  1.
         -6    2    1    2    0  503 -0.24133844209E+02 -0.14137600310E+02 -0.18064683514E+03  0.25080241849E+03  0.17171563672E+03 0.  0.
        -24    2    3    3    0    0 -0.15689504765E+02  0.50087645377E+02 -0.15010998710E+03  0.17903349666E+03  0.82249935690E+02 0.  0.
          6    2    1    2  501    0  0.24133844209E+02  0.14137600310E+02 -0.24533183935E+03  0.30063466830E+03  0.17149687520E+03 0.  0.
         24    2    5    5    0    0 -0.27197435183E+02 -0.30592471290E+02 -0.75228819988E+02  0.11735126276E+03  0.80226826775E+02 0.  0.
          5    1    5    5  501    0  0.51331279392E+02  0.44730071600E+02 -0.17010301937E+03  0.18328340554E+03  0.47000000000E+01 0. -1.
        -11    1    6    6    0    0  0.46271184470E+01 -0.37772998880E+02 -0.75695691728E+02  0.84723358147E+02  0.00000000000E+00 0.  1.
         12    1    6    6    0    0 -0.31824553630E+02  0.71805275903E+01  0.46687173949E+00  0.32627904613E+02  0.00000000000E+00 0. -1.
         -5    1    3    3    0  503 -0.84443394436E+01 -0.64225245687E+02 -0.30536848047E+02  0.71768921831E+02  0.47000000000E+01 0.  1.
         11    1    4    4    0    0 -0.47951570130E+02  0.32230900944E+02 -0.69424742136E+02  0.90321530513E+02  0.00000000000E+00 0. -1.
        -12    1    4    4    0    0  0.32262065365E+02  0.17856744433E+02 -0.80685244962E+02  0.88711966148E+02  0.00000000000E+00 0.  1.
</event>
<event>
12    1  0.8251070E-002  0.1804518E+03  0.7818608E-02  0.1168322E+00
         21   -1    0    0  503  502  0.00000000000E+00  0.00000000000E+00  0.12429463589E+03  0.12429463589E+03  0.00000000000E+00 0. -1.
         21   -1    0    0  501  503 -0.00000000000E+00 -0.00000000000E+00 -0.12856378972E+04  0.12856378972E+04  0.00000000000E+00 0. -1.
          6    2    1    2  501    0  0.35044845756E+02  0.56972978798E+01 -0.12127212539E+04  0.12260732809E+04  0.17692441913E+03 0.  0.
         24    2    3    3    0    0  0.47926340201E+02  0.15915493322E+01 -0.32157208381E+03  0.33480916550E+03  0.79931877881E+02 0.  0.
         -6    2    1    2    0  502 -0.35044845756E+02 -0.56972978798E+01  0.51377992634E+02  0.18385925214E+03  0.17292751676E+03 0.  0.
        -24    2    5    5    0    0 -0.40836496087E+02  0.59247850916E+02  0.47085491687E+02  0.11834642034E+03  0.81307468470E+02 0.  0.
          5    1    3    3  501    0 -0.12881494445E+02  0.41057485475E+01 -0.89114917008E+03  0.89126411540E+03  0.47000000000E+01 0. -1.
        -11    1    4    4    0    0  0.89869453242E+01  0.38474403850E+02 -0.13010710245E+03  0.13597390575E+03  0.00000000000E+00 0.  1.
         12    1    4    4    0    0  0.38939394877E+02 -0.36882854518E+02 -0.19146498136E+03  0.19883525975E+03  0.00000000000E+00 0. -1.
         -5    1    5    5    0  502  0.57916503310E+01 -0.64945148796E+02  0.42925009472E+01  0.65512831797E+02  0.47000000000E+01 0.  1.
         11    1    6    6    0    0 -0.11673657972E+02  0.40475475346E+02  0.66409987902E+02  0.78643657647E+02  0.00000000000E+00 0. -1.
        -12    1    6    6    0    0 -0.29162838115E+02  0.18772375571E+02 -0.19324496216E+02  0.39702762693E+02  0.00000000000E+00 0.  1.
</event>
<event>
12    1  0.8251070E-002  0.2134684E+03  0.7818608E-02  0.1139094E+00
         21   -1    0    0  503  502  0.00000000000E+00  0.00000000000E+00  0.34105015866E+03  0.34105015866E+03  0.00000000000E+00 0. -1.
         21   -1    0    0  501  503 -0.00000000000E+00 -0.00000000000E+00 -0.22730232368E+03  0.22730232368E+03  0.00000000000E+00 0.  1.
          6    2    1    2  501    0  0.26017214090E+02 -0.12330010882E+03 -0.12623715710E+03  0.24800116380E+03  0.17230480304E+03 0.  0.
         24    2    3    3    0    0 -0.99113591410E+01 -0.10969016776E+03 -0.17297261220E+02  0.13238938333E+03  0.71397378302E+02 0.  0.
         -6    2    1    2    0  502 -0.26017214090E+02  0.12330010882E+03  0.23998499208E+03  0.32035131854E+03  0.17074061790E+03 0.  0.
        -24    2    5    5    0    0 -0.41901876084E+02  0.15200279843E+03  0.18249593453E+03  0.25399433989E+03  0.79672709427E+02 0.  0.
          5    1    3    3  501    0  0.35928573232E+02 -0.13609941060E+02 -0.10893989588E+03  0.11561178047E+03  0.47000000000E+01 0. -1.
        -13    1    4    4    0    0 -0.27543204158E+02 -0.63034673407E+02 -0.37768297877E+02  0.78475744477E+02  0.00000000000E+00 0.  1.
         14    1    4    4    0    0  0.17631845017E+02 -0.46655494355E+02  0.20471036657E+02  0.53913638850E+02  0.00000000000E+00 0. -1.
         -5    1    5    5    0  502  0.15884661993E+02 -0.28702689604E+02  0.57489057551E+02  0.66356978648E+02  0.47000000000E+01 0.  1.
         13    1    6    6    0    0  0.20807159766E+02  0.14174699950E+02  0.28356928969E+02  0.37920646576E+02  0.00000000000E+00 0. -1.
        -14    1    6    6    0    0 -0.62709035850E+02  0.13782809848E+03  0.15413900556E+03  0.21607369332E+03  0.00000000000E+00 0.  1.
</event>
<event>
12    1  0.8251070E-002  0.2531877E+03  0.7818608E-02  0.1111340E+00
         21   -1    0    0  501  502  0.00000000000E+00  0.00000000000E+00  0.13131621905E+04  0.13131621905E+04  0.00000000000E+00 0.  1.
         21   -1    0    0  502  503 -0.00000000000E+00 -0.00000000000E+00 -0.27970085882E+03  0.27970085882E+03  0.00000000000E+00 0.  1.
         -6    2    1    2    0  503 -0.18282397632E+03  0.31798379273E+02 -0.20697244234E+03  0.32685357913E+03  0.17193000627E+03 0.  0.
        -24    2    3    3    0    0 -0.16094850558E+03 -0.29071826009E+02 -0.18189803396E+03  0.25732276533E+03  0.79865626433E+02 0.  0.
          6    2    1    2  501    0  0.18282397632E+03 -0.31798379273E+02  0.12404337741E+04  0.12660094702E+04  0.17224484795E+03 0.  0.
         24    2    5    5    0    0  0.13269215481E+03 -0.15230594934E+02  0.11548470305E+04  0.11653373704E+04  0.80624711350E+02 0.  0.
          5    1    5    5  501    0  0.50131821511E+02 -0.16567784338E+02  0.85586743534E+02  0.10067209978E+03  0.47000000000E+01 0. -1.
        -11    1    6    6    0    0  0.87155173256E+02 -0.13455423265E+02  0.42416086984E+03  0.43323148101E+03  0.00000000000E+00 0.  1.
         12    1    6    6    0    0  0.45536981556E+02 -0.17751716691E+01  0.73068616069E+03  0.73210588943E+03  0.00000000000E+00 0. -1.
         -5    1    3    3    0  503 -0.21875470747E+02  0.60870205282E+02 -0.25074408384E+02  0.69530813797E+02  0.47000000000E+01 0.  1.
         13    1    4    4    0    0 -0.27531498965E+02 -0.19924281350E+02 -0.86831690171E+02  0.93245390452E+02  0.00000000000E+00 0. -1.
        -14    1    4    4    0    0 -0.13341700661E+03 -0.91475446598E+01 -0.95066343784E+02  0.16407737488E+03  0.00000000000E+00 0.  1.
</event>
<event>
12    1  0.8251070E-002  0.1920168E+03  0.7818608E-02  0.1156715E+00
         21   -1    0    0  503  502  0.00000000000E+00  0.00000000000E+00  0.21967322109E+04  0.21967322109E+04  0.00000000000E+00 0. -1.
         21   -1    0    0  501  503 -0.00000000000E+00 -0.00000000000E+00 -0.27092537399E+02  0.27092537399E+02  0.00000000000E+00 0. -1.
          6    2    1    2  501    0  0.85063581100E+02  0.71125131379E+01  0.39863846499E+03  0.44247381513E+03  0.17200014718E+03 0.  0.
         24    2    3    3    0    0  0.91556638535E+02  0.60915891371E+02  0.25251719252E+03  0.28655563282E+03  0.79093832270E+02 0.  0.
         -6    2    1    2    0  502 -0.85063581100E+02 -0.71125131379E+01  0.17710012085E+04  0.17813509332E+04  0.17169585289E+03 0.  0.
        -24    2    5    5    0    0 -0.21972602859E+02 -0.41219909841E+02  0.14254237823E+04  0.14283783654E+04  0.79056432709E+02 0.  0.
          5    1    3    3  501    0 -0.64930574353E+01 -0.53803378233E+02  0.14612127248E+03  0.15591818231E+03  0.47000000000E+01 0. -1.
        -11    1    4    4    0    0  0.41497608937E+02  0.71163124057E+02  0.13121972870E+03  0.15493501532E+03  0.00000000000E+00 0.  1.
         12    1    4    4    0    0  0.50059029597E+02 -0.10247232686E+02  0.12129746381E+03  0.13162061750E+03  0.00000000000E+00 0. -1.
         -5    1    5    5    0  502 -0.63090978241E+02  0.34107396703E+02  0.34557742626E+03  0.35297256775E+03  0.47000000000E+01 0.  1.
         11    1    6    6    0    0 -0.45128918134E+02 -0.42588660208E+02  0.75221030723E+03  0.75476536720E+03  0.00000000000E+00 0. -1.
        -12    1    6    6    0    0  0.23156315276E+02  0.13687503667E+01  0.67321347505E+03  0.67361299824E+03  0.00000000000E+00 0.  1.
</event>
<event>
12    1  0.8251070E-002  0.1843000E+03  0.7818608E-02  0.1163809E+00
         21   -1    0    0  501  502  0.00000000000E+00  0.00000000000E+00  0.12100642241E+03  0.12100642241E+03  0.00000000000E+00 0. -1.
         21   -1    0    0  502  503 -0.00000000000E+00 -0.00000000000E+00 -0.34361257730E+03  0.34361257730E+03  0.00000000000E+00 0. -1.
         -6    2    1    2    0  503 -0.64477059664E+02  0.72375392983E+01 -0.21134239688E+03  0.28041416311E+03  0.17250165493E+03 0.  0.
        -24    2    3    3    0    0 -0.95514080016E+02 -0.17458540982E+02 -0.20515648861E+03  0.23999698267E+03  0.77984785299E+02 0.  0.
          6    2    1    2  501    0  0.64477059664E+02 -0.72375392983E+01 -0.11263758003E+02  0.18420483660E+03  0.17203161449E+03 0.  0.
         24    2    5    5    0    0  0.53842956471E+02 -0.64747883065E+02 -0.24602950087E+02  0.12403384827E+03  0.87679747035E+02 0.  0.
          5    1    5    5  501    0  0.10634103193E+02  0.57510343767E+02  0.13339192083E+02  0.60170988327E+02  0.47000000000E+01 0. -1.
        -13    1    6    6    0    0  0.88171174104E+00  0.18386957345E+02  0.81942579857E+01  0.20149528033E+02  0.00000000000E+00 0.  1.
         14    1    6    6    0    0  0.52961244730E+02 -0.83134840410E+02 -0.32797208072E+02  0.10388432023E+03  0.00000000000E+00 0. -1.
         -5    1    3    3    0  503  0.31037020352E+02  0.24696080280E+02 -0.61859082767E+01  0.40417180440E+02  0.47000000000E+01 0.  1.
         13    1    4    4    0    0 -0.84335882011E+02 -0.38254183280E+02 -0.11970943685E+03  0.15134818402E+03  0.00000000000E+00 0. -1.
        -14    1    4    4    0    0 -0.11178198004E+02  0.20795642299E+02 -0.85447051754E+02  0.88648798654E+02  0.00000000000E+00 0.  1.
</event>
<event>
12    1  0.8251070E-002  0.1876041E+03  0.7818608E-02  0.1161948E+00
         21   -1    0    0  503  502  0.00000000000E+00  0.00000000000E+00  0.17930034801E+04  0.17930034801E+04  0.00000000000E+00 0. -1.
         21   -1    0    0  501  503 -0.00000000000E+00 -0.00000000000E+00 -0.40319691555E+02  0.40319691555E+02  0.00000000000E+00 0. -1.
          6    2    1    2  501    0  0.28539884938E+02 -0.70028820667E+02  0.15358556510E+04  0.15466007611E+04  0.16553782906E+03 0.  0.
         24    2    3    3    0    0  0.72705563035E+02 -0.23683908293E+02  0.74272591214E+03  0.75087761160E+03  0.79551119617E+02 0.  0.
         -6    2    1    2    0  502 -0.28539884938E+02  0.70028820667E+02  0.21682813756E+03  0.28672241054E+03  0.17168791080E+03 0.  0.
        -24    2    5    5    0    0 -0.69606411615E+02  0.76598364532E+02  0.20302795984E+03  0.24265254073E+03  0.83351910966E+02 0.  0.
          5    1    3    3  501    0 -0.44165678097E+02 -0.46344912374E+02  0.79312973883E+03  0.79572314950E+03  0.47000000000E+01 0. -1.
        -11    1    4    4    0    0  0.64889946000E+02 -0.41489513589E+02  0.38527043132E+03  0.39289361165E+03  0.00000000000E+00 0.  1.
         12    1    4    4    0    0  0.78156170355E+01  0.17805605296E+02  0.35745548083E+03  0.35798399995E+03  0.00000000000E+00 0. -1.
         -5    1    5    5    0  502  0.41066526676E+02 -0.65695438656E+01  0.13800177722E+02  0.44069869810E+02  0.47000000000E+01 0.  1.
         11    1    6    6    0    0 -0.10790997406E+02 -0.14591167370E+02  0.88017996527E+01  0.20169766170E+02  0.00000000000E+00 0. -1.
        -12    1    6    6    0    0 -0.58815414209E+02  0.91189531903E+02  0.19422616018E+03  0.22248277456E+03  0.00000000000E+00 0.  1.
</event>
<event>
12    1  0.8251070E-002  0.2321899E+03  0.7818608E-02  0.1125926E+00
         21   -1    0    0  501  502  0.00000000000E+00  0.00000000000E+00  0.48655858190E+02  0.48655858190E+02  0.00000000000E+00 0.  1.
         21   -1    0    0  502  503 -0.00000000000E+00 -0.00000000000E+00 -0.11677995297E+04  0.11677995297E+04  0.00000000000E+00 0. -1.
         -6    2    1    2    0  503  0.13007283036E+03 -0.73271582252E+02 -0.72588490981E+03  0.76211616971E+03  0.17783275258E+03 0.  0.
        -24    2    3    3    0    0  0.36541056323E+02  0.62292683516E+01 -0.46734298996E+03  0.47587397800E+03  0.81685494959E+02 0.  0.
          6    2    1    2  501    0 -0.13007283036E+03  0.73271582252E+02 -0.39325876169E+03  0.45433921816E+03  0.17170907242E+03 0.  0.
         24    2    5    5    0    0 -0.12010337391E+03  0.12040718279E+02 -0.35015052249E+03  0.37864893443E+03  0.78738985397E+02 0.  0.
          5    1    5    5  501    0 -0.99694564521E+01  0.61230863973E+02 -0.43108239195E+02  0.75690283732E+02  0.47000000000E+01 0. -1.
        -11    1    6    6    0    0 -0.98617766907E+02 -0.24583875695E+02 -0.24977512541E+03  0.26966172173E+03  0.00000000000E+00 0.  1.
         12    1    6    6    0    0 -0.21485607003E+02  0.36624593973E+02 -0.10037539708E+03  0.10898721270E+03  0.00000000000E+00 0. -1.
         -5    1    3    3    0  503  0.93531774039E+02 -0.79500850603E+02 -0.25854191984E+03  0.28624219172E+03  0.47000000000E+01 0.  1.
         11    1    4    4    0    0  0.41661018762E+02 -0.31121379025E+02 -0.26980605289E+03  0.27477169959E+03  0.00000000000E+00 0. -1.
        -12    1    4    4    0    0 -0.51199624384E+01  0.37350647376E+02 -0.19753693707E+03  0.20110227841E+03  0.00000000000E+00 0.  1.
</event>
<event>
12    1  0.8251070E-002  0.2135257E+03  0.7818608E-02  0.1139167E+00
         21   -1    0    0  501  502  0.00000000000E+00  0.00000000000E+00  0.48829799821E+03  0.48829799821E+03  0.00000000000E+00 0.  1.
         21   -1    0    0  502  503 -0.00000000000E+00 -0.00000000000E+00 -0.94848615461E+02  0.94848615461E+02  0.00000000000E+00 0.  1.
         -6    2    1    2    0  503 -0.78610135154E+02 -0.98469612982E+02  0.24287787538E+03  0.32339279472E+03  0.17238741049E+03 0.  0.
        -24    2    3    3    0    0 -0.90885621703E+02 -0.11908058383E+03  0.24623681820E+03  0.29871745914E+03  0.78480367470E+02 0.  0.
          6    2    1    2  501    0  0.78610135154E+02  0.98469612982E+02  0.15057150736E+03  0.25975381894E+03  0.17007189538E+03 0.  0.
         24    2    5    5    0    0  0.24210737694E+02  0.20019793184E+01  0.11642857103E+02  0.82022114820E+02  0.77471952713E+02 0.  0.
          5    1    5    5  501    0  0.54399397460E+02  0.96467633663E+02  0.13892865026E+03  0.17773170412E+03  0.47000000000E+01 0. -1.
        -13    1    6    6    0    0 -0.19867652990E+02  0.24371361284E+02  0.99805613371E+00  0.31459227616E+02  0.00000000000E+00 0.  1.
         14    1    6    6    0    0  0.44078390683E+02 -0.22369381965E+02  0.10644800970E+02  0.50562887204E+02  0.00000000000E+00 0. -1.
         -5    1    3    3    0  503  0.12275486549E+02  0.20610970848E+02 -0.33589428168E+01  0.24675335584E+02  0.47000000000E+01 0.  1.
         13    1    4    4    0    0 -0.21716549403E+02 -0.38661291510E+02  0.19591542450E+02  0.48478165340E+02  0.00000000000E+00 0. -1.
        -14    1    4    4    0    0 -0.69169072300E+02 -0.80419292320E+02  0.22664527575E+03  0.25023929380E+03  0.00000000000E+00 0.  1.
</event>
<event>
12    1  0.8251070E-002  0.1779454E+03  0.7818608E-02  0.1170186E+00
         21   -1    0    0  503  502  0.00000000000E+00  0.00000000000E+00  0.47449839397E+02  0.47449839397E+02  0.00000000000E+00 0.  1.
         21   -1    0    0  501  503 -0.00000000000E+00 -0.00000000000E+00 -0.13308901748E+04  0.13308901748E+04  0.00000000000E+00 0.  1.
          6    2    1    2  501    0  0.38984933450E+02 -0.19185280511E+02 -0.11318336425E+04  0.11457364309E+04  0.17255919221E+03 0.  0.
         24    2    3    3    0    0  0.75944950534E+01 -0.77976522875E+02 -0.69951897563E+03  0.70828948443E+03  0.78798363007E+02 0.  0.
         -6    2    1    2    0  502 -0.38984933450E+02  0.19185280511E+02 -0.15160669285E+03  0.23260358323E+03  0.17097349967E+03 0.  0.
        -24    2    5    5    0    0 -0.10908766747E+02 -0.24733810228E+02 -0.15893133710E+03  0.17975570644E+03  0.79512147020E+02 0.  0.
          5    1    3    3  501    0  0.31390438396E+02  0.58791242364E+02 -0.43231466688E+03  0.43744694650E+03  0.47000000000E+01 0. -1.
        -13    1    4    4    0    0  0.27311605961E+02 -0.69053326366E+02 -0.33513618291E+03  0.34326454347E+03  0.00000000000E+00 0.  1.
         14    1    4    4    0    0 -0.19717110908E+02 -0.89231965090E+01 -0.36438279271E+03  0.36502494096E+03  0.00000000000E+00 0. -1.
         -5    1    5    5    0  502 -0.28076166703E+02  0.43919090739E+02  0.73246442476E+01  0.52847876792E+02  0.47000000000E+01 0.  1.
         13    1    6    6    0    0 -0.14053902842E+02 -0.29617475037E+02 -0.15597333754E+02  0.36304047059E+02  0.00000000000E+00 0. -1.
        -14    1    6    6    0    0  0.31451360945E+01  0.48836648090E+01 -0.14333400335E+03  0.14345165938E+03  0.00000000000E+00 0.  1.
</event>
<event>
12    1  0.8251070E-002  0.1889402E+03  0.7818608E-02  0.1160911E+00
         21   -1    0    0  501  502  0.00000000000E+00  0.00000000000E+00  0.85952193714E+03  0.85952193714E+03  0.00000000000E+00 0. -1.
         21   -1    0    0  502  503 -0.00000000000E+00 -0.00000000000E+00 -0.74314695179E+02  0.74314695179E+02  0.00000000000E+00 0.  1.
         -6    2    1    2    0  503  0.62499620043E+02  0.27354418411E+01  0.72271300748E+02  0.19628929852E+03  0.17144288452E+03 0.  0.
        -24    2    3    3    0    0  0.59369608951E+02 -0.41270415541E+01  0.11460901323E+03  0.15302889461E+03  0.82102580551E+02 0.  0.
          6    2    1    2  501    0 -0.62499620043E+02 -0.27354418411E+01  0.71293594121E+03  0.73754733380E+03  0.17828271979E+03 0.  0.
         24    2    5    5    0    0  0.33375493623E+02  0.17072539589E+01  0.24264842421E+03  0.25754294464E+03  0.79581858931E+02 0.  0.
          5    1    5    5  501    0 -0.95875113666E+02 -0.44426957999E+01  0.47028751700E+03  0.48000438916E+03  0.47000000000E+01 0. -1.
        -13    1    6    6    0    0  0.85680576563E+01  0.25087294866E+02  0.22500647791E+02  0.34771585047E+02  0.00000000000E+00 0.  1.
         14    1    6    6    0    0  0.24807435966E+02 -0.23380040907E+02  0.22014777642E+03  0.22277135959E+03  0.00000000000E+00 0. -1.
         -5    1    3    3    0  503  0.31300110912E+01  0.68624833952E+01 -0.42337712484E+02  0.43260403906E+02  0.47000000000E+01 0.  1.
         11    1    4    4    0    0  0.30623452638E+02  0.31252246626E+02  0.20204705794E+02  0.48194697912E+02  0.00000000000E+00 0. -1.
        -12    1    4    4    0    0  0.28746156314E+02 -0.35379288180E+02  0.94404307437E+02  0.10483419670E+03  0.00000000000E+00 0.  1.
</event>
<event>
12    1  0.8251070E-002  0.2343783E+03  0.7818608E-02  0.1124660E+00
         21   -1    0    0  501  502  0.00000000000E+00  0.00000000000E+00  0.21768804971E+03  0.21768804971E+03  0.00000000000E+00 0.  1.
         21   -1    0    0  502  503 -0.00000000000E+00 -0.00000000000E+00 -0.32506869254E+03  0.32506869254E+03  0.00000000000E+00 0. -1.
         -6    2    1    2    0  503  0.44831105048E+02  0.14431574305E+03 -0.18822168212E+03  0.30060039301E+03  0.17915449475E+03 0.  0.
        -24    2    3    3    0    0  0.37778192609E+02  0.14948679221E+03 -0.75820169008E+02  0.18776124434E+03  0.75710593489E+02 0.  0.
          6    2    1    2  501    0 -0.44831105048E+02 -0.14431574305E+03  0.80841039282E+02  0.24215634924E+03  0.17107764954E+03 0.  0.
         24    2    5    5    0    0 -0.65494121594E+01 -0.16215798866E+03  0.43800517010E+02  0.18578327030E+03  0.79112768551E+02 0.  0.
          5    1    5    5  501    0 -0.38281692888E+02  0.17842245611E+02  0.37040522272E+02  0.56373078939E+02  0.47000000000E+01 0. -1.
        -11    1    6    6    0    0 -0.31042755112E+02 -0.50620885313E+02  0.39863181892E+02  0.71520626013E+02  0.00000000000E+00 0.  1.
         12    1    6    6    0    0  0.24493342952E+02 -0.11153710334E+03  0.39373351184E+01  0.11426264429E+03  0.00000000000E+00 0. -1.
         -5    1    3    3    0  503  0.70529124387E+01 -0.51710491605E+01 -0.11240151311E+03  0.11283914867E+03  0.47000000000E+01 0.  1.
         13    1    4    4    0    0 -0.63475342482E+01  0.34714662809E+02 -0.51477480432E+02  0.62412578833E+02  0.00000000000E+00 0. -1.
        -14    1    4    4    0    0  0.44125726857E+02  0.11477212940E+03 -0.24342688576E+02  0.12534866551E+03  0.00000000000E+00 0.  1.
</event>
<event>
12    1  0.8251070E-002  0.1739629E+03  0.7818608E-02  0.1174008E+00
         21   -1    0    0  503  502  0.00000000000E+00  0.00000000000E+00  0.48517868159E+03  0.48517868159E+03  0.00000000000E+00 0. -1.
         21   -1    0    0  501  503 -0.00000000000E+00 -0.00000000000E+00 -0.64608951019E+02  0.64608951019E+02  0.00000000000E+00 0. -1.
          6    2    1    2  501    0  0.15469754092E+02  0.83468536031E+01  0.26553483392E+03  0.31744578485E+03  0.17307251380E+03 0.  0.
         24    2    3    3    0    0  0.36669195686E+02 -0.77402456232E+01  0.54085014871E+02  0.10427607062E+03  0.80893564370E+02 0.  0.
         -6    2    1    2    0  502 -0.15469754092E+02 -0.83468536031E+01  0.15503489664E+03  0.23234184776E+03  0.17215670706E+03 0.  0.
        -24    2    5    5    0    0 -0.37505363670E+02  0.49864791426E+02  0.58085477927E+02  0.11703597845E+03  0.80189449298E+02 0.  0.
          5    1    3    3  501    0 -0.21199441593E+02  0.16087099226E+02  0.21144981905E+03  0.21316971422E+03  0.47000000000E+01 0. -1.
        -13    1    4    4    0    0  0.72335431300E+01 -0.42176141039E+02  0.18280464115E+02  0.46533067677E+02  0.00000000000E+00 0.  1.
         14    1    4    4    0    0  0.29435652556E+02  0.34435895415E+02  0.35804550756E+02  0.57743002947E+02  0.00000000000E+00 0. -1.
         -5    1    5    5    0  502  0.22035609578E+02 -0.58211645029E+02  0.96949418717E+02  0.11530586930E+03  0.47000000000E+01 0.  1.
         11    1    6    6    0    0 -0.10820838817E+02  0.60389958479E+01 -0.20043345808E+02  0.23564713763E+02  0.00000000000E+00 0. -1.
        -12    1    6    6    0    0 -0.26684524853E+02  0.43825795578E+02  0.78128823736E+02  0.93471264691E+02  0.00000000000E+00 0.  1.
</event>
<event>
12    1  0.8251070E-002  0.1892692E+03  0.7818608E-02  0.1159394E+00
         21   -1    0    0  503  502  0.00000000000E+00  0.00000000000E+00  0.89977100936E+02  0.89977100936E+02  0.00000000000E+00 0.  1.
         21   -1    0    0  501  503 -0.00000000000E+00 -0.00000000000E+00 -0.45593803244E+03  0.45593803244E+03  0.00000000000E+00 0.  1.
          6    2    1    2  501    0  0.49866849800E+02 -0.62757228602E+02 -0.84204500455E+02  0.20715511988E+03  0.17145749719E+03 0.  0.
         24    2    3    3    0    0 -0.29152665390E+02 -0.68575364479E+02 -0.36714813168E+02  0.11466028281E+03  0.79035083566E+02 0.  0.
         -6    2    1    2    0  502 -0.49866849800E+02  0.62757228602E+02 -0.28175643105E+03  0.33876001350E+03  0.17013667406E+03 0.  0.
        -24    2    5    5    0    0  0.32776692557E+02  0.60453203195E+02 -0.16277403192E+03  0.19379738063E+03  0.79581014823E+02 0.  0.
          5    1    3    3  501    0  0.79019515190E+02  0.58181358770E+01 -0.47489687286E+02  0.92494837070E+02  0.47000000000E+01 0. -1.
        -11    1    4    4    0    0  0.21385211198E+02 -0.26898117303E+02 -0.35119408618E+02  0.49134599155E+02  0.00000000000E+00 0.  1.
         12    1    4    4    0    0 -0.50537876588E+02 -0.41677247176E+02 -0.15954045497E+01  0.65525683650E+02  0.00000000000E+00 0. -1.
         -5    1    5    5    0  502 -0.82643542357E+02  0.23040254068E+01 -0.11898239913E+03  0.14496263287E+03  0.47000000000E+01 0.  1.
         13    1    6    6    0    0 -0.91493742127E+01 -0.14960506878E+02 -0.40608403601E+02  0.44233135290E+02  0.00000000000E+00 0. -1.
        -14    1    6    6    0    0  0.41926066770E+02  0.75413710073E+02 -0.12216562832E+03  0.14956424534E+03  0.00000000000E+00 0.  1.
</event>
<event>
12    1  0.8251070E-002  0.1829322E+03  0.7818608E-02  0.1165016E+00
         21   -1    0    0  501  502  0.00000000000E+00  0.00000000000E+00  0.20685778224E+03  0.20685778224E+03  0.00000000000E+00 0. -1.
         21   -1    0    0  502  503 -0.00000000000E+00 -0.00000000000E+00 -0.22048949435E+03  0.22048949435E+03  0.00000000000E+00 0. -1.
         -6    2    1    2    0  503  0.39649197819E+02  0.49360122814E+02 -0.11715399091E+03  0.21723083416E+03  0.17162662122E+03 0.  0.
        -24    2    3    3    0    0  0.80924098041E+02  0.18885630033E+02 -0.37285094871E+02  0.12218640953E+03  0.81449147990E+02 0.  0.
          6    2    1    2  501    0 -0.39649197819E+02 -0.49360122814E+02  0.10352227880E+03  0.21011644244E+03  0.17153301887E+03 0.  0.
         24    2    5    5    0    0  0.96752435474E+01 -0.46529935737E+02  0.12562708723E+03  0.15578760083E+03  0.78923800404E+02 0.  0.
          5    1    5    5  501    0 -0.49324441366E+02 -0.28301870774E+01 -0.22104808425E+02  0.54328841608E+02  0.47000000000E+01 0. -1.
        -13    1    6    6    0    0  0.39734445477E+02 -0.39657225942E+01  0.57896265225E+02  0.70331576408E+02  0.00000000000E+00 0.  1.
         14    1    6    6    0    0 -0.30059201930E+02 -0.42564213143E+02  0.67730822003E+02  0.85456024423E+02  0.00000000000E+00 0. -1.
         -5    1    3    3    0  503 -0.41274900223E+02  0.30474492781E+02 -0.79868896037E+02  0.95044424628E+02  0.47000000000E+01 0.  1.
         11    1    4    4    0    0  0.67507132481E+01  0.24172754890E+02  0.16830250276E+02  0.30218397256E+02  0.00000000000E+00 0. -1.
        -12    1    4    4    0    0  0.74173384793E+02 -0.52871248570E+01 -0.54115345147E+02  0.91968012272E+02  0.00000000000E+00 0.  1.
</event>
<event>
12    1  0.8251070E-002  0.2505932E+03  0.7818608E-02  0.1112984E+00
         21   -1    0    0  503  502  0.00000000000E+00  0.00000000000E+00  0.61889895328E+03  0.61889895328E+03  0.00000000000E+00 0. -1.
         21   -1    0    0  501  503 -0.00000000000E+00 -0.00000000000E+00 -0.12853962696E+03  0.12853962696E+03  0.00000000000E+00 0. -1.
          6    2    1    2  501    0 -0.56637221283E+02  0.17266938237E+03  0.73359626888E+02  0.26111029574E+03  0.17255277814E+03 0.  0.
         24    2    3    3    0    0 -0.10279456117E+03  0.12620964192E+03  0.35380852288E+02  0.18525856650E+03  0.81076113840E+02 0.  0.
         -6    2    1    2    0  502  0.56637221283E+02 -0.17266938237E+03  0.41699969943E+03  0.48632828450E+03  0.17205801502E+03 0.  0.
        -24    2    5    5    0    0 -0.30040535803E+02 -0.96620400291E+02  0.16337746884E+03  0.20768369528E+03  0.78755218350E+02 0.  0.
          5    1    3    3  501    0  0.46157339886E+02  0.46459740455E+02  0.37978774599E+02  0.75851729239E+02  0.47000000000E+01 0. -1.
        -11    1    4    4    0    0 -0.63027672524E+02  0.18931459906E+02  0.24920155957E+02  0.70369750965E+02  0.00000000000E+00 0.  1.
         12    1    4    4    0    0 -0.39766888646E+02  0.10727818201E+03  0.10460696331E+02  0.11488881554E+03  0.00000000000E+00 0. -1.
         -5    1    5    5    0  502  0.86677757086E+02 -0.76048982082E+02  0.25362223059E+03  0.27864458921E+03  0.47000000000E+01 0.  1.
         13    1    6    6    0    0 -0.13468927350E+02 -0.10556421094E+03  0.15242413261E+03  0.18589871123E+03  0.00000000000E+00 0. -1.
        -14    1    6    6    0    0 -0.16571608453E+02  0.89438106452E+01  0.10953336227E+02  0.21784984051E+02  0.00000000000E+00 0.  1.
</event>
<event>
12    1  0.8251070E-002  0.1741830E+03  0.7818608E-02  0.1173822E+00
         21   -1    0    0  503  502  0.00000000000E+00  0.00000000000E+00  0.14154670559E+03  0.14154670559E+03  0.00000000000E+00 0.  1.
         21   -1    0    0  501  503 -0.00000000000E+00 -0.00000000000E+00 -0.87608335424E+03  0.87608335424E+03  0.00000000000E+00 0.  1.
          6    2    1    2  501    0  0.22546219428E+02  0.45155599104E+00 -0.80964183951E+03  0.82794480843E+03  0.17165127910E+03 0.  0.
         24    2    3    3    0    0 -0.14797961856E+02  0.24605708108E+02 -0.22146209227E+03  0.23806726521E+03  0.82499356996E+02 0.  0.
         -6    2    1    2    0  502 -0.22546219428E+02 -0.45155599104E+00  0.75105190857E+02  0.18968525139E+03  0.17271701997E+03 0.  0.
        -24    2    5    5    0    0 -0.79178765936E+00 -0.45052628576E+02  0.99096538305E+02  0.13436630590E+03  0.78764293871E+02 0.  0.
          5    1    3    3  501    0  0.37344181285E+02 -0.24154152117E+02 -0.58817974723E+03  0.58987754322E+03  0.47000000000E+01 0. -1.
        -13    1    4    4    0    0  0.17699020171E+02 -0.20116077600E+02 -0.11531929621E+03  0.11839109752E+03  0.00000000000E+00 0.  1.
         14    1    4    4    0    0 -0.32496982027E+02  0.44721785708E+02 -0.10614279606E+03  0.11967616769E+03  0.00000000000E+00 0. -1.
         -5    1    5    5    0  502 -0.21754431769E+02  0.44601072585E+02 -0.23991347448E+02  0.55318945486E+02  0.47000000000E+01 0.  1.
         11    1    6    6    0    0  0.96725803401E+01  0.19631798144E+02  0.10779564617E+02  0.24396010374E+02  0.00000000000E+00 0. -1.
        -12    1    6    6    0    0 -0.10464367999E+02 -0.64684426720E+02  0.88316973688E+02  0.10997029553E+03  0.00000000000E+00 0.  1.
</event>
<event>
12    1  0.8251070E-002  0.3796272E+03  0.7818608E-02  0.1051172E+00
         21   -1    0    0  501  502  0.00000000000E+00  0.00000000000E+00  0.69835114006E+03  0.69835114006E+03  0.00000000000E+00 0. -1.
         21   -1    0    0  502  503 -0.00000000000E+00 -0.00000000000E+00 -0.49383187853E+03  0.49383187853E+03  0.00000000000E+00 0. -1.
         -6    2    1    2    0  503 -0.33816682404E+03  0.57646524906E+01 -0.35306133055E+03  0.51763653971E+03  0.17001544640E+03 0.  0.
        -24    2    3    3    0    0 -0.25595841407E+03  0.10470490372E+01 -0.34277175494E+03  0.43451949080E+03  0.76150547313E+02 0.  0.
          6    2    1    2  501    0  0.33816682404E+03 -0.57646524906E+01  0.55758059208E+03  0.67454647888E+03  0.17241462642E+03 0.  0.
         24    2    5    5    0    0  0.19405702118E+03  0.37710470181E+02  0.22666369854E+03  0.31097282472E+03  0.79040865674E+02 0.  0.
          5    1    5    5  501    0  0.14410980287E+03 -0.43475122672E+02  0.33091689354E+03  0.36357365416E+03  0.47000000000E+01 0. -1.
        -11    1    6    6    0    0  0.10535136858E+03 -0.14919761861E+02  0.87541457399E+02  0.13778612746E+03  0.00000000000E+00 0.  1.
         12    1    6    6    0    0  0.88705652594E+02  0.52630232042E+02  0.13912224114E+03  0.17318669726E+03  0.00000000000E+00 0. -1.
         -5    1    3    3    0  503 -0.82208409975E+02  0.47176034533E+01 -0.10289575603E+02  0.83117048907E+02  0.47000000000E+01 0.  1.
         11    1    4    4    0    0 -0.24192068554E+03 -0.16380935576E+02 -0.29573451565E+03  0.38243019871E+03  0.00000000000E+00 0. -1.
        -12    1    4    4    0    0 -0.14037728532E+02  0.17427984613E+02 -0.47037239296E+02  0.52089292091E+02  0.00000000000E+00 0.  1.
</event>
<event>
12    1  0.8251070E-002  0.1903678E+03  0.7818608E-02  0.1158250E+00
         21   -1    0    0  501  502  0.00000000000E+00  0.00000000000E+00  0.25077468031E+03  0.25077468031E+03  0.00000000000E+00 0.  1.
         21   -1    0    0  502  503 -0.00000000000E+00 -0.00000000000E+00 -0.16336838645E+03  0.16336838645E+03  0.00000000000E+00 0.  1.
         -6    2    1    2    0  503 -0.78886788144E+02 -0.16641667566E+02 -0.27342162312E+02  0.19232128381E+03  0.17245234682E+03 0.  0.
        -24    2    3    3    0    0 -0.12184449593E+03 -0.10554179729E+02 -0.12220542719E+02  0.14613497042E+03  0.79048187945E+02 0.  0.
          6    2    1    2  501    0  0.78886788144E+02  0.16641667566E+02  0.11474845617E+03  0.22182178295E+03  0.17186513537E+03 0.  0.
         24    2    5    5    0    0 -0.11309744112E+02  0.19633351793E+02  0.10827778384E+03  0.13122198049E+03  0.70581519364E+02 0.  0.
          5    1    5    5  501    0  0.90196532256E+02 -0.29916842263E+01  0.64706723265E+01  0.90599802460E+02  0.47000000000E+01 0. -1.
        -11    1    6    6    0    0  0.12930945513E+01  0.44383864745E+02  0.80539613861E+02  0.91968630217E+02  0.00000000000E+00 0.  1.
         12    1    6    6    0    0 -0.12602838663E+02 -0.24750512952E+02  0.27738169980E+02  0.39253350273E+02  0.00000000000E+00 0. -1.
         -5    1    3    3    0  503  0.42957707781E+02 -0.60874878377E+01 -0.15121619593E+02  0.46186313396E+02  0.47000000000E+01 0.  1.
         13    1    4    4    0    0 -0.11647847235E+02  0.26822026057E+02 -0.33859959303E+01  0.29437363935E+02  0.00000000000E+00 0. -1.
        -14    1    4    4    0    0 -0.11019664869E+03 -0.37376205786E+02 -0.88345467888E+01  0.11669760648E+03  0.00000000000E+00 0.  1.
</event>
<event>
12    1  0.8251070E-002  0.1850997E+03  0.7818608E-02  0.1163486E+00
         21   -1    0    0  501  502  0.00000000000E+00  0.00000000000E+00  0.23574499610E+04  0.23574499610E+04  0.00000000000E+00 0. -1.
         21   -1    0    0  502  503 -0.00000000000E+00 -0.00000000000E+00 -0.79817536547E+02  0.79817536547E+02  0.00000000000E+00 0.  1.
         -6    2    1    2    0  503 -0.51300623864E+02 -0.46952284042E+02  0.33959068366E+02  0.18597186120E+03  0.16910364824E+03 0.  0.
        -24    2    3    3    0    0 -0.15428790322E+02  0.18266668485E+02  0.64294982513E+02  0.10545690671E+03  0.80097413487E+02 0.  0.
          6    2    1    2  501    0  0.51300623864E+02  0.46952284042E+02  0.22436733561E+04  0.22512956364E+04  0.17153904054E+03 0.  0.
         24    2    5    5    0    0  0.10148661182E+03  0.24986620578E+02  0.14838096658E+04  0.14894452301E+04  0.76368222492E+02 0.  0.
          5    1    5    5  501    0 -0.50185987955E+02  0.21965663464E+02  0.75986369025E+03  0.76185040627E+03  0.47000000000E+01 0. -1.
        -13    1    6    6    0    0 -0.85988889484E+01 -0.75795932998E+01  0.65366129512E+02  0.66363559376E+02  0.00000000000E+00 0.  1.
         14    1    6    6    0    0  0.11008550077E+03  0.32566213878E+02  0.14184435363E+04  0.14230816707E+04  0.00000000000E+00 0. -1.
         -5    1    3    3    0  503 -0.35871833542E+02 -0.65218952527E+02 -0.30335914148E+02  0.80514954496E+02  0.47000000000E+01 0.  1.
         13    1    4    4    0    0 -0.38193350691E+02 -0.11565193285E+02  0.52851863767E+02  0.66225412315E+02  0.00000000000E+00 0. -1.
        -14    1    4    4    0    0  0.22764560369E+02  0.29831861770E+02  0.11443118747E+02  0.39231494391E+02  0.00000000000E+00 0.  1.
</event>
<event>
12    1  0.8251070E-002  0.1896430E+03  0.7818608E-02  0.1160661E+00
         21   -1    0    0  501  502  0.00000000000E+00  0.00000000000E+00  0.13513804063E+03  0.13513804063E+03  0.00000000000E+00 0.  1.
         21   -1    0    0  502  503 -0.00000000000E+00 -0.00000000000E+00 -0.40221907263E+03  0.40221907263E+03  0.00000000000E+00 0.  1.
         -6    2    1    2    0  503 -0.79965141185E+02  0.90093148774E+00 -0.29798531304E+03  0.35321343118E+03  0.17195710423E+03 0.  0.
        -24    2    3    3    0    0 -0.60686755465E+02 -0.99253367305E+01 -0.67130877406E+02  0.12125497651E+03  0.80092571628E+02 0.  0.
          6    2    1    2  501    0  0.79965141185E+02 -0.90093148774E+00  0.30904281042E+02  0.18414368208E+03  0.16296805080E+03 0.  0.
         24    2    5    5    0    0  0.34693766280E+02  0.48374723905E+02  0.53226514039E+02  0.11344743264E+03  0.80582174477E+02 0.  0.
          5    1    5    5  501    0  0.45271374905E+02 -0.49275655393E+02 -0.22322232997E+02  0.70696249449E+02  0.47000000000E+01 0. -1.
        -11    1    6    6    0    0  0.25254029758E+02  0.18806092278E+02  0.71007968744E+02  0.77676037173E+02  0.00000000000E+00 0.  1.
         12    1    6    6    0    0  0.94397365219E+01  0.29568631627E+02 -0.17781454705E+02  0.35771395463E+02  0.00000000000E+00 0. -1.
         -5    1    3    3    0  503 -0.19278385720E+02  0.10826268218E+02 -0.23085443563E+03  0.23195845466E+03  0.47000000000E+01 0.  1.
         13    1    4    4    0    0 -0.47990037213E+02  0.30434695657E+02 -0.49702207205E+02  0.75495852684E+02  0.00000000000E+00 0. -1.
        -14    1    4    4    0    0 -0.12696718252E+02 -0.40360032388E+02 -0.17428670201E+02  0.45759123830E+02  0.00000000000E+00 0.  1.
</event>
<event>
12    1  0.8251070E-002  0.2280084E+03  0.7818608E-02  0.1128081E+00
         21   -1    0    0  503  502  0.00000000000E+00  0.00000000000E+00  0.94090729381E+03  0.94090729381E+03  0.00000000000E+00 0.  1.
         21   -1    0    0  501  503 -0.00000000000E+00 -0.00000000000E+00 -0.12324770637E+03  0.12324770637E+03  0.00000000000E+00 0.  1.
          6    2    1    2  501    0  0.92212668213E+02 -0.11782225649E+03  0.13428321555E+02  0.22822692360E+03  0.17181952314E+03 0.  0.
         24    2    3    3    0    0  0.51369346889E+02 -0.14818808700E+03  0.17472041420E+02  0.17695605244E+03  0.80060310614E+02 0.  0.
         -6    2    1    2    0  502 -0.92212668213E+02  0.11782225649E+03  0.80423126588E+03  0.83592807658E+03  0.17205394474E+03 0.  0.
        -24    2    5    5    0    0 -0.73581526481E+02  0.33920530409E+01  0.43314676903E+03  0.44712583289E+03  0.82943594387E+02 0.  0.
          5    1    3    3  501    0  0.40843321324E+02  0.30365830510E+02 -0.40437198641E+01  0.51270871162E+02  0.47000000000E+01 0. -1.
        -13    1    4    4    0    0  0.64789353356E+02 -0.72337920251E+02 -0.33330395940E+01  0.97167608633E+02  0.00000000000E+00 0.  1.
         14    1    4    4    0    0 -0.13420006466E+02 -0.75850166746E+02  0.20805081014E+02  0.79788443805E+02  0.00000000000E+00 0. -1.
         -5    1    5    5    0  502 -0.18631141732E+02  0.11443020345E+03  0.37108449685E+03  0.38880224369E+03  0.47000000000E+01 0.  1.
         11    1    6    6    0    0 -0.74859959462E+02  0.31735600898E+02  0.34815122869E+03  0.35751984551E+03  0.00000000000E+00 0. -1.
        -12    1    6    6    0    0  0.12784329804E+01 -0.28343547857E+02  0.84995540346E+02  0.89605987382E+02  0.00000000000E+00 0.  1.
</event>
<event>
12    1  0.8251070E-002  0.1945329E+03  0.7818608E-02  0.1154866E+00
         21   -1    0    0  503  502  0.00000000000E+00  0.00000000000E+00  0.46592882703E+02  0.46592882703E+02  0.00000000000E+00 0. -1.
         21   -1    0    0  501  503 -0.00000000000E+00 -0.00000000000E+00 -0.96592241797E+03  0.96592241797E+03  0.00000000000E+00 0.  1.
          6    2    1    2  501    0  0.80663390893E+02  0.29999316770E+02 -0.66884552247E+03  0.69656110340E+03  0.17446058637E+03 0.  0.
         24    2    3    3    0    0  0.98476954605E+02  0.71946907627E+02 -0.58075795937E+03  0.59727146545E+03  0.67670731922E+02 0.  0.
         -6    2    1    2    0  502 -0.80663390893E+02 -0.29999316770E+02 -0.25048401279E+03  0.31595419728E+03  0.17227382992E+03 0.  0.
        -24    2    5    5    0    0 -0.11052763982E+02  0.48482545246E+02 -0.58581624489E+02  0.97199406056E+02  0.59524759762E+02 0.  0.
          5    1    3    3  501    0 -0.17813563713E+02 -0.41947590857E+02 -0.88087563099E+02  0.99289637947E+02  0.47000000000E+01 0. -1.
        -13    1    4    4    0    0  0.27580693830E+02  0.43188518580E+02 -0.36006959092E+03  0.36369774967E+03  0.00000000000E+00 0.  1.
         14    1    4    4    0    0  0.70896260776E+02  0.28758389047E+02 -0.22068836845E+03  0.23357371578E+03  0.00000000000E+00 0. -1.
         -5    1    5    5    0  502 -0.69610626910E+02 -0.78481862016E+02 -0.19190238830E+03  0.21875479122E+03  0.47000000000E+01 0.  1.
         11    1    6    6    0    0 -0.22005695046E+02  0.52992823811E+02 -0.26893913277E+02  0.63370123570E+02  0.00000000000E+00 0. -1.
        -12    1    6    6    0    0  0.10952931064E+02 -0.45102785653E+01 -0.31687711212E+02  0.33829282486E+02  0.00000000000E+00 0.  1.
</event>
<event>
12    1  0.8251070E-002  0.2140656E+03  0.7818608E-02  0.1138452E+00
         21   -1    0    0  501  502  0.00000000000E+00  0.00000000000E+00  0.13664040446E+04  0.13664040446E+04  0.00000000000E+00 0.  1.
         21   -1    0    0  502  503 -0.00000000000E+00 -0.00000000000E+00 -0.52130421244E+02  0.52130421244E+02  0.00000000000E+00 0.  1.
         -6    2    1    2    0  503  0.79388356814E+02  0.99365258513E+02  0.23327090630E+03  0.31660606459E+03  0.17218629043E+03 0.  0.
        -24    2    3    3    0    0 -0.10316752636E+02  0.19592966737E+02  0.14645418374E+03  0.16838373661E+03  0.80087046946E+02 0.  0.
          6    2    1    2  501    0 -0.79388356814E+02 -0.99365258513E+02  0.10810027170E+04  0.11019284012E+04  0.17176542554E+03 0.  0.
         24    2    5    5    0    0 -0.89600386122E+02 -0.15458057796E+02  0.48599014122E+03  0.50092360986E+03  0.80441685772E+02 0.  0.
          5    1    5    5  501    0  0.10212029307E+02 -0.83907200717E+02  0.59501257580E+03  0.60100479136E+03  0.47000000000E+01 0. -1.
        -13    1    6    6    0    0 -0.55229094410E+01  0.42758954822E+01  0.24198707101E+03  0.24208785254E+03  0.00000000000E+00 0.  1.
         14    1    6    6    0    0 -0.84077476681E+02 -0.19733953278E+02  0.24400307021E+03  0.25883575732E+03  0.00000000000E+00 0. -1.
         -5    1    3    3    0  503  0.89705109450E+02  0.79772291776E+02  0.86816722566E+02  0.14822232799E+03  0.47000000000E+01 0.  1.
         11    1    4    4    0    0 -0.24703512454E+02  0.42927914513E+02  0.60633460634E+02  0.78291033461E+02  0.00000000000E+00 0. -1.
        -12    1    4    4    0    0  0.14386759818E+02 -0.23334947776E+02  0.85820723104E+02  0.90092703145E+02  0.00000000000E+00 0.  1.
</event>
<event>
12    1  0.8251070E-002  0.1760843E+03  0.7818608E-02  0.1171891E+00
         21   -1    0    0  501  502  0.00000000000E+00  0.00000000000E+00  0.11386604798E+02  0.11386604798E+02  0.00000000000E+00 0.  1.
         21   -1    0    0  502  503 -0.00000000000E+00 -0.00000000000E+00 -0.27087477155E+04  0.27087477155E+04  0.00000000000E+00 0.  1.
         -6    2    1    2    0  503 -0.55241619328E+01 -0.35327231338E+02 -0.13210170029E+04  0.13325721521E+04  0.17141787771E+03 0.  0.
        -24    2    3    3    0    0 -0.34171347192E+01 -0.24455827251E+02 -0.13172931801E+04  0.13199791442E+04  0.80460266647E+02 0.  0.
          6    2    1    2  501    0  0.55241619328E+01  0.35327231338E+02 -0.13763441078E+04  0.13875621682E+04  0.17241559693E+03 0.  0.
         24    2    5    5    0    0 -0.37853526749E+02 -0.25598591625E+02 -0.96484219630E+03  0.96929252682E+03  0.80742562565E+02 0.  0.
          5    1    5    5  501    0  0.43377688682E+02  0.60925822963E+02 -0.41150191146E+03  0.41826964140E+03  0.47000000000E+01 0. -1.
        -11    1    6    6    0    0 -0.39741165218E+02  0.16782882976E+02 -0.67321509962E+03  0.67459587587E+03  0.00000000000E+00 0.  1.
         12    1    6    6    0    0  0.18876384689E+01 -0.42381474601E+02 -0.29162709668E+03  0.29469665096E+03  0.00000000000E+00 0. -1.
         -5    1    3    3    0  503 -0.21070272137E+01 -0.10871404087E+02 -0.37238228285E+01  0.12593007860E+02  0.47000000000E+01 0.  1.
         13    1    4    4    0    0 -0.27569833591E+02 -0.44733696821E+02 -0.79493019483E+03  0.79666505761E+03  0.00000000000E+00 0. -1.
        -14    1    4    4    0    0  0.24152698872E+02  0.20277869570E+02 -0.52236298526E+03  0.52331408659E+03  0.00000000000E+00 0.  1.
</event>
<event>
12    1  0.8251070E-002  0.1987992E+03  0.7818608E-02  0.1151119E+00
         21   -1    0    0  503  502  0.00000000000E+00  0.00000000000E+00  0.19035412408E+03  0.19035412408E+03  0.00000000000E+00 0. -1.
         21   -1    0    0  501  503 -0.00000000000E+00 -0.00000000000E+00 -0.22005278395E+03  0.22005278395E+03  0.00000000000E+00 0.  1.
          6    2    1    2  501    0  0.89626766005E+02 -0.46039138172E+02 -0.67040370098E+02  0.20979881056E+03  0.17137260650E+03 0.  0.
         24    2    3    3    0    0  0.12214491584E+03 -0.19415819507E+02 -0.23032509999E+02  0.14876592667E+03  0.79400566162E+02 0.  0.
         -6    2    1    2    0  502 -0.89626766005E+02  0.46039138172E+02  0.37341710225E+02  0.20060809747E+03  0.16940084422E+03 0.  0.
        -24    2    5    5    0    0 -0.45066915244E+02  0.46594448661E+02 -0.38678946158E+02  0.11236344400E+03  0.83231082995E+02 0.  0.
          5    1    3    3  501    0 -0.32518149837E+02 -0.26623318665E+02 -0.44007860099E+02  0.61032883891E+02  0.47000000000E+01 0. -1.
        -13    1    4    4    0    0  0.50641849311E+02  0.28073815513E+02  0.58562083480E+01  0.58198206117E+02  0.00000000000E+00 0.  1.
         14    1    4    4    0    0  0.71503066531E+02 -0.47489635020E+02 -0.28888718347E+02  0.90567720549E+02  0.00000000000E+00 0. -1.
         -5    1    5    5    0  502 -0.44559850761E+02 -0.55531048952E+00  0.76020656383E+02  0.88244653472E+02  0.47000000000E+01 0.  1.
         11    1    6    6    0    0 -0.26679888616E+02  0.34930064518E+02  0.21090029152E+02  0.48751566061E+02  0.00000000000E+00 0. -1.
        -12    1    6    6    0    0 -0.18387026627E+02  0.11664384144E+02 -0.59768975310E+02  0.63611877941E+02  0.00000000000E+00 0.  1.
</event>
<event>
12    1  0.8251070E-002  0.1931234E+03  0.7818608E-02  0.1155695E+00
         21   -1    0    0  503  502  0.00000000000E+00  0.00000000000E+00  0.10263213168E+03  0.10263213168E+03  0.00000000000E+00 0.  1.
         21   -1    0    0  501  503 -0.00000000000E+00 -0.00000000000E+00 -0.38647649524E+03  0.38647649524E+03  0.00000000000E+00 0.  1.
          6    2    1    2  501    0 -0.64238429132E+02  0.59848052591E+02 -0.20187921135E+03  0.27931126158E+03  0.17190462382E+03 0.  0.
         24    2    3    3    0    0 -0.10402259227E+03  0.77000342568E+02 -0.15266504075E+03  0.21357614709E+03  0.74554701259E+02 0.  0.
         -6    2    1    2    0  502  0.64238429132E+02 -0.59848052591E+02 -0.81965152210E+02  0.20979736535E+03  0.17201245057E+03 0.  0.
        -24    2    5    5    0    0 -0.10566329229E+02 -0.79271432463E+02 -0.68770565519E+02  0.13125306780E+03  0.78117666420E+02 0.  0.
          5    1    3    3  501    0  0.39784163142E+02 -0.17152289977E+02 -0.49214170609E+02  0.65735114491E+02  0.47000000000E+01 0. -1.
        -11    1    4    4    0    0 -0.64873076951E+02  0.78410040251E+02 -0.74430603675E+02  0.12608158188E+03  0.00000000000E+00 0.  1.
         12    1    4    4    0    0 -0.39149515323E+02 -0.14096976822E+01 -0.78234437071E+02  0.87494565210E+02  0.00000000000E+00 0. -1.
         -5    1    5    5    0  502  0.74804758361E+02  0.19423379871E+02 -0.13194586691E+02  0.78544297546E+02  0.47000000000E+01 0.  1.
         13    1    6    6    0    0 -0.27794226335E+02 -0.21872598753E+01 -0.22202204852E+01  0.27968419733E+02  0.00000000000E+00 0. -1.
        -14    1    6    6    0    0  0.17227897107E+02 -0.77084172587E+02 -0.66550345034E+02  0.10328464807E+03  0.00000000000E+00 0.  1.
</event>
<event>
12    1  0.8251070E-002  0.1920604E+03  0.7818608E-02  0.1158061E+00
         21   -1    0    0  503  502  0.00000000000E+00  0.00000000000E+00  0.44294361279E+03  0.44294361279E+03  0.00000000000E+00 0.  1.
         21   -1    0    0  501  503 -0.00000000000E+00 -0.00000000000E+00 -0.89561852578E+02  0.89561852578E+02  0.00000000000E+00 0.  1.
          6    2    1    2  501    0  0.81380429537E+02  0.27534896802E+01  0.89475633435E+02  0.20611053574E+03  0.16686913420E+03 0.  0.
         24    2    3    3    0    0  0.87317999376E+02 -0.33976437119E+02  0.10850311082E+03  0.16405727007E+03  0.79768612312E+02 0.  0.
         -6    2    1    2    0  502 -0.81380429537E+02 -0.27534896802E+01  0.26390612678E+03  0.32639492963E+03  0.17394496347E+03 0.  0.
        -24    2    5    5    0    0 -0.82637188419E+02  0.13477103500E+02  0.78568004094E+02  0.14028388396E+03  0.80598384622E+02 0.  0.
          5    1    3    3  501    0 -0.59375698385E+01  0.36729926799E+02 -0.19027477385E+02  0.42053265675E+02  0.47000000000E+01 0. -1.
        -13    1    4    4    0    0  0.54553937201E+02 -0.57551233851E+02  0.52806195414E+02  0.95272088546E+02  0.00000000000E+00 0.  1.
         14    1    4    4    0    0  0.32764062174E+02  0.23574796732E+02  0.55696915407E+02  0.68785181521E+02  0.00000000000E+00 0. -1.
         -5    1    5    5    0  502  0.12567588822E+01 -0.16230593180E+02  0.18533812269E+03  0.18611104567E+03  0.47000000000E+01 0.  1.
         11    1    6    6    0    0  0.10952180643E+02  0.19433165962E+02  0.17792504949E+02  0.28533689431E+02  0.00000000000E+00 0. -1.
        -12    1    6    6    0    0 -0.93589369062E+02 -0.59560624625E+01  0.60775499145E+02  0.11175019453E+03  0.00000000000E+00 0.  1.
</event>
<event>
12    1  0.8251070E-002  0.1797558E+03  0.7818608E-02  0.1170440E+00
         21   -1    0    0  503  502  0.00000000000E+00  0.00000000000E+00  0.13496607735E+03  0.13496607735E+03  0.00000000000E+00 0. -1.
         21   -1    0    0  501  503 -0.00000000000E+00 -0.00000000000E+00 -0.30364319265E+03  0.30364319265E+03  0.00000000000E+00 0. -1.
          6    2    1    2  501    0  0.52575286178E+02  0.18354486794E+02 -0.19292031111E+03  0.25722604607E+03  0.16076673921E+03 0.  0.
         24    2    3    3    0    0  0.75591053389E+02  0.57349842267E+02 -0.14256650883E+03  0.18934409933E+03  0.80764885632E+02 0.  0.
         -6    2    1    2    0  502 -0.52575286178E+02 -0.18354486794E+02  0.24243195807E+02  0.18138322394E+03  0.17091253167E+03 0.  0.
        -24    2    5    5    0    0 -0.12937032687E+02 -0.72511006791E+02 -0.54731083077E+01  0.10783549434E+03  0.78570516131E+02 0.  0.
          5    1    3    3  501    0 -0.23015767210E+02 -0.38995355473E+02 -0.50353802284E+02  0.67881946740E+02  0.47000000000E+01 0. -1.
        -11    1    4    4    0    0  0.38440775898E+00 -0.12801075219E+02  0.88208583083E+00  0.12837187056E+02  0.00000000000E+00 0.  1.
         12    1    4    4    0    0  0.75206645630E+02  0.70150917486E+02 -0.14344859466E+03  0.17650691227E+03  0.00000000000E+00 0. -1.
         -5    1    5    5    0  502 -0.39638253492E+02  0.54156519997E+02  0.29716304115E+02  0.73547729593E+02  0.47000000000E+01 0.  1.
         11    1    6    6    0    0 -0.20966064633E+02 -0.87489585774E+02  0.46937983758E-01  0.89966692105E+02  0.00000000000E+00 0. -1.
        -12    1    6    6    0    0  0.80290319464E+01  0.14978578983E+02 -0.55200462914E+01  0.17868802238E+02  0.00000000000E+00 0.  1.
</event>
<event>
12    1  0.8251070E-002  0.1932519E+03  0.7818608E-02  0.1155874E+00
         21   -1    0    0  503  502  0.00000000000E+00  0.00000000000E+00  0.75104267712E+02  0.75104267712E+02  0.00000000000E+00 0.  1.
         21   -1    0    0  501  503 -0.00000000000E+00 -0.00000000000E+00 -0.10468111223E+04  0.10468111223E+04  0.00000000000E+00 0.  1.
          6    2    1    2  501    0  0.29235545651E+02  0.79512801926E+02 -0.89279570621E+03  0.91317326430E+03  0.17211692186E+03 0.  0.
         24    2    3    3    0    0 -0.81321297231E+01  0.54353241682E+02 -0.83136647552E+03  0.83685166173E+03  0.78294831916E+02 0.  0.
         -6    2    1    2    0  502 -0.29235545651E+02 -0.79512801926E+02 -0.78911148411E+02  0.20874212576E+03  0.17369312860E+03 0.  0.
        -24    2    5    5    0    0 -0.77701558948E+00  0.28611847563E+01  0.14200233615E+02  0.81120885054E+02  0.79813289782E+02 0.  0.
          5    1    3    3  501    0  0.37367675374E+02  0.25159560244E+02 -0.61429230690E+02  0.76321602563E+02  0.47000000000E+01 0. -1.
        -13    1    4    4    0    0 -0.17456961147E+02  0.60212591371E+02 -0.36427150705E+03  0.36962688282E+03  0.00000000000E+00 0.  1.
         14    1    4    4    0    0  0.93248314236E+01 -0.58593496892E+01 -0.46709496847E+03  0.46722477892E+03  0.00000000000E+00 0. -1.
         -5    1    5    5    0  502 -0.28458530061E+02 -0.82373986682E+02 -0.93111382027E+02  0.12762124070E+03  0.47000000000E+01 0.  1.
         13    1    6    6    0    0  0.37234689173E+02  0.13015854640E+02  0.46254966682E+00  0.39446780629E+02  0.00000000000E+00 0. -1.
        -14    1    6    6    0    0 -0.38011704762E+02 -0.10154669883E+02  0.13737683948E+02  0.41674104425E+02  0.00000000000E+00 0.  1.
</event>
<event>
12    1  0.8251070E-002  0.1959976E+03  0.7818608E-02  0.1153228E+00
         21   -1    0    0  503  502  0.00000000000E+00  0.00000000000E+00  0.42936855725E+03  0.42936855725E+03  0.00000000000E+00 0.  1.
         21   -1    0    0  501  503 -0.00000000000E+00 -0.00000000000E+00 -0.12145904832E+03  0.12145904832E+03  0.00000000000E+00 0.  1.
          6    2    1    2  501    0 -0.43630647721E+02 -0.81409908605E+02  0.12386122055E+02  0.19638862153E+03  0.17286951150E+03 0.  0.
         24    2    3    3    0    0 -0.34036386831E+02 -0.78787699985E+02 -0.54159979954E+02  0.12893938497E+03  0.79536685059E+02 0.  0.
         -6    2    1    2    0  502  0.43630647721E+02  0.81409908605E+02  0.29552338687E+03  0.35443898404E+03  0.17251583864E+03 0.  0.
        -24    2    5    5    0    0  0.46576732066E+01  0.96735513368E+02  0.12946753229E+03  0.18311938871E+03  0.85973339690E+02 0.  0.
          5    1    3    3  501    0 -0.95942608898E+01 -0.26222086192E+01  0.66546102010E+02  0.67449236562E+02  0.47000000000E+01 0. -1.
        -11    1    4    4    0    0 -0.28092480462E+02  0.70394380679E+01 -0.36891509197E+01  0.29195050630E+02  0.00000000000E+00 0.  1.
         12    1    4    4    0    0 -0.59439063696E+01 -0.85827138053E+02 -0.50470829035E+02  0.99744334339E+02  0.00000000000E+00 0. -1.
         -5    1    5    5    0  502  0.38972974514E+02 -0.15325604763E+02  0.16605585458E+03  0.17131959533E+03  0.47000000000E+01 0.  1.
         11    1    6    6    0    0 -0.39247814352E+02  0.58387327822E+02  0.81180492013E+02  0.10742319705E+03  0.00000000000E+00 0. -1.
        -12    1    6    6    0    0  0.43905487559E+02  0.38348185546E+02  0.48287040274E+02  0.75696191653E+02  0.00000000000E+00 0.  1.
</event>
<event>
12    1  0.8251070E-002  0.1719077E+03  0.7818608E-02  0.1175924E+00
         21   -1    0    0  503  502  0.00000000000E+00  0.00000000000E+00  0.29720505826E+04  0.29720505826E+04  0.00000000000E+00 0. -1.
         21   -1    0    0  501  503 -0.00000000000E+00 -0.00000000000E+00 -0.10575012841E+02  0.10575012841E+02  0.00000000000E+00 0. -1.
          6    2    1    2  501    0 -0.72325745635E+01 -0.35517595629E+00  0.11121660975E+04  0.11253432348E+04  0.17155620489E+03 0.  0.
         24    2    3    3    0    0 -0.39928705195E+02  0.58860262589E+01  0.10557061410E+04  0.10596332185E+04  0.81719977212E+02 0.  0.
         -6    2    1    2    0  502  0.72325745635E+01  0.35517595629E+00  0.18493094723E+04  0.18572823606E+04  0.17175507738E+03 0.  0.
        -24    2    5    5    0    0 -0.10770524900E+02 -0.24628933507E+02  0.17708239132E+04  0.17728407222E+04  0.80151769825E+02 0.  0.
          5    1    3    3  501    0  0.32696130632E+02 -0.62412022152E+01  0.56459956452E+02  0.65710016329E+02  0.47000000000E+01 0. -1.
        -13    1    4    4    0    0 -0.58518593354E+02 -0.17654743077E+02  0.71942933616E+03  0.72202125000E+03  0.00000000000E+00 0.  1.
         14    1    4    4    0    0  0.18589888158E+02  0.23540769336E+02  0.33627680487E+03  0.33761196847E+03  0.00000000000E+00 0. -1.
         -5    1    5    5    0  502  0.18003099463E+02  0.24984109463E+02  0.78485559032E+02  0.84441638381E+02  0.47000000000E+01 0.  1.
         11    1    6    6    0    0 -0.39658949276E+02 -0.25815015375E+01  0.13035946237E+04  0.13042003065E+04  0.00000000000E+00 0. -1.
        -12    1    6    6    0    0  0.28888424376E+02 -0.22047431969E+02  0.46722928950E+03  0.46864041576E+03  0.00000000000E+00 0.  1.
</event>
<event>
12    1  0.8251070E-002  0.1732964E+03  0.7818608E-02  0.1174645E+00
         21   -1    0    0  501  502  0.00000000000E+00  0.00000000000E+00  0.42347377447E+03  0.42347377447E+03  0.00000000000E+00 0.  1.
         21   -1    0    0  502  503 -0.00000000000E+00 -0.00000000000E+00 -0.48852124340E+03  0.48852124340E+03  0.00000000000E+00 0.  1.
         -6    2    1    2    0  503  0.10604161539E+02 -0.13537250706E+02 -0.45429160419E+03  0.48622270088E+03  0.17244114305E+03 0.  0.
        -24    2    3    3    0    0 -0.16839024478E+02 -0.67013179497E+02 -0.35174080851E+03  0.36726237509E+03  0.79910805335E+02 0.  0.
          6    2    1    2  501    0 -0.10604161539E+02  0.13537250706E+02  0.38924413525E+03  0.42577231699E+03  0.17168390632E+03 0.  0.
         24    2    5    5    0    0  0.44074171039E+02  0.44766523690E+02  0.29779469450E+03  0.31464141329E+03  0.79818322999E+02 0.  0.
          5    1    5    5  501    0 -0.54678332578E+02 -0.31229272984E+02  0.91449440750E+02  0.11113090370E+03  0.47000000000E+01 0. -1.
        -13    1    6    6    0    0  0.27920561340E+02  0.67218239237E+02  0.19334814525E+03  0.20659466281E+03  0.00000000000E+00 0.  1.
         14    1    6    6    0    0  0.16153609699E+02 -0.22451715547E+02  0.10444654926E+03  0.10804675048E+03  0.00000000000E+00 0. -1.
         -5    1    3    3    0  503  0.27443186017E+02  0.53475928791E+02 -0.10255079567E+03  0.11896032579E+03  0.47000000000E+01 0.  1.
         11    1    4    4    0    0 -0.28025236250E+02 -0.39184080347E+02 -0.76586299262E+02  0.90477993204E+02  0.00000000000E+00 0. -1.
        -12    1    4    4    0    0  0.11186211772E+02 -0.27829099150E+02 -0.27515450925E+03  0.27678438188E+03  0.00000000000E+00 0.  1.
</event>
<event>
12    1  0.8251070E-002  0.1786299E+03  0.7818608E-02  0.1169873E+00
         21   -1    0    0  501  502  0.00000000000E+00  0.00000000000E+00  0.11493481633E+03  0.11493481633E+03  0.00000000000E+00 0.  1.
         21   -1    0    0  502  503 -0.00000000000E+00 -0.00000000000E+00 -0.43384384190E+03  0.43384384190E+03  0.00000000000E+00 0.  1.
         -6    2    1    2    0  503  0.46356781422E+02 -0.37602218834E+01 -0.32737158139E+03  0.37293536288E+03  0.17246895991E+03 0.  0.
        -24    2    3    3    0    0 -0.94773665896E+01 -0.16310364287E+02 -0.66636194793E+02  0.10595223610E+03  0.80185069797E+02 0.  0.
          6    2    1    2  501    0 -0.46356781422E+02  0.37602218834E+01  0.84625558131E+01  0.17584329535E+03  0.16936988875E+03 0.  0.
         24    2    5    5    0    0 -0.48714895712E+02 -0.54647717498E+02 -0.20225275008E+02  0.11055830685E+03  0.80340297319E+02 0.  0.
          5    1    5    5  501    0  0.23581142897E+01  0.58407939382E+02  0.28687830822E+02  0.65284988497E+02  0.47000000000E+01 0. -1.
        -13    1    6    6    0    0  0.15760878433E+02 -0.30866087126E+02  0.91140835179E+01  0.35835556949E+02  0.00000000000E+00 0.  1.
         14    1    6    6    0    0 -0.64475774145E+02 -0.23781630372E+02 -0.29339358526E+02  0.74722749906E+02  0.00000000000E+00 0. -1.
         -5    1    3    3    0  503  0.55834148012E+02  0.12550142403E+02 -0.26073538659E+03  0.26698312677E+03  0.47000000000E+01 0.  1.
         11    1    4    4    0    0 -0.28614367295E+02 -0.36443786760E+02 -0.62600996123E+02  0.77883350754E+02  0.00000000000E+00 0. -1.
        -12    1    4    4    0    0  0.19137000705E+02  0.20133422473E+02 -0.40351986695E+01  0.28068885350E+02  0.00000000000E+00 0.  1.
</event>
<event>
12    1  0.8251070E-002  0.3084328E+03  0.7818608E-02  0.1081528E+00
         21   -1    0    0  503  502  0.00000000000E+00  0.00000000000E+00  0.97512602972E+03  0.97512602972E+03  0.00000000000E+00 0.  1.
         21   -1    0    0  501  503 -0.00000000000E+00 -0.00000000000E+00 -0.14898455075E+03  0.14898455075E+03  0.00000000000E+00 0.  1.
          6    2    1    2  501    0 -0.25364728540E+03 -0.25825234184E+02  0.80838169044E+02  0.31885039797E+03  0.17357096127E+03 0.  0.
         24    2    3    3    0    0 -0.21930927443E+03  0.22374775907E+02  0.22274814919E+02  0.23545917291E+03  0.79672242845E+02 0.  0.
         -6    2    1    2    0  502  0.25364728540E+03  0.25825234184E+02  0.74530330993E+03  0.80526018250E+03  0.16722155850E+03 0.  0.
        -24    2    5    5    0    0  0.62664335010E+02  0.22032584154E+02  0.16406120017E+03  0.19341596076E+03  0.77983349676E+02 0.  0.
          5    1    3    3  501    0 -0.34338010971E+02 -0.48200010091E+02  0.58563354124E+02  0.83391225057E+02  0.47000000000E+01 0. -1.
        -11    1    4    4    0    0 -0.49524347808E+02 -0.20252601832E+02 -0.16830709787E+02  0.56090121222E+02  0.00000000000E+00 0.  1.
         12    1    4    4    0    0 -0.16978492662E+03  0.42627377739E+02  0.39105524706E+02  0.17936905169E+03  0.00000000000E+00 0. -1.
         -5    1    5    5    0  502  0.19098295039E+03  0.37926500301E+01  0.58124210975E+03  0.61184422175E+03  0.47000000000E+01 0.  1.
         11    1    6    6    0    0  0.57038096674E+02  0.37726369086E+02  0.69894411470E+02  0.97784723507E+02  0.00000000000E+00 0. -1.
        -12    1    6    6    0    0  0.56262383355E+01 -0.15693784932E+02  0.94166788702E+02  0.95631237248E+02  0.00000000000E+00 0.  1.
</event>
<event>
12    1  0.8251070E-002  0.2529625E+03  0.7818608E-02  0.1111635E+00
         21   -1    0    0  503  502  0.00000000000E+00  0.00000000000E+00  0.51839096307E+02  0.51839096307E+02  0.00000000000E+00 0. -1.
         21   -1    0    0  501  503 -0.00000000000E+00 -0.00000000000E+00 -0.13750913096E+04  0.13750913096E+04  0.00000000000E+00 0.  1.
          6    2    1    2  501    0 -0.18461323595E+03  0.10545248864E+02 -0.89315186349E+03  0.92795512878E+03  0.17084267795E+03 0.  0.
         24    2    3    3    0    0 -0.17752099305E+03  0.28551820742E+02 -0.54820332086E+03  0.58243215761E+03  0.79821223869E+02 0.  0.
         -6    2    1    2    0  502  0.18461323595E+03 -0.10545248864E+02 -0.43010034975E+03  0.49897527708E+03  0.17261740097E+03 0.  0.
        -24    2    5    5    0    0  0.10346845133E+03 -0.65010934539E+02 -0.32066484406E+03  0.35217879588E+03  0.79194823193E+02 0.  0.
          5    1    3    3  501    0 -0.70922429017E+01 -0.18006571878E+02 -0.34494854263E+03  0.34552297117E+03  0.47000000000E+01 0. -1.
        -11    1    4    4    0    0 -0.13894357879E+03 -0.12032271305E+02 -0.41953223911E+03  0.44210563590E+03  0.00000000000E+00 0.  1.
         12    1    4    4    0    0 -0.38577414252E+02  0.40584092047E+02 -0.12867108175E+03  0.14032652171E+03  0.00000000000E+00 0. -1.
         -5    1    5    5    0  502  0.81144784612E+02  0.54465685675E+02 -0.10943550569E+03  0.14679648120E+03  0.47000000000E+01 0.  1.
         11    1    6    6    0    0  0.10334192069E+03 -0.52970821027E+02 -0.20275566551E+03  0.23365641517E+03  0.00000000000E+00 0. -1.
        -12    1    6    6    0    0  0.12653064120E+00 -0.12040113512E+02 -0.11790917855E+03  0.11852238071E+03  0.00000000000E+00 0.  1.
</event>
<event>
12    1  0.8251070E-002  0.1830160E+03  0.7818608E-02  0.1165211E+00
         21   -1    0    0  503  502  0.00000000000E+00  0.00000000000E+00  0.55736836461E+02  0.55736836461E+02  0.00000000000E+00 0.  1.
         21   -1    0    0  501  503 -0.00000000000E+00 -0.00000000000E+00 -0.59951901302E+03  0.59951901302E+03  0.00000000000E+00 0.  1.
          6    2    1    2  501    0 -0.16753012516E+02  0.61041965323E+02 -0.29272162218E+03  0.34456912282E+03  0.17039702859E+03 0.  0.
         24    2    3    3    0    0  0.52247578489E+02  0.67994668407E+02 -0.19453779414E+03  0.22427126030E+03  0.71411206810E+02 0.  0.
         -6    2    1    2    0  502  0.16753012516E+02 -0.61041965323E+02 -0.25106055438E+03  0.31068672666E+03  0.17172086418E+03 0.  0.
        -24    2    5    5    0    0 -0.48144634731E+02 -0.70660626124E+01 -0.10703771120E+03  0.14368441515E+03  0.82585134519E+02 0.  0.
          5    1    3    3  501    0 -0.69000591005E+02 -0.69527030831E+01 -0.98183828042E+02  0.12029786253E+03  0.47000000000E+01 0. -1.
        -11    1    4    4    0    0 -0.46400364847E+01  0.46900765908E+02 -0.57106045016E+02  0.74042637437E+02  0.00000000000E+00 0.  1.
         12    1    4    4    0    0  0.56887614974E+02  0.21093902499E+02 -0.13743174912E+03  0.15022862286E+03  0.00000000000E+00 0. -1.
         -5    1    5    5    0  502  0.64897647246E+02 -0.53975902711E+02 -0.14402284317E+03  0.16700231150E+03  0.47000000000E+01 0.  1.
         13    1    6    6    0    0 -0.41589137993E+01  0.29831614340E+01  0.13789059879E+02  0.14708296587E+02  0.00000000000E+00 0. -1.
        -14    1    6    6    0    0 -0.43985720931E+02 -0.10049224046E+02 -0.12082677108E+03  0.12897611857E+03  0.00000000000E+00 0.  1.
</event>
<event>
12    1  0.8251070E-002  0.1745390E+03  0.7818608E-02  0.1173477E+00
         21   -1    0    0  503  502  0.00000000000E+00  0.00000000000E+00  0.21405418535E+03  0.21405418535E+03  0.00000000000E+00 0. -1.
         21   -1    0    0  501  503 -0.00000000000E+00 -0.00000000000E+00 -0.16728660096E+03  0.16728660096E+03  0.00000000000E+00 0. -1.
          6    2    1    2  501    0 -0.42187225141E+01 -0.25373356230E+02 -0.51668946682E+02  0.18095714360E+03  0.17150569361E+03 0.  0.
         24    2    3    3    0    0  0.56748437255E+02 -0.13919215411E+02 -0.63353834628E+02  0.11765770822E+03  0.80096805513E+02 0.  0.
         -6    2    1    2    0  502  0.42187225141E+01  0.25373356230E+02  0.98436531077E+02  0.20038364271E+03  0.17263327834E+03 0.  0.
        -24    2    5    5    0    0 -0.53562307209E+02  0.51715050465E+02  0.75803396045E+02  0.13280494006E+03  0.79672015503E+02 0.  0.
          5    1    3    3  501    0 -0.60967159770E+02 -0.11454140819E+02  0.11684887946E+02  0.63299435373E+02  0.47000000000E+01 0. -1.
        -11    1    4    4    0    0 -0.10193061088E+02  0.18714504449E+02 -0.24461706185E+01  0.21450289551E+02  0.00000000000E+00 0.  1.
         12    1    4    4    0    0  0.66941498344E+02 -0.32633719859E+02 -0.60907664009E+02  0.96207418672E+02  0.00000000000E+00 0. -1.
         -5    1    5    5    0  502  0.57781029723E+02 -0.26341694235E+02  0.22633135031E+02  0.67578702654E+02  0.47000000000E+01 0.  1.
         13    1    6    6    0    0 -0.46442520642E+01 -0.21730982299E+01  0.57540712489E+02  0.57768720142E+02  0.00000000000E+00 0. -1.
        -14    1    6    6    0    0 -0.48918055144E+02  0.53888148695E+02  0.18262683557E+02  0.75036219918E+02  0.00000000000E+00 0.  1.
</event>
<event>
12    1  0.8251070E-002  0.1825426E+03  0.7818608E-02  0.1165907E+00
         21   -1    0    0  503  502  0.00000000000E+00  0.00000000000E+00  0.49062536029E+02  0.49062536029E+02  0.00000000000E+00 0.  1.
         21   -1    0    0  501  503 -0.00000000000E+00 -0.00000000000E+00 -0.92566463438E+03  0.92566463438E+03  0.00000000000E+00 0.  1.
          6    2    1    2  501    0  0.53304797398E+02  0.25701820753E+02 -0.69206313908E+03  0.71515745235E+03  0.17028449188E+03 0.  0.
         24    2    3    3    0    0 -0.20999188591E+02 -0.23969049244E+02 -0.40203390387E+03  0.41163261823E+03  0.82429796080E+02 0.  0.
         -6    2    1    2    0  502 -0.53304797398E+02 -0.25701820753E+02 -0.18453895927E+03  0.25956971805E+03  0.17268418001E+03 0.  0.
        -24    2    5    5    0    0 -0.29562807522E+02  0.50081680672E+02 -0.13026517244E+03  0.16326522642E+03  0.79400155412E+02 0.  0.
          5    1    3    3  501    0  0.74303985989E+02  0.49670869997E+02 -0.29002923520E+03  0.30352483413E+03  0.47000000000E+01 0. -1.
        -13    1    4    4    0    0  0.19904974411E+02  0.19920843313E+01 -0.27653386554E+02  0.34130429153E+02  0.00000000000E+00 0.  1.
         14    1    4    4    0    0 -0.40904163002E+02 -0.25961133576E+02 -0.37438051732E+03  0.37750218907E+03  0.00000000000E+00 0. -1.
         -5    1    5    5    0  502 -0.23741989876E+02 -0.75783501425E+02 -0.54273786832E+02  0.96304491633E+02  0.47000000000E+01 0.  1.
         13    1    6    6    0    0  0.26402974288E+02  0.57507085681E+01 -0.35299902291E+02  0.44455267427E+02  0.00000000000E+00 0. -1.
        -14    1    6    6    0    0 -0.55965781810E+02  0.44330972104E+02 -0.94965270152E+02  0.11880995899E+03  0.00000000000E+00 0.  1.
</event>
<event>
12    1  0.8251070E-002  0.1792670E+03  0.7818608E-02  0.1168590E+00
         21   -1    0    0  501  502  0.00000000000E+00  0.00000000000E+00  0.11719634074E+03  0.11719634074E+03  0.00000000000E+00 0. -1.
         21   -1    0    0  502  503 -0.00000000000E+00 -0.00000000000E+00 -0.29967579187E+03  0.29967579187E+03  0.00000000000E+00 0. -1.
         -6    2    1    2    0  503 -0.42671966879E+02  0.27138889932E+02 -0.15263436386E+03  0.23544408011E+03  0.17198619050E+03 0.  0.
        -24    2    3    3    0    0  0.11386154826E+02  0.66330111722E+02 -0.12662673568E+03  0.16363378063E+03  0.78818498668E+02 0.  0.
          6    2    1    2  501    0  0.42671966879E+02 -0.27138889932E+02 -0.29845087266E+02  0.18142805250E+03  0.17166243880E+03 0.  0.
         24    2    5    5    0    0  0.30146895949E+02 -0.59452735805E+02 -0.72502442111E+02  0.12626645391E+03  0.79013607314E+02 0.  0.
          5    1    5    5  501    0  0.12525070929E+02  0.32313845872E+02  0.42657354844E+02  0.55161598592E+02  0.47000000000E+01 0. -1.
        -13    1    6    6    0    0 -0.26091046855E+02 -0.99982947532E+01 -0.25644373570E+02  0.37925486414E+02  0.00000000000E+00 0.  1.
         14    1    6    6    0    0  0.56237942804E+02 -0.49454441052E+02 -0.46858068540E+02  0.88340967495E+02  0.00000000000E+00 0. -1.
         -5    1    3    3    0  503 -0.54058121704E+02 -0.39191221790E+02 -0.26007628188E+02  0.71810299481E+02  0.47000000000E+01 0.  1.
         13    1    4    4    0    0 -0.31085436639E+02  0.41833441168E+02 -0.82986608745E+02  0.97995501948E+02  0.00000000000E+00 0. -1.
        -14    1    4    4    0    0  0.42471591464E+02  0.24496670554E+02 -0.43640126932E+02  0.65638278682E+02  0.00000000000E+00 0.  1.
</event>
<event>
12    1  0.8251070E-002  0.1803329E+03  0.7818608E-02  0.1167564E+00
         21   -1    0    0  501  502  0.00000000000E+00  0.00000000000E+00  0.10423161708E+03  0.10423161708E+03  0.00000000000E+00 0.  1.
         21   -1    0    0  502  503 -0.00000000000E+00 -0.00000000000E+00 -0.31841703901E+03  0.31841703901E+03  0.00000000000E+00 0.  1.
         -6    2    1    2    0  503  0.74593347777E+01  0.55066071103E+02 -0.13855983130E+03  0.22741760577E+03  0.17155764833E+03 0.  0.
        -24    2    3    3    0    0  0.39636789912E+01  0.94587585721E+02 -0.14067945149E+03  0.18740820041E+03  0.79803529923E+02 0.  0.
          6    2    1    2  501    0 -0.74593347777E+01 -0.55066071103E+02 -0.75625590628E+02  0.19523105032E+03  0.17119585038E+03 0.  0.
         24    2    5    5    0    0 -0.66225036225E+02 -0.76999376463E+01 -0.45225740913E+02  0.11372522765E+03  0.80268395405E+02 0.  0.
          5    1    5    5  501    0  0.58765701447E+02 -0.47366133457E+02 -0.30399849716E+02  0.81505822663E+02  0.47000000000E+01 0. -1.
        -13    1    6    6    0    0 -0.15570164399E+02  0.18009128445E+02 -0.51340435876E+02  0.56591510695E+02  0.00000000000E+00 0.  1.
         14    1    6    6    0    0 -0.50654871825E+02 -0.25709066091E+02  0.61146949634E+01  0.57133716958E+02  0.00000000000E+00 0. -1.
         -5    1    3    3    0  503  0.34956557865E+01 -0.39521514618E+02  0.21196201849E+01  0.40009405354E+02  0.47000000000E+01 0.  1.
         13    1    4    4    0    0 -0.33611240447E+02  0.28323236023E+02 -0.74499962514E+02  0.86499512124E+02  0.00000000000E+00 0. -1.
        -14    1    4    4    0    0  0.37574919438E+02  0.66264349698E+02 -0.66179488973E+02  0.10090868829E+03  0.00000000000E+00 0.  1.
</event>
<event>
12    1  0.8251070E-002  0.1879304E+03  0.7818608E-02  0.1160666E+00
         21   -1    0    0  501  502  0.00000000000E+00  0.00000000000E+00  0.81840867579E+03  0.81840867579E+03  0.00000000000E+00 0.  1.
         21   -1    0    0  502  503 -0.00000000000E+00 -0.00000000000E+00 -0.21036845384E+03  0.21036845384E+03  0.00000000000E+00 0.  1.
         -6    2    1    2    0  503 -0.70352052641E+02 -0.20672708121E+02 -0.15479320480E+03  0.24347235607E+03  0.17303490904E+03 0.  0.
        -24    2    3    3    0    0 -0.85365771053E+02  0.19952091244E+02 -0.47308047167E+02  0.12749418926E+03  0.79569568032E+02 0.  0.
          6    2    1    2  501    0  0.70352052641E+02  0.20672708121E+02  0.76283342675E+03  0.78530477357E+03  0.17149920774E+03 0.  0.
         24    2    5    5    0    0  0.58594617215E+02  0.44651731110E+02  0.74473939565E+03  0.75270546694E+03  0.80632786566E+02 0.  0.
          5    1    5    5  501    0  0.11757435425E+02 -0.23979022989E+02  0.18094031094E+02  0.32599306626E+02  0.47000000000E+01 0. -1.
        -11    1    6    6    0    0  0.22089929763E+01 -0.79273684770E+01  0.37128062742E+03  0.37137181788E+03  0.00000000000E+00 0.  1.
         12    1    6    6    0    0  0.56385624239E+02  0.52579099587E+02  0.37345876824E+03  0.38133364906E+03  0.00000000000E+00 0. -1.
         -5    1    3    3    0  503  0.15013718412E+02 -0.40624799365E+02 -0.10748515763E+03  0.11597816680E+03  0.47000000000E+01 0.  1.
         11    1    4    4    0    0 -0.66475384434E+02 -0.13434329174E+02 -0.56243981599E+02  0.88106999734E+02  0.00000000000E+00 0. -1.
        -12    1    4    4    0    0 -0.18890386618E+02  0.33386420417E+02  0.89359344312E+01  0.39387189530E+02  0.00000000000E+00 0.  1.
</event>
<event>
12    1  0.8251070E-002  0.1938787E+03  0.7818608E-02  0.1155073E+00
         21   -1    0    0  503  502  0.00000000000E+00  0.00000000000E+00  0.16604087184E+03  0.16604087184E+03  0.00000000000E+00 0.  1.
         21   -1    0    0  501  503 -0.00000000000E+00 -0.00000000000E+00 -0.41543982377E+03  0.41543982377E+03  0.00000000000E+00 0. -1.
          6    2    1    2  501    0  0.86871367740E+02 -0.29597035439E+01 -0.32095699970E+03  0.37481789659E+03  0.17297301977E+03 0.  0.
         24    2    3    3    0    0 -0.33492441831E+01 -0.46628435119E+02 -0.15668241543E+03  0.18232128371E+03  0.80661284332E+02 0.  0.
         -6    2    1    2    0  502 -0.86871367740E+02  0.29597035439E+01  0.71558047765E+02  0.20666279903E+03  0.17330194438E+03 0.  0.
        -24    2    5    5    0    0  0.24027805304E+01  0.48930009841E+02  0.39470309316E+02  0.10114097394E+03  0.79193889131E+02 0.  0.
          5    1    3    3  501    0  0.90220611923E+02  0.43668731575E+02 -0.16427458427E+03  0.19249661288E+03  0.47000000000E+01 0. -1.
        -11    1    4    4    0    0  0.28622110571E+02 -0.53284584673E+02 -0.97947147603E+02  0.11511783485E+03  0.00000000000E+00 0.  1.
         12    1    4    4    0    0 -0.31971354754E+02  0.66561495535E+01 -0.58735267828E+02  0.67203448858E+02  0.00000000000E+00 0. -1.
         -5    1    5    5    0  502 -0.89274148270E+02 -0.45970306297E+02  0.32087738449E+02  0.10552182508E+03  0.47000000000E+01 0.  1.
         13    1    6    6    0    0 -0.29550636258E+02  0.22919932098E+00 -0.20301866255E+01  0.29621179810E+02  0.00000000000E+00 0. -1.
        -14    1    6    6    0    0  0.31953416789E+02  0.48700810520E+02  0.41500495941E+02  0.71519794135E+02  0.00000000000E+00 0.  1.
</event>
<event>
12    1  0.8251070E-002  0.1727970E+03  0.7818608E-02  0.1175228E+00
         21   -1    0    0  501  502  0.00000000000E+00  0.00000000000E+00  0.16637989567E+03  0.16637989567E+03  0.00000000000E+00 0. -1.
         21   -1    0    0  502  503 -0.00000000000E+00 -0.00000000000E+00 -0.18690379674E+03  0.18690379674E+03  0.00000000000E+00 0. -1.
         -6    2    1    2    0  503 -0.44217558749E+01 -0.72990178174E+01 -0.48004539834E+02  0.17934109752E+03  0.17258611134E+03 0.  0.
        -24    2    3    3    0    0  0.47715486585E+02  0.83720351598E+01 -0.72092073643E+02  0.11962365252E+03  0.82253829861E+02 0.  0.
          6    2    1    2  501    0  0.44217558749E+01  0.72990178174E+01  0.27480638762E+02  0.17394259489E+03  0.17154595077E+03 0.  0.
         24    2    5    5    0    0  0.20341623541E+02  0.43164024556E+02  0.50370666323E+02  0.12827220781E+03  0.10788716608E+03 0.  0.
          5    1    5    5  501    0 -0.15919867666E+02 -0.35865006739E+02 -0.22890027561E+02  0.45670387087E+02  0.47000000000E+01 0. -1.
        -13    1    6    6    0    0  0.40020600013E+01  0.71226334072E+02  0.37241169091E+01  0.71435818721E+02  0.00000000000E+00 0.  1.
         14    1    6    6    0    0  0.16339563539E+02 -0.28062309515E+02  0.46646549414E+02  0.56836389085E+02  0.00000000000E+00 0. -1.
         -5    1    3    3    0  503 -0.52137242460E+02 -0.15671052977E+02  0.24087533809E+02  0.59717445003E+02  0.47000000000E+01 0.  1.
         13    1    4    4    0    0  0.58296074502E+02 -0.16337529412E+02 -0.70166556996E+02  0.92675201053E+02  0.00000000000E+00 0. -1.
        -14    1    4    4    0    0 -0.10580587917E+02  0.24709564571E+02 -0.19255166469E+01  0.26948451464E+02  0.00000000000E+00 0.  1.
</event>
<event>
12    1  0.8251070E-002  0.2310232E+03  0.7818608E-02  0.1126037E+00
         21   -1    0    0  503  502  0.00000000000E+00  0.00000000000E+00  0.14213256071E+03  0.14213256071E+03  0.00000000000E+00 0. -1.
         21   -1    0    0  501  503 -0.00000000000E+00 -0.00000000000E+00 -0.41253795636E+03  0.41253795636E+03  0.00000000000E+00 0.  1.
          6    2    1    2  501    0 -0.25058605838E+02 -0.15130665007E+03 -0.21966108391E+03  0.31878313692E+03  0.17277170059E+03 0.  0.
         24    2    3    3    0    0  0.51699202289E+02 -0.72022844854E+02 -0.12686051185E+03  0.17452046313E+03  0.80645550927E+02 0.  0.
         -6    2    1    2    0  502  0.25058605838E+02  0.15130665007E+03 -0.50744311746E+02  0.23588738014E+03  0.17189018254E+03 0.  0.
        -24    2    5    5    0    0 -0.20922868243E+02  0.15962900450E+03 -0.39154314748E+02  0.18751408614E+03  0.87802543492E+02 0.  0.
          5    1    3    3  501    0 -0.76757808127E+02 -0.79283805212E+02 -0.92800572055E+02  0.14426267380E+03  0.47000000000E+01 0. -1.
        -13    1    4    4    0    0  0.65926519702E+02 -0.79397920486E+02 -0.11542745075E+03  0.15483485449E+03  0.00000000000E+00 0.  1.
         14    1    4    4    0    0 -0.14227317412E+02  0.73750756320E+01 -0.11433061101E+02  0.19685608638E+02  0.00000000000E+00 0. -1.
         -5    1    5    5    0  502  0.45981474081E+02 -0.83223544383E+01 -0.11589996998E+02  0.48373294001E+02  0.47000000000E+01 0.  1.
         13    1    6    6    0    0  0.27061147068E+02  0.76570839068E+02  0.61230877304E+01  0.81442564298E+02  0.00000000000E+00 0. -1.
        -14    1    6    6    0    0 -0.47984015311E+02  0.83058165437E+02 -0.45277402479E+02  0.10607152184E+03  0.00000000000E+00 0.  1.
</event>
<event>
12    1  0.8251070E-002  0.2394600E+03  0.7818608E-02  0.1120227E+00
         21   -1    0    0  501  502  0.00000000000E+00  0.00000000000E+00  0.31879121170E+03  0.31879121170E+03  0.00000000000E+00 0. -1.
         21   -1    0    0  502  503 -0.00000000000E+00 -0.00000000000E+00 -0.30292692954E+03  0.30292692954E+03  0.00000000000E+00 0. -1.
         -6    2    1    2    0  503  0.12834368003E+02 -0.16587200428E+03 -0.19046880393E+03  0.30562572531E+03  0.17161140956E+03 0.  0.
        -24    2    3    3    0    0  0.89394665572E+01 -0.12471367914E+03 -0.44643373587E+02  0.15398033592E+03  0.77996776985E+02 0.  0.
          6    2    1    2  501    0 -0.12834368003E+02  0.16587200428E+03  0.20633308609E+03  0.31609241594E+03  0.17222900508E+03 0.  0.
         24    2    5    5    0    0  0.17728060775E+02  0.70183279200E+02  0.18369438811E+03  0.21301480049E+03  0.79948109346E+02 0.  0.
          5    1    5    5  501    0 -0.30562428778E+02  0.95688725079E+02  0.22638697988E+02  0.10307761545E+03  0.47000000000E+01 0. -1.
        -13    1    6    6    0    0  0.24588458021E+01  0.60200982458E+01  0.12365283229E+03  0.12382370710E+03  0.00000000000E+00 0.  1.
         14    1    6    6    0    0  0.15269214973E+02  0.64163180955E+02  0.60041555816E+02  0.89191093395E+02  0.00000000000E+00 0. -1.
         -5    1    3    3    0  503  0.38949014459E+01 -0.41158325143E+02 -0.14582543035E+03  0.15164538938E+03  0.47000000000E+01 0.  1.
         11    1    4    4    0    0 -0.24224712153E+02 -0.92441429372E+02 -0.49195144443E+02  0.10748216959E+03  0.00000000000E+00 0. -1.
        -12    1    4    4    0    0  0.33164178711E+02 -0.32272249764E+02  0.45517708555E+01  0.46498166332E+02  0.00000000000E+00 0.  1.
</event>
<event>
12    1  0.8251070E-002  0.2024314E+03  0.7818608E-02  0.1148160E+00
         21   -1    0    0  503  502  0.00000000000E+00  0.00000000000E+00  0.18233538021E+04  0.18233538021E+04  0.00000000000E+00 0.  1.
         21   -1    0    0  501  503 -0.00000000000E+00 -0.00000000000E+00 -0.25636175157E+02  0.25636175157E+02  0.00000000000E+00 0. -1.
          6    2    1    2  501    0 -0.42294290322E+01 -0.10094356861E+03  0.55777452399E+03  0.59263120642E+03  0.17289255362E+03 0.  0.
         24    2    3    3    0    0  0.51115289286E+02 -0.23431046066E+02  0.21491111424E+03  0.23675392877E+03  0.81877036153E+02 0.  0.
         -6    2    1    2    0  502  0.42294290322E+01  0.10094356861E+03  0.12399431029E+04  0.12563587708E+04  0.17541656245E+03 0.  0.
        -24    2    5    5    0    0 -0.32505792125E+02  0.12791505020E+03  0.10319558815E+04  0.10433852711E+04  0.79378813555E+02 0.  0.
          5    1    3    3  501    0 -0.55344718319E+02 -0.77512522542E+02  0.34286340975E+03  0.35587727764E+03  0.47000000000E+01 0. -1.
        -11    1    4    4    0    0  0.12798820586E+02  0.12013691867E+01  0.17706772097E+03  0.17753374582E+03  0.00000000000E+00 0.  1.
         12    1    4    4    0    0  0.38316468701E+02 -0.24632415252E+02  0.37843393265E+02  0.59220182950E+02  0.00000000000E+00 0. -1.
         -5    1    5    5    0  502  0.36735221157E+02 -0.26971481595E+02  0.20798722147E+03  0.21297349974E+03  0.47000000000E+01 0.  1.
         13    1    6    6    0    0 -0.48005470092E+02  0.81265848470E+02  0.83793556697E+03  0.84323465161E+03  0.00000000000E+00 0. -1.
        -14    1    6    6    0    0  0.15499677967E+02  0.46649201733E+02  0.19402031449E+03  0.20015061947E+03  0.00000000000E+00 0.  1.
</event>
<event>
12    1  0.8251070E-002  0.2512937E+03  0.7818608E-02  0.1112696E+00
         21   -1    0    0  501  502  0.00000000000E+00  0.00000000000E+00  0.48965216790E+03  0.48965216790E+03  0.00000000000E+00 0. -1.
         21   -1    0    0  502  503 -0.00000000000E+00 -0.00000000000E+00 -0.13591714204E+03  0.13591714204E+03  0.00000000000E+00 0. -1.
         -6    2    1    2    0  503  0.55262210258E+02  0.17537578511E+03  0.10235656267E+03  0.27012643339E+03  0.16935420340E+03 0.  0.
        -24    2    3    3    0    0  0.30654763883E+02  0.13382430831E+03  0.13774503005E+03  0.21007241383E+03  0.79423332240E+02 0.  0.
          6    2    1    2  501    0 -0.55262210258E+02 -0.17537578511E+03  0.25137846319E+03  0.35544287655E+03  0.17128318320E+03 0.  0.
         24    2    5    5    0    0 -0.89633982746E+02 -0.12425921590E+03  0.12380848634E+03  0.21370187547E+03  0.82857387666E+02 0.  0.
          5    1    5    5  501    0  0.34371772488E+02 -0.51116569210E+02  0.12756997686E+03  0.14174100108E+03  0.47000000000E+01 0. -1.
        -11    1    6    6    0    0 -0.14113281194E+02  0.10810209451E+02  0.22772867491E+02  0.28890289514E+02  0.00000000000E+00 0.  1.
         12    1    6    6    0    0 -0.75520701552E+02 -0.13506942535E+03  0.10103561885E+03  0.18481158595E+03  0.00000000000E+00 0. -1.
         -5    1    3    3    0  503  0.24607446374E+02  0.41551476800E+02 -0.35388467386E+02  0.60054019560E+02  0.47000000000E+01 0.  1.
         11    1    4    4    0    0  0.48831378417E+01  0.77843847642E+02  0.25566491592E+02  0.82080175093E+02  0.00000000000E+00 0. -1.
        -12    1    4    4    0    0  0.25771626042E+02  0.55980460668E+02  0.11217853846E+03  0.12799223874E+03  0.00000000000E+00 0.  1.
</event>
<event>
12    1  0.8251070E-002  0.2519509E+03  0.7818608E-02  0.1112948E+00
         21   -1    0    0  501  502  0.00000000000E+00  0.00000000000E+00  0.37958380306E+02  0.37958380306E+02  0.00000000000E+00 0. -1.
         21   -1    0    0  502  503 -0.00000000000E+00 -0.00000000000E+00 -0.18122223868E+04  0.18122223868E+04  0.00000000000E+00 0. -1.
         -6    2    1    2    0  503  0.15275163441E+03 -0.86498172098E+02 -0.11843894756E+04  0.12108912686E+04  0.18073250610E+03 0.  0.
        -24    2    3    3    0    0  0.16352350691E+03 -0.18978660037E+02 -0.82532689260E+03  0.84534654317E+03  0.79662861817E+02 0.  0.
          6    2    1    2  501    0 -0.15275163441E+03  0.86498172098E+02 -0.58987453090E+03  0.63928949856E+03  0.17298585251E+03 0.  0.
         24    2    5    5    0    0 -0.11424808060E+03  0.29628034067E+02 -0.21134195941E+03  0.25454837269E+03  0.78733765991E+02 0.  0.
          5    1    5    5  501    0 -0.38503553811E+02  0.56870138031E+02 -0.37853257149E+03  0.38474112587E+03  0.47000000000E+01 0. -1.
        -11    1    6    6    0    0 -0.30513127433E+02 -0.72992573617E+01 -0.12448117810E+03  0.12837403868E+03  0.00000000000E+00 0.  1.
         12    1    6    6    0    0 -0.83734953169E+02  0.36927291428E+02 -0.86860781306E+02  0.12617433401E+03  0.00000000000E+00 0. -1.
         -5    1    3    3    0  503 -0.10771872500E+02 -0.67519512061E+02 -0.35906258302E+03  0.36554472540E+03  0.47000000000E+01 0.  1.
         13    1    4    4    0    0  0.12012089380E+03 -0.42948842666E+02 -0.48813920784E+03  0.50453297062E+03  0.00000000000E+00 0. -1.
        -14    1    4    4    0    0  0.43402613115E+02  0.23970182629E+02 -0.33718768476E+03  0.34081357255E+03  0.00000000000E+00 0.  1.
</event>
<event>
12    1  0.8251070E-002  0.1986099E+03  0.7818608E-02  0.1151331E+00
         21   -1    0    0  501  502  0.00000000000E+00  0.00000000000E+00  0.29766536608E+03  0.29766536608E+03  0.00000000000E+00 0.  1.
         21   -1    0    0  502  503 -0.00000000000E+00 -0.00000000000E+00 -0.27173818922E+03  0.27173818922E+03  0.00000000000E+00 0. -1.
         -6    2    1    2    0  503 -0.71778629704E+02 -0.67217974400E+02 -0.19172689661E+03  0.27605267102E+03  0.17255563314E+03 0.  0.
        -24    2    3    3    0    0 -0.94134754417E+02 -0.27316070103E+02 -0.19089797473E+03  0.23006641883E+03  0.82951797112E+02 0.  0.
          6    2    1    2  501    0  0.71778629704E+02  0.67217974400E+02  0.21765407347E+03  0.29335088428E+03  0.17032621010E+03 0.  0.
         24    2    5    5    0    0  0.10408758676E+03  0.48243256791E+02  0.10852583399E+03  0.17787373821E+03  0.81850916657E+02 0.  0.
          5    1    5    5  501    0 -0.32308957051E+02  0.18974717609E+02  0.10912823948E+03  0.11547714608E+03  0.47000000000E+01 0. -1.
        -13    1    6    6    0    0  0.93133435084E+02  0.32709278300E+02  0.12022321248E+03  0.15555498847E+03  0.00000000000E+00 0.  1.
         14    1    6    6    0    0  0.10954151671E+02  0.15533978492E+02 -0.11697378486E+02  0.22318749742E+02  0.00000000000E+00 0. -1.
         -5    1    3    3    0  503  0.22356124713E+02 -0.39901904298E+02 -0.82892188021E+00  0.45986252187E+02  0.47000000000E+01 0.  1.
         13    1    4    4    0    0  0.55516322852E+01  0.12493600477E+02 -0.56147180158E+02  0.57787684791E+02  0.00000000000E+00 0. -1.
        -14    1    4    4    0    0 -0.99686386702E+02 -0.39809670580E+02 -0.13475079457E+03  0.17227873404E+03  0.00000000000E+00 0.  1.
</event>
<event>
12    1  0.8251070E-002  0.2843332E+03  0.7818608E-02  0.1093448E+00
         21   -1    0    0  503  502  0.00000000000E+00  0.00000000000E+00  0.75091277921E+03  0.75091277921E+03  0.00000000000E+00 0. -1.
         21   -1    0    0  501  503 -0.00000000000E+00 -0.00000000000E+00 -0.75504070327E+03  0.75504070327E+03  0.00000000000E+00 0.  1.
          6    2    1    2  501    0 -0.32567554127E+02 -0.22289821293E+03 -0.69944905034E+03  0.75503267299E+03  0.17349669836E+03 0.  0.
         24    2    3    3    0    0 -0.29431910354E+02 -0.10703954255E+03 -0.54404304945E+03  0.56110954677E+03  0.80854083478E+02 0.  0.
         -6    2    1    2    0  502  0.32567554127E+02  0.22289821293E+03  0.69532112628E+03  0.75092080949E+03  0.17223917837E+03 0.  0.
        -24    2    5    5    0    0  0.31880162284E+02  0.19061149527E+03  0.37852820481E+03  0.43245142362E+03  0.79884573454E+02 0.  0.
          5    1    3    3  501    0 -0.31356437730E+01 -0.11585867038E+03 -0.15540600090E+03  0.19392312621E+03  0.47000000000E+01 0. -1.
        -13    1    4    4    0    0 -0.52054450774E+02 -0.10140541624E+03 -0.45642335469E+03  0.47044128539E+03  0.00000000000E+00 0.  1.
         14    1    4    4    0    0  0.22622540420E+02 -0.56341263100E+01 -0.87619694754E+02  0.90668261388E+02  0.00000000000E+00 0. -1.
         -5    1    5    5    0  502  0.68739184383E+00  0.32286717659E+02  0.31679292147E+03  0.31846938587E+03  0.47000000000E+01 0.  1.
         11    1    6    6    0    0  0.50764203017E+02  0.12455501674E+03  0.29559578441E+03  0.32475810116E+03  0.00000000000E+00 0. -1.
        -12    1    6    6    0    0 -0.18884040734E+02  0.66056478531E+02  0.82932420400E+02  0.10769332247E+03  0.00000000000E+00 0.  1.
</event>
<event>
12    1  0.8251070E-002  0.1739688E+03  0.7818608E-02  0.1174200E+00
         21   -1    0    0  503  502  0.00000000000E+00  0.00000000000E+00  0.35784195227E+03  0.35784195227E+03  0.00000000000E+00 0. -1.
         21   -1    0    0  501  503 -0.00000000000E+00 -0.00000000000E+00 -0.84191990303E+02  0.84191990303E+02  0.00000000000E+00 0. -1.
          6    2    1    2  501    0 -0.18296212698E+02  0.33888708156E+01  0.15201798426E+03  0.22976174909E+03  0.17127392669E+03 0.  0.
         24    2    3    3    0    0  0.28868869164E+02 -0.28074472817E+02  0.29419991373E+02  0.94606857210E+02  0.80394862448E+02 0.  0.
         -6    2    1    2    0  502  0.18296212698E+02 -0.33888708156E+01  0.12163197770E+03  0.21227219348E+03  0.17297083650E+03 0.  0.
        -24    2    5    5    0    0  0.45673599039E+02 -0.55402884021E+02  0.46145330358E+02  0.11648439269E+03  0.79269571838E+02 0.  0.
          5    1    3    3  501    0 -0.47165081862E+02  0.31463343633E+02  0.12259799289E+03  0.13515489188E+03  0.47000000000E+01 0. -1.
        -13    1    4    4    0    0 -0.27706512848E+02 -0.14100778658E+02  0.52994809225E+01  0.31536761264E+02  0.00000000000E+00 0.  1.
         14    1    4    4    0    0  0.56575382012E+02 -0.13973694159E+02  0.24120510450E+02  0.63070095946E+02  0.00000000000E+00 0. -1.
         -5    1    5    5    0  502 -0.27377386342E+02  0.52014013205E+02  0.75486647344E+02  0.95787800788E+02  0.47000000000E+01 0.  1.
         13    1    6    6    0    0 -0.16680332007E+02  0.62903229184E+01  0.10559290485E+01  0.17858236880E+02  0.00000000000E+00 0. -1.
        -14    1    6    6    0    0  0.62353931047E+02 -0.61693206939E+02  0.45089401309E+02  0.98626155810E+02  0.00000000000E+00 0.  1.
</event>
<event>
12    1  0.8251070E-002  0.2047662E+03  0.7818608E-02  0.1147309E+00
         21   -1    0    0  501  502  0.00000000000E+00  0.00000000000E+00  0.23328128131E+03  0.23328128131E+03  0.00000000000E+00 0.  1.
         21   -1    0    0  502  503 -0.00000000000E+00 -0.00000000000E+00 -0.32944162968E+03  0.32944162968E+03  0.00000000000E+00 0. -1.
         -6    2    1    2    0  503 -0.38989557165E+02 -0.89744277067E+02 -0.24219110298E+03  0.31715251943E+03  0.17987487147E+03 0.  0.
        -24    2    3    3    0    0  0.45734540214E+02 -0.65893938381E+02 -0.15815522695E+03  0.19536939338E+03  0.81990638328E+02 0.  0.
          6    2    1    2  501    0  0.38989557165E+02  0.89744277067E+02  0.14603075461E+03  0.24557039156E+03  0.17148065514E+03 0.  0.
         24    2    5    5    0    0  0.92254376302E+02  0.52391874387E+02  0.10903312884E+03  0.17058201076E+03  0.77163597381E+02 0.  0.
          5    1    5    5  501    0 -0.53264819137E+02  0.37352402680E+02  0.36997625765E+02  0.74988380806E+02  0.47000000000E+01 0. -1.
        -13    1    6    6    0    0  0.34388609194E+02 -0.16725430783E+02  0.49518533182E+02  0.62565178859E+02  0.00000000000E+00 0.  1.
         14    1    6    6    0    0  0.57865767108E+02  0.69117305170E+02  0.59514595658E+02  0.10801683190E+03  0.00000000000E+00 0. -1.
         -5    1    3    3    0  503 -0.84724097379E+02 -0.23850338686E+02 -0.84035876023E+02  0.12178312605E+03  0.47000000000E+01 0.  1.
         13    1    4    4    0    0 -0.16002508858E+02 -0.77291356764E+01 -0.73173702197E+02  0.75300800270E+02  0.00000000000E+00 0. -1.
        -14    1    4    4    0    0  0.61737049072E+02 -0.58164802705E+02 -0.84981524757E+02  0.12006859311E+03  0.00000000000E+00 0.  1.
</event>
<event>
12    1  0.8251070E-002  0.2179559E+03  0.7818608E-02  0.1136240E+00
         21   -1    0    0  501  502  0.00000000000E+00  0.00000000000E+00  0.30427723869E+02  0.30427723869E+02  0.00000000000E+00 0. -1.
         21   -1    0    0  502  503 -0.00000000000E+00 -0.00000000000E+00 -0.15457942256E+04  0.15457942256E+04  0.00000000000E+00 0. -1.
         -6    2    1    2    0  503  0.88127695050E+02 -0.89769864012E+02 -0.82874008539E+03  0.85583273447E+03  0.17266852966E+03 0.  0.
        -24    2    3    3    0    0  0.49227912575E+02 -0.39117309561E+01 -0.21537392970E+03  0.23524837837E+03  0.80729058682E+02 0.  0.
          6    2    1    2  501    0 -0.88127695050E+02  0.89769864012E+02 -0.68662641637E+03  0.72038921503E+03  0.17798782642E+03 0.  0.
         24    2    5    5    0    0 -0.29635977395E+02  0.28289058682E+02 -0.13603767255E+03  0.16327950835E+03  0.80469792442E+02 0.  0.
          5    1    5    5  501    0 -0.58491717656E+02  0.61480805331E+02 -0.55058874382E+03  0.55710970668E+03  0.47000000000E+01 0. -1.
        -13    1    6    6    0    0 -0.47255157043E+02 -0.52005100827E+01 -0.48507670583E+02  0.67919726720E+02  0.00000000000E+00 0.  1.
         14    1    6    6    0    0  0.17619179648E+02  0.33489568764E+02 -0.87530001966E+02  0.95359781625E+02  0.00000000000E+00 0. -1.
         -5    1    3    3    0  503  0.38899782476E+02 -0.85858133056E+02 -0.61336615570E+03  0.62058435610E+03  0.47000000000E+01 0.  1.
         11    1    4    4    0    0  0.46350429837E+02 -0.28875351144E+02 -0.75755178001E+02  0.93386269032E+02  0.00000000000E+00 0. -1.
        -12    1    4    4    0    0  0.28774827374E+01  0.24963620188E+02 -0.13961875169E+03  0.14186210933E+03  0.00000000000E+00 0.  1.
</event>
<event>
12    1  0.8251070E-002  0.1822681E+03  0.7818608E-02  0.1166258E+00
         21   -1    0    0  503  502  0.00000000000E+00  0.00000000000E+00  0.15421058786E+04  0.15421058786E+04  0.00000000000E+00 0. -1.
         21   -1    0    0  501  503 -0.00000000000E+00 -0.00000000000E+00 -0.81718721344E+02  0.81718721344E+02  0.00000000000E+00 0. -1.
          6    2    1    2  501    0 -0.35775715515E+02  0.47749570779E+02  0.33064920419E+02  0.18524293180E+03  0.17222581539E+03 0.  0.
         24    2    3    3    0    0 -0.58982590981E+01 -0.25960079907E+02  0.57171539735E+02  0.10200235214E+03  0.80169693014E+02 0.  0.
         -6    2    1    2    0  502  0.35775715515E+02 -0.47749570779E+02  0.14273222368E+04  0.14385816681E+04  0.16943590184E+03 0.  0.
        -24    2    5    5    0    0  0.45822231737E+02  0.62541310885E+01  0.12341467740E+04  0.12376931873E+04  0.81408691065E+02 0.  0.
          5    1    3    3  501    0 -0.29877456417E+02  0.73709650686E+02 -0.24106619315E+02  0.83240579654E+02  0.47000000000E+01 0. -1.
        -13    1    4    4    0    0 -0.38206149208E+02 -0.26554629268E+02  0.15024444648E+02  0.48893681697E+02  0.00000000000E+00 0.  1.
         14    1    4    4    0    0  0.32307890110E+02  0.59454936105E+00  0.42147095087E+02  0.53108670446E+02  0.00000000000E+00 0. -1.
         -5    1    5    5    0  502 -0.10046516222E+02 -0.54003701868E+02  0.19317546279E+03  0.20088848082E+03  0.47000000000E+01 0.  1.
         11    1    6    6    0    0 -0.91925698516E+01 -0.26039752416E+02  0.26072328691E+03  0.26218162481E+03  0.00000000000E+00 0. -1.
        -12    1    6    6    0    0  0.55014801588E+02  0.32293883504E+02  0.97342348709E+03  0.97551156248E+03  0.00000000000E+00 0.  1.
</event>
<event>
12    1  0.8251070E-002  0.2328407E+03  0.7818608E-02  0.1124808E+00
         21   -1    0    0  501  502  0.00000000000E+00  0.00000000000E+00  0.67804257808E+03  0.67804257808E+03  0.00000000000E+00 0. -1.
         21   -1    0    0  502  503 -0.00000000000E+00 -0.00000000000E+00 -0.98081870038E+02  0.98081870038E+02  0.00000000000E+00 0.  1.
         -6    2    1    2    0  503 -0.15655459440E+03  0.66951730751E+01  0.12223585734E+03  0.26297605895E+03  0.17222263611E+03 0.  0.
        -24    2    3    3    0    0 -0.39280433386E+02  0.38581633643E+02  0.99473697691E+02  0.13924174228E+03  0.80385019490E+02 0.  0.
          6    2    1    2  501    0  0.15655459440E+03 -0.66951730751E+01  0.45772485070E+03  0.51314838917E+03  0.17104111783E+03 0.  0.
         24    2    5    5    0    0  0.17540623232E+03 -0.36040709726E+02  0.40124927482E+03  0.44660422756E+03  0.79925443002E+02 0.  0.
          5    1    5    5  501    0 -0.18851637912E+02  0.29345536651E+02  0.56475575883E+02  0.66544161612E+02  0.47000000000E+01 0. -1.
        -11    1    6    6    0    0  0.83539064657E+02 -0.22251365213E+02  0.10434096973E+03  0.13550253334E+03  0.00000000000E+00 0.  1.
         12    1    6    6    0    0  0.91867167658E+02 -0.13789344513E+02  0.29690830508E+03  0.31110169421E+03  0.00000000000E+00 0. -1.
         -5    1    3    3    0  503 -0.11727416102E+03 -0.31886460568E+02  0.22762159651E+02  0.12373431667E+03  0.47000000000E+01 0.  1.
         11    1    4    4    0    0 -0.17004087438E+02 -0.11853504647E+02  0.76933092070E+02  0.79676503547E+02  0.00000000000E+00 0. -1.
        -12    1    4    4    0    0 -0.22276345947E+02  0.50435138290E+02  0.22540605621E+02  0.59565238729E+02  0.00000000000E+00 0.  1.
</event>
<event>
12    1  0.8251070E-002  0.2603517E+03  0.7818608E-02  0.1107634E+00
         21   -1    0    0  501  502  0.00000000000E+00  0.00000000000E+00  0.34985019525E+03  0.34985019525E+03  0.00000000000E+00 0. -1.
         21   -1    0    0  502  503 -0.00000000000E+00 -0.00000000000E+00 -0.20419193249E+03  0.20419193249E+03  0.00000000000E+00 0.  1.
         -6    2    1    2    0  503  0.12471393319E+03  0.14388356340E+03 -0.45696752021E-02  0.25571229707E+03  0.17068313889E+03 0.  0.
        -24    2    3    3    0    0  0.95088523815E+02  0.17248267518E+03 -0.11183496841E+02  0.21278640175E+03  0.79755135062E+02 0.  0.
          6    2    1    2  501    0 -0.12471393319E+03 -0.14388356340E+03  0.14566283244E+03  0.29832983067E+03  0.17755839086E+03 0.  0.
         24    2    5    5    0    0 -0.38904120526E+02 -0.14870568265E+03  0.11983014331E+03  0.20846329290E+03  0.73964657722E+02 0.  0.
          5    1    5    5  501    0 -0.85809812668E+02  0.48221192577E+01  0.25832689128E+02  0.89866537776E+02  0.47000000000E+01 0. -1.
        -11    1    6    6    0    0 -0.26499829828E+02 -0.31661671100E+02  0.11321708458E+01  0.41303561694E+02  0.00000000000E+00 0.  1.
         12    1    6    6    0    0 -0.12404290698E+02 -0.11704401155E+03  0.11869797247E+03  0.16715973120E+03  0.00000000000E+00 0. -1.
         -5    1    3    3    0  503  0.29625409379E+02 -0.28599111788E+02  0.11178927166E+02  0.42925895314E+02  0.47000000000E+01 0.  1.
         13    1    4    4    0    0  0.50473175619E+02  0.21482963104E+02  0.98680275405E+00  0.54863767101E+02  0.00000000000E+00 0. -1.
        -14    1    4    4    0    0  0.44615348196E+02  0.15099971208E+03 -0.12170299595E+02  0.15792263465E+03  0.00000000000E+00 0.  1.
</event>
<event>
12    1  0.8251070E-002  0.2316346E+03  0.7818608E-02  0.1125528E+00
         21   -1    0    0  503  502  0.00000000000E+00  0.00000000000E+00  0.58917065402E+03  0.58917065402E+03  0.00000000000E+00 0.  1.
         21   -1    0    0  501  503 -0.00000000000E+00 -0.00000000000E+00 -0.98016657811E+02  0.98016657811E+02  0.00000000000E+00 0. -1.
          6    2    1    2  501    0  0.34563960418E+01 -0.15496988195E+03  0.33764387932E+03  0.40946061640E+03  0.17212494345E+03 0.  0.
         24    2    3    3    0    0 -0.61656596136E+02 -0.12482663530E+03  0.22345716101E+03  0.27451983788E+03  0.77748400991E+02 0.  0.
         -6    2    1    2    0  502 -0.34563960418E+01  0.15496988195E+03  0.15351011689E+03  0.27772669543E+03  0.17186957376E+03 0.  0.
        -24    2    5    5    0    0  0.19250304744E+02  0.25953070706E+02  0.16882735644E+02  0.88385566382E+02  0.80516119319E+02 0.  0.
          5    1    3    3  501    0  0.65112992178E+02 -0.30143246649E+02  0.11418671831E+03  0.13494077852E+03  0.47000000000E+01 0. -1.
        -13    1    4    4    0    0 -0.60727263479E+02 -0.35934794222E+02  0.98165459101E+02  0.12089486063E+03  0.00000000000E+00 0.  1.
         14    1    4    4    0    0 -0.92933265692E+00 -0.88891841077E+02  0.12529170191E+03  0.15362497725E+03  0.00000000000E+00 0. -1.
         -5    1    5    5    0  502 -0.22706700785E+02  0.12901681124E+03  0.13662738125E+03  0.18934112905E+03  0.47000000000E+01 0.  1.
         13    1    6    6    0    0 -0.18092009750E+02  0.38821632107E+02 -0.51822828082E+01  0.43142739729E+02  0.00000000000E+00 0. -1.
        -14    1    6    6    0    0  0.37342314493E+02 -0.12868561401E+02  0.22065018452E+02  0.45242826653E+02  0.00000000000E+00 0.  1.
</event>
<event>
12    1  0.8251070E-002  0.2683122E+03  0.7818608E-02  0.1102257E+00
         21   -1    0    0  503  502  0.00000000000E+00  0.00000000000E+00  0.21336124856E+03  0.21336124856E+03  0.00000000000E+00 0.  1.
         21   -1    0    0  501  503 -0.00000000000E+00 -0.00000000000E+00 -0.34930851595E+03  0.34930851595E+03  0.00000000000E+00 0. -1.
          6    2    1    2  501    0  0.16526730848E+03 -0.12303460264E+03 -0.15911808122E+02  0.26873107173E+03  0.17179175351E+03 0.  0.
         24    2    3    3    0    0  0.14954024033E+02 -0.51238334835E+02  0.21331397697E+02  0.97974127703E+02  0.79340477564E+02 0.  0.
         -6    2    1    2    0  502 -0.16526730848E+03  0.12303460264E+03 -0.12003545928E+03  0.29393869278E+03  0.17187392743E+03 0.  0.
        -24    2    5    5    0    0 -0.39726571701E+02  0.38846655811E+01 -0.70569654018E+02  0.11386609636E+03  0.79950739247E+02 0.  0.
          5    1    3    3  501    0  0.15031328445E+03 -0.71796267806E+02 -0.37243205819E+02  0.17075694402E+03  0.47000000000E+01 0. -1.
        -13    1    4    4    0    0  0.47646738464E+02 -0.34854264856E+02  0.12169611437E+02  0.60275458583E+02  0.00000000000E+00 0.  1.
         14    1    4    4    0    0 -0.32692714431E+02 -0.16384069979E+02  0.91617862601E+01  0.37698669120E+02  0.00000000000E+00 0. -1.
         -5    1    5    5    0  502 -0.12554073678E+03  0.11914993706E+03 -0.49465805259E+02  0.18007259642E+03  0.47000000000E+01 0.  1.
         13    1    6    6    0    0 -0.10729100051E+02  0.40000474810E+02 -0.44194070206E+02  0.60566223378E+02  0.00000000000E+00 0. -1.
        -14    1    6    6    0    0 -0.28997471650E+02 -0.36115809229E+02 -0.26375583812E+02  0.53299872981E+02  0.00000000000E+00 0.  1.
</event>
<event>
12    1  0.8251070E-002  0.1750110E+03  0.7818608E-02  0.1172794E+00
         21   -1    0    0  501  502  0.00000000000E+00  0.00000000000E+00  0.15703009168E+03  0.15703009168E+03  0.00000000000E+00 0.  1.
         21   -1    0    0  502  503 -0.00000000000E+00 -0.00000000000E+00 -0.22481565059E+03  0.22481565059E+03  0.00000000000E+00 0.  1.
         -6    2    1    2    0  503 -0.26748173828E+02 -0.18371111959E+02 -0.10376701835E+03  0.20346118689E+03  0.17197644581E+03 0.  0.
        -24    2    3    3    0    0 -0.78297366836E+02  0.68204082635E+01 -0.62074001108E+02  0.13238144521E+03  0.86571760977E+02 0.  0.
          6    2    1    2  501    0  0.26748173828E+02  0.18371111959E+02  0.35981459448E+02  0.17838455538E+03  0.17167825027E+03 0.  0.
         24    2    5    5    0    0 -0.48466045650E+02  0.10459300111E+02 -0.73707796108E+00  0.94181725450E+02  0.80070591262E+02 0.  0.
          5    1    5    5  501    0  0.75214219478E+02  0.79118118486E+01  0.36718537409E+02  0.84202829928E+02  0.47000000000E+01 0. -1.
        -11    1    6    6    0    0 -0.49691500229E+02  0.13723000546E+02  0.32382939046E+02  0.60878737506E+02  0.00000000000E+00 0.  1.
         12    1    6    6    0    0  0.12254545789E+01 -0.32637004351E+01 -0.33120017007E+02  0.33302987944E+02  0.00000000000E+00 0. -1.
         -5    1    3    3    0  503  0.51549193009E+02 -0.25191520223E+02 -0.41693017244E+02  0.71079741684E+02  0.47000000000E+01 0.  1.
         13    1    4    4    0    0 -0.86582497212E+01 -0.34725490302E+02 -0.17290733695E+02  0.39746627991E+02  0.00000000000E+00 0. -1.
        -14    1    4    4    0    0 -0.69639117115E+02  0.41545898565E+02 -0.44783267413E+02  0.92634817214E+02  0.00000000000E+00 0.  1.
</event>
<event>
12    1  0.8251070E-002  0.2199805E+03  0.7818608E-02  0.1134061E+00
         21   -1    0    0  503  502  0.00000000000E+00  0.00000000000E+00  0.10160138058E+04  0.10160138058E+04  0.00000000000E+00 0.  1.
         21   -1    0    0  501  503 -0.00000000000E+00 -0.00000000000E+00 -0.12526580832E+03  0.12526580832E+03  0.00000000000E+00 0.  1.
          6    2    1    2  501    0 -0.89315378391E+02  0.10046479259E+03 -0.47482589325E+01  0.21915979477E+03  0.17302617812E+03 0.  0.
         24    2    3    3    0    0 -0.10430089596E+03  0.50579783538E+02  0.38088035037E+02  0.15155714730E+03  0.89899271867E+02 0.  0.
         -6    2    1    2    0  502  0.89315378391E+02 -0.10046479259E+03  0.89549625644E+03  0.92211981938E+03  0.17412927562E+03 0.  0.
        -24    2    5    5    0    0 -0.22554712739E+02 -0.45711085336E+02  0.38876979139E+03  0.40028968789E+03  0.80570870330E+02 0.  0.
          5    1    3    3  501    0  0.14985517570E+02  0.49885009048E+02 -0.42836293970E+02  0.67602647475E+02  0.47000000000E+01 0. -1.
        -11    1    4    4    0    0 -0.86887081055E+02  0.38876723053E+02 -0.13241982083E+02  0.96104706123E+02  0.00000000000E+00 0.  1.
         12    1    4    4    0    0 -0.17413814906E+02  0.11703060485E+02  0.51330017121E+02  0.55452441172E+02  0.00000000000E+00 0. -1.
         -5    1    5    5    0  502  0.11187009113E+03 -0.54753707251E+02  0.50672646505E+03  0.52183013149E+03  0.47000000000E+01 0.  1.
         13    1    6    6    0    0 -0.35178633295E+02  0.89324326862E+01  0.20372673311E+03  0.20693454612E+03  0.00000000000E+00 0. -1.
        -14    1    6    6    0    0  0.12623920555E+02 -0.54643518022E+02  0.18504305828E+03  0.19335514177E+03  0.00000000000E+00 0.  1.
</event>
<event>
12    1  0.8251070E-002  0.1762709E+03  0.7818608E-02  0.1171483E+00
         21   -1    0    0  501  502  0.00000000000E+00  0.00000000000E+00  0.12270488683E+03  0.12270488683E+03  0.00000000000E+00 0. -1.
         21   -1    0    0  502  503 -0.00000000000E+00 -0.00000000000E+00 -0.29257830317E+03  0.29257830317E+03  0.00000000000E+00 0. -1.
         -6    2    1    2    0  503  0.12958896756E+02  0.40287628692E+02 -0.16119494695E+03  0.23879881928E+03  0.17102642818E+03 0.  0.
        -24    2    3    3    0    0  0.56166822454E-02  0.39065533675E+02 -0.13017529509E+02  0.89977053328E+02  0.80001863092E+02 0.  0.
          6    2    1    2  501    0 -0.12958896756E+02 -0.40287628692E+02 -0.86784693811E+01  0.17648437071E+03  0.17111514031E+03 0.  0.
         24    2    5    5    0    0 -0.19671862900E+01 -0.46342506796E+02 -0.68141744455E+02  0.11552987678E+03  0.80946632625E+02 0.  0.
          5    1    5    5  501    0 -0.10991710466E+02  0.60548781036E+01  0.59463275074E+02  0.60954493931E+02  0.47000000000E+01 0. -1.
        -13    1    6    6    0    0  0.32050556749E+02 -0.41152941016E+02 -0.61222034878E+02  0.80429722720E+02  0.00000000000E+00 0.  1.
         14    1    6    6    0    0 -0.34017743039E+02 -0.51895657801E+01 -0.69197095775E+01  0.35100154061E+02  0.00000000000E+00 0. -1.
         -5    1    3    3    0  503  0.12953280074E+02  0.12220950174E+01 -0.14817741745E+03  0.14882176595E+03  0.47000000000E+01 0.  1.
         11    1    4    4    0    0 -0.19698528760E+02  0.46609629352E+02 -0.33408374202E+02  0.60635048037E+02  0.00000000000E+00 0. -1.
        -12    1    4    4    0    0  0.19704145443E+02 -0.75440956774E+01  0.20390844693E+02  0.29342005291E+02  0.00000000000E+00 0.  1.
</event>
<event>
12    1  0.8251070E-002  0.2457189E+03  0.7818608E-02  0.1116135E+00
         21   -1    0    0  503  502  0.00000000000E+00  0.00000000000E+00  0.73525244093E+03  0.73525244093E+03  0.00000000000E+00 0.  1.
         21   -1    0    0  501  503 -0.00000000000E+00 -0.00000000000E+00 -0.13578769764E+03  0.13578769764E+03  0.00000000000E+00 0. -1.
          6    2    1    2  501    0  0.14604446797E+03  0.10271169109E+03  0.25645862475E+02  0.24705360883E+03  0.16881675646E+03 0.  0.
         24    2    3    3    0    0  0.17054327161E+03  0.79002820860E+02  0.42413781160E+02  0.20877104094E+03  0.80373910605E+02 0.  0.
         -6    2    1    2    0  502 -0.14604446797E+03 -0.10271169109E+03  0.57381888082E+03  0.62398652975E+03  0.16796548220E+03 0.  0.
        -24    2    5    5    0    0 -0.16928595715E+03 -0.70693940070E+02  0.42014793049E+03  0.46523466622E+03  0.79143178518E+02 0.  0.
          5    1    3    3  501    0 -0.24498803640E+02  0.23708870227E+02 -0.16767918685E+02  0.38282567890E+02  0.47000000000E+01 0. -1.
        -11    1    4    4    0    0  0.77713830081E+02  0.72934270302E+02  0.45045377156E+02  0.11570623654E+03  0.00000000000E+00 0.  1.
         12    1    4    4    0    0  0.92829441529E+02  0.60685505583E+01 -0.26315959963E+01  0.93064804399E+02  0.00000000000E+00 0. -1.
         -5    1    5    5    0  502  0.23241489177E+02 -0.32017751017E+02  0.15367095033E+03  0.15875186353E+03  0.47000000000E+01 0.  1.
         11    1    6    6    0    0 -0.12836849623E+03 -0.30344844719E+02  0.21543878941E+03  0.25261265290E+03  0.00000000000E+00 0. -1.
        -12    1    6    6    0    0 -0.40917460919E+02 -0.40349095351E+02  0.20470914108E+03  0.21262201331E+03  0.00000000000E+00 0.  1.
</event>
<event>
12    1  0.8251070E-002  0.1758633E+03  0.7818608E-02  0.1172134E+00
         21   -1    0    0  501  502  0.00000000000E+00  0.00000000000E+00  0.61302430025E+03  0.61302430025E+03  0.00000000000E+00 0. -1.
         21   -1    0    0  502  503 -0.00000000000E+00 -0.00000000000E+00 -0.26523897601E+03  0.26523897601E+03  0.00000000000E+00 0. -1.
         -6    2    1    2    0  503  0.46282802473E+01 -0.23428281036E+02 -0.22145488362E+03  0.28278999430E+03  0.17423435386E+03 0.  0.
        -24    2    3    3    0    0 -0.30005025144E+02 -0.52596154013E+02 -0.21524946406E+03  0.23684624730E+03  0.78084288655E+02 0.  0.
          6    2    1    2  501    0 -0.46282802473E+01  0.23428281036E+02  0.56924020786E+03  0.59547328196E+03  0.17315804905E+03 0.  0.
         24    2    5    5    0    0  0.89454972482E+01 -0.52011626876E+02  0.25092853139E+03  0.26802887367E+03  0.78032800820E+02 0.  0.
          5    1    5    5  501    0 -0.13573777495E+02  0.75439907912E+02  0.31831167647E+03  0.32744440828E+03  0.47000000000E+01 0. -1.
        -11    1    6    6    0    0  0.40993621775E+02 -0.31965680842E+02  0.18356938780E+03  0.19078784530E+03  0.00000000000E+00 0.  1.
         12    1    6    6    0    0 -0.32048124527E+02 -0.20045946034E+02  0.67359143594E+02  0.77241028371E+02  0.00000000000E+00 0. -1.
         -5    1    3    3    0  503  0.34633305391E+02  0.29167872976E+02 -0.62054195682E+01  0.45943746999E+02  0.47000000000E+01 0.  1.
         13    1    4    4    0    0 -0.34879444350E+02 -0.39603801805E+02 -0.55832464960E+02  0.76826433596E+02  0.00000000000E+00 0. -1.
        -14    1    4    4    0    0  0.48744192058E+01 -0.12992352208E+02 -0.15941699909E+03  0.16001981371E+03  0.00000000000E+00 0.  1.
</event>
<event>
12    1  0.8251070E-002  0.1942852E+03  0.7818608E-02  0.1155006E+00
         21   -1    0    0  503  502  0.00000000000E+00  0.00000000000E+00  0.23035544668E+04  0.23035544668E+04  0.00000000000E+00 0.  1.
         21   -1    0    0  501  503 -0.00000000000E+00 -0.00000000000E+00 -0.47686167800E+02  0.47686167800E+02  0.00000000000E+00 0.  1.
          6    2    1    2  501    0 -0.36385609518E+02 -0.80558192559E+02  0.17183603774E+03  0.25817178252E+03  0.17120604678E+03 0.  0.
         24    2    3    3    0    0 -0.25052836713E+02 -0.38439052305E+02  0.13229491415E+02  0.93610000037E+02  0.80514640249E+02 0.  0.
         -6    2    1    2    0  502  0.36385609518E+02  0.80558192559E+02  0.20840322613E+04  0.20930688521E+04  0.17301219214E+03 0.  0.
        -24    2    5    5    0    0  0.69714379952E+02  0.10381105153E+03  0.14149965975E+04  0.14227836056E+04  0.80380271145E+02 0.  0.
          5    1    3    3  501    0 -0.11332772805E+02 -0.42119140254E+02  0.15860654633E+03  0.16456178248E+03  0.47000000000E+01 0. -1.
        -11    1    4    4    0    0  0.10030738094E+02 -0.53181998722E+02  0.29953250268E+01  0.54202515318E+02  0.00000000000E+00 0.  1.
         12    1    4    4    0    0 -0.35083574807E+02  0.14742946416E+02  0.10234166389E+02  0.39407484719E+02  0.00000000000E+00 0. -1.
         -5    1    5    5    0  502 -0.33328770434E+02 -0.23252858974E+02  0.66903566375E+03  0.67028524656E+03  0.47000000000E+01 0.  1.
         11    1    6    6    0    0  0.23137729903E+02  0.39207402145E+01  0.83555539189E+02  0.86788564213E+02  0.00000000000E+00 0. -1.
        -12    1    6    6    0    0  0.46576650049E+02  0.99890311318E+02  0.13314410584E+04  0.13359950413E+04  0.00000000000E+00 0.  1.
</event>
<event>
12    1  0.8251070E-002  0.2143736E+03  0.7818608E-02  0.1138150E+00
         21   -1    0    0  501  502  0.00000000000E+00  0.00000000000E+00  0.40566802220E+03  0.40566802220E+03  0.00000000000E+00 0.  1.
         21   -1    0    0  502  503 -0.00000000000E+00 -0.00000000000E+00 -0.25484432292E+03  0.25484432292E+03  0.00000000000E+00 0.  1.
         -6    2    1    2    0  503 -0.27894095601E+02 -0.12483793047E+03 -0.17073205254E+03  0.27404872640E+03  0.17201942107E+03 0.  0.
        -24    2    3    3    0    0 -0.10664677948E+02 -0.14488423148E+01 -0.10401910444E+03  0.13264707382E+03  0.81605377305E+02 0.  0.
          6    2    1    2  501    0  0.27894095601E+02  0.12483793047E+03  0.32155575181E+03  0.38646361872E+03  0.17202743273E+03 0.  0.
         24    2    5    5    0    0  0.16178722611E+02  0.15298876848E+03  0.30516947015E+03  0.35153054167E+03  0.82328621198E+02 0.  0.
          5    1    5    5  501    0  0.11715372990E+02 -0.28150838012E+02  0.16386281660E+02  0.34933077043E+02  0.47000000000E+01 0. -1.
        -13    1    6    6    0    0 -0.33407417793E+02  0.72522147672E+02  0.13324322078E+03  0.15533600146E+03  0.00000000000E+00 0.  1.
         14    1    6    6    0    0  0.49586140404E+02  0.80466620808E+02  0.17192624938E+03  0.19619454021E+03  0.00000000000E+00 0. -1.
         -5    1    3    3    0  503 -0.17229417653E+02 -0.12338908815E+03 -0.66712948098E+02  0.14140165258E+03  0.47000000000E+01 0.  1.
         11    1    4    4    0    0 -0.14548211450E+02 -0.24284496817E+02 -0.10569752118E+03  0.10942281857E+03  0.00000000000E+00 0. -1.
        -12    1    4    4    0    0  0.38835335021E+01  0.22835654502E+02  0.16784167368E+01  0.23224255246E+02  0.00000000000E+00 0.  1.
</event>
<event>
12    1  0.8251070E-002  0.2010669E+03  0.7818608E-02  0.1149280E+00
         21   -1    0    0  501  502  0.00000000000E+00  0.00000000000E+00  0.66827765359E+02  0.66827765359E+02  0.00000000000E+00 0.  1.
         21   -1    0    0  502  503 -0.00000000000E+00 -0.00000000000E+00 -0.81546432780E+03  0.81546432780E+03  0.00000000000E+00 0.  1.
         -6    2    1    2    0  503 -0.47998432536E+02 -0.91497717966E+02 -0.60032168735E+03  0.63244172483E+03  0.17006094518E+03 0.  0.
        -24    2    3    3    0    0  0.22520607529E+02 -0.67180011028E+02 -0.21455921963E+03  0.23950527019E+03  0.79415263479E+02 0.  0.
          6    2    1    2  501    0  0.47998432536E+02  0.91497717966E+02 -0.14831487509E+03  0.24985036834E+03  0.17248832559E+03 0.  0.
         24    2    5    5    0    0  0.60900168614E+02  0.11118407939E+03 -0.64985420770E+02  0.16313303686E+03  0.79489324792E+02 0.  0.
          5    1    5    5  501    0 -0.12901736078E+02 -0.19686361428E+02 -0.83329454323E+02  0.86717331473E+02  0.47000000000E+01 0. -1.
        -11    1    6    6    0    0  0.20587340820E+02  0.10438057383E+03 -0.59456741233E+02  0.12187799996E+03  0.00000000000E+00 0.  1.
         12    1    6    6    0    0  0.40312827794E+02  0.68035055612E+01 -0.55286795362E+01  0.41255036906E+02  0.00000000000E+00 0. -1.
         -5    1    3    3    0  503 -0.70519040065E+02 -0.24317706938E+02 -0.38576246772E+03  0.39293645464E+03  0.47000000000E+01 0.  1.
         13    1    4    4    0    0  0.31193890611E+02 -0.39122971398E+00 -0.30996678754E+02  0.43977334684E+02  0.00000000000E+00 0. -1.
        -14    1    4    4    0    0 -0.86732830815E+01 -0.66788781314E+02 -0.18356254088E+03  0.19552793550E+03  0.00000000000E+00 0.  1.
</event>
<event>
12    1  0.8251070E-002  0.1869801E+03  0.7818608E-02  0.1163685E+00
         21   -1    0    0  501  502  0.00000000000E+00  0.00000000000E+00  0.34917960844E+03  0.34917960844E+03  0.00000000000E+00 0. -1.
         21   -1    0    0  502  503 -0.00000000000E+00 -0.00000000000E+00 -0.11935413773E+03  0.11935413773E+03  0.00000000000E+00 0. -1.
         -6    2    1    2    0  503  0.40512296601E+02  0.61062318919E+01  0.57093047518E+01  0.17666113466E+03  0.17174989984E+03 0.  0.
        -24    2    3    3    0    0  0.44326076327E+02  0.27338663047E+02 -0.56391750972E+02  0.11075216584E+03  0.79836139194E+02 0.  0.
          6    2    1    2  501    0 -0.40512296601E+02 -0.61062318919E+01  0.22411616596E+03  0.29187261151E+03  0.18243638142E+03 0.  0.
         24    2    5    5    0    0 -0.93800063501E+02  0.19566149071E+02  0.19840060506E+03  0.22720393813E+03  0.55475610047E+02 0.  0.
          5    1    5    5  501    0  0.53287766900E+02 -0.25672380963E+02  0.25715560899E+02  0.64668673389E+02  0.47000000000E+01 0. -1.
        -13    1    6    6    0    0 -0.26731663196E+01  0.15319960053E+02  0.11881555858E+02  0.19570854958E+02  0.00000000000E+00 0.  1.
         14    1    6    6    0    0 -0.91126897182E+02  0.42461890185E+01  0.18651904920E+03  0.20763308317E+03  0.00000000000E+00 0. -1.
         -5    1    3    3    0  503 -0.38137797259E+01 -0.21232431155E+02  0.62101055723E+02  0.65908968817E+02  0.47000000000E+01 0.  1.
         13    1    4    4    0    0  0.12051088554E+02  0.50404885547E+02 -0.16244617002E+02  0.54311774081E+02  0.00000000000E+00 0. -1.
        -14    1    4    4    0    0  0.32274987773E+02 -0.23066222500E+02 -0.40147133970E+02  0.56440391761E+02  0.00000000000E+00 0.  1.
</event>
<event>
12    1  0.8251070E-002  0.2072581E+03  0.7818608E-02  0.1144203E+00
         21   -1    0    0  501  502  0.00000000000E+00  0.00000000000E+00  0.10146395727E+04  0.10146395727E+04  0.00000000000E+00 0. -1.
         21   -1    0    0  502  503 -0.00000000000E+00 -0.00000000000E+00 -0.65148503978E+02  0.65148503978E+02  0.00000000000E+00 0. -1.
         -6    2    1    2    0  503 -0.28608967605E+00 -0.11352725951E+03  0.79898520124E+03  0.82542915571E+03  0.17339959288E+03 0.  0.
        -24    2    3    3    0    0  0.54531457190E+02 -0.10746800028E+03  0.68117106161E+03  0.69526026711E+03  0.69783758339E+02 0.  0.
          6    2    1    2  501    0  0.28608967605E+00  0.11352725951E+03  0.15050586746E+03  0.25435892093E+03  0.17075691500E+03 0.  0.
         24    2    5    5    0    0  0.26883676912E+02  0.16505029346E+02  0.12316047001E+03  0.15000085678E+03  0.79602811409E+02 0.  0.
          5    1    5    5  501    0 -0.26597587236E+02  0.97022230160E+02  0.27345397446E+02  0.10435806415E+03  0.47000000000E+01 0. -1.
        -11    1    6    6    0    0  0.20668352386E+02  0.30951833356E+02  0.12819438016E+03  0.13348781174E+03  0.00000000000E+00 0.  1.
         12    1    6    6    0    0  0.62153245267E+01 -0.14446804010E+02 -0.50339101523E+01  0.16513045040E+02  0.00000000000E+00 0. -1.
         -5    1    3    3    0  503 -0.54817546866E+02 -0.60592592242E+01  0.11781413962E+03  0.13016888861E+03  0.47000000000E+01 0.  1.
         13    1    4    4    0    0  0.21373623918E+02 -0.90613058573E+02  0.58088761818E+03  0.58830092906E+03  0.00000000000E+00 0. -1.
        -14    1    4    4    0    0  0.33157833272E+02 -0.16854941708E+02  0.10028344344E+03  0.10695933804E+03  0.00000000000E+00 0.  1.
</event>
<event>
12    1  0.8251070E-002  0.3083945E+03  0.7818608E-02  0.1081245E+00
         21   -1    0    0  501  502  0.00000000000E+00  0.00000000000E+00  0.22370126947E+03  0.22370126947E+03  0.00000000000E+00 0.  1.
         21   -1    0    0  502  503 -0.00000000000E+00 -0.00000000000E+00 -0.44507351643E+03  0.44507351643E+03  0.00000000000E+00 0. -1.
         -6    2    1    2    0  503 -0.16506836207E+03 -0.19400045555E+03 -0.18378315258E+03  0.35809798115E+03  0.17197143955E+03 0.  0.
        -24    2    3    3    0    0 -0.15002504298E+03 -0.21505304741E+03 -0.18631334688E+03  0.33167819772E+03  0.80885331766E+02 0.  0.
          6    2    1    2  501    0  0.16506836207E+03  0.19400045555E+03 -0.37589094382E+02  0.31067680475E+03  0.17384877360E+03 0.  0.
         24    2    5    5    0    0  0.15248721483E+03  0.22015923569E+03 -0.30264828565E+02  0.28037330802E+03  0.77270901727E+02 0.  0.
          5    1    5    5  501    0  0.12581147240E+02 -0.26158780141E+02 -0.73242658173E+01  0.30303496730E+02  0.47000000000E+01 0. -1.
        -13    1    6    6    0    0  0.45900708527E+02  0.51521498526E+02 -0.41567568331E+02  0.80555586960E+02  0.00000000000E+00 0.  1.
         14    1    6    6    0    0  0.10658650631E+03  0.16863773716E+03  0.11302739765E+02  0.19981772106E+03  0.00000000000E+00 0. -1.
         -5    1    3    3    0  503 -0.15043319090E+02  0.21052591862E+02  0.25301942991E+01  0.26419783431E+02  0.47000000000E+01 0.  1.
         13    1    4    4    0    0 -0.15994336671E+03 -0.20526473226E+03 -0.17358812250E+03  0.31280717245E+03  0.00000000000E+00 0. -1.
        -14    1    4    4    0    0  0.99183237300E+01 -0.97883151531E+01 -0.12725224385E+02  0.18871025272E+02  0.00000000000E+00 0.  1.
</event>
<event>
12    1  0.8251070E-002  0.2634140E+03  0.7818608E-02  0.1105775E+00
         21   -1    0    0  503  502  0.00000000000E+00  0.00000000000E+00  0.39478291495E+03  0.39478291495E+03  0.00000000000E+00 0. -1.
         21   -1    0    0  501  503 -0.00000000000E+00 -0.00000000000E+00 -0.25387503913E+03  0.25387503913E+03  0.00000000000E+00 0. -1.
          6    2    1    2  501    0 -0.18844729291E+03 -0.44377497273E+02 -0.11242120908E+03  0.28640090624E+03  0.17862028546E+03 0.  0.
         24    2    3    3    0    0 -0.50566531997E+02 -0.76508373919E+02 -0.45657447542E+02  0.12980273474E+03  0.79709735866E+02 0.  0.
         -6    2    1    2    0  502  0.18844729291E+03  0.44377497273E+02  0.25332908490E+03  0.36225704784E+03  0.17196743583E+03 0.  0.
        -24    2    5    5    0    0  0.60019501528E+02  0.75188247976E+02  0.10684038235E+03  0.16496530971E+03  0.80889263261E+02 0.  0.
          5    1    3    3  501    0 -0.13788076091E+03  0.32130876646E+02 -0.66763761538E+02  0.15659817150E+03  0.47000000000E+01 0. -1.
        -13    1    4    4    0    0 -0.70889273705E+02 -0.70883124598E+02 -0.40304442330E+02  0.10804700158E+03  0.00000000000E+00 0.  1.
         14    1    4    4    0    0  0.20322741708E+02 -0.56252493209E+01 -0.53530052123E+01  0.21755733158E+02  0.00000000000E+00 0. -1.
         -5    1    5    5    0  502  0.12842779138E+03 -0.30810750703E+02  0.14648870255E+03  0.19729173813E+03  0.47000000000E+01 0.  1.
         13    1    6    6    0    0  0.31176336148E+02 -0.17689354335E+01  0.66386112482E+02  0.73363539982E+02  0.00000000000E+00 0. -1.
        -14    1    6    6    0    0  0.28843165380E+02  0.76957183409E+02  0.40454269866E+02  0.91601769731E+02  0.00000000000E+00 0.  1.
</event>
<event>
12    1  0.8251070E-002  0.1706948E+03  0.7818608E-02  0.1177246E+00
         21   -1    0    0  501  502  0.00000000000E+00  0.00000000000E+00  0.18932221483E+04  0.18932221483E+04  0.00000000000E+00 0. -1.
         21   -1    0    0  502  503 -0.00000000000E+00 -0.00000000000E+00 -0.31242983571E+02  0.31242983571E+02  0.00000000000E+00 0. -1.
         -6    2    1    2    0  503  0.98490524378E+01 -0.51102427720E+01  0.24404319706E+03  0.29754979411E+03  0.16986959566E+03 0.  0.
        -24    2    3    3    0    0  0.34236871322E+02 -0.15521441634E+02  0.47060837060E+02  0.98735058938E+02  0.78235611906E+02 0.  0.
          6    2    1    2  501    0 -0.98490524378E+01  0.51102427720E+01  0.16179359677E+04  0.16269153378E+04  0.17033379683E+03 0.  0.
         24    2    5    5    0    0 -0.18622770017E+02 -0.61695801866E+02  0.88403455414E+03  0.88991235235E+03  0.79206833175E+02 0.  0.
          5    1    5    5  501    0  0.87737175788E+01  0.66806044638E+02  0.73390141353E+03  0.73700298541E+03  0.47000000000E+01 0. -1.
        -13    1    6    6    0    0  0.58966210632E+01 -0.66590794688E+02  0.78226593924E+03  0.78511725479E+03  0.00000000000E+00 0.  1.
         14    1    6    6    0    0 -0.24519391080E+02  0.48949928223E+01  0.10176861491E+03  0.10479509756E+03  0.00000000000E+00 0. -1.
         -5    1    3    3    0  503 -0.24387818884E+02  0.10411198862E+02  0.19698236000E+03  0.19881473517E+03  0.47000000000E+01 0.  1.
         13    1    4    4    0    0 -0.23147497284E+02 -0.12690662638E+02  0.27304948221E+02  0.37979201493E+02  0.00000000000E+00 0. -1.
        -14    1    4    4    0    0  0.57384368606E+02 -0.28307789963E+01  0.19755888840E+02  0.60755857445E+02  0.00000000000E+00 0.  1.
</event>
<event>
12    1  0.8251070E-002  0.1802010E+03  0.7818608E-02  0.1167924E+00
         21   -1    0    0  501  502  0.00000000000E+00  0.00000000000E+00  0.90119161617E+03  0.90119161617E+03  0.00000000000E+00 0. -1.
         21   -1    0    0  502  503 -0.00000000000E+00 -0.00000000000E+00 -0.51489781817E+02  0.51489781817E+02  0.00000000000E+00 0. -1.
         -6    2    1    2    0  503  0.51455209850E+02  0.75481971876E+01  0.16061439546E+03  0.24042169475E+03  0.17117532935E+03 0.  0.
        -24    2    3    3    0    0  0.97111611925E+01 -0.56098951815E+02  0.11616396033E+03  0.15215246819E+03  0.80093126120E+02 0.  0.
          6    2    1    2  501    0 -0.51455209850E+02 -0.75481971876E+01  0.68908743889E+03  0.71225970323E+03  0.17253339534E+03 0.  0.
         24    2    5    5    0    0  0.26999379844E+02 -0.17833543196E+02  0.50217380915E+03  0.50923333556E+03  0.78058014806E+02 0.  0.
          5    1    5    5  501    0 -0.78454589694E+02  0.10285346009E+02  0.18691362974E+03  0.20302636767E+03  0.47000000000E+01 0. -1.
        -13    1    6    6    0    0  0.32062252098E+02 -0.29373849289E+01  0.73161115290E+02  0.79932252754E+02  0.00000000000E+00 0.  1.
         14    1    6    6    0    0 -0.50628722539E+01 -0.14896158268E+02  0.42901269385E+03  0.42930108280E+03  0.00000000000E+00 0. -1.
         -5    1    3    3    0  503  0.41744048658E+02  0.63647149002E+02  0.44450435136E+02  0.88269226564E+02  0.47000000000E+01 0.  1.
         13    1    4    4    0    0  0.28201149339E+02 -0.34926078011E+01  0.81936996454E+02  0.86724705368E+02  0.00000000000E+00 0. -1.
        -14    1    4    4    0    0 -0.18489988147E+02 -0.52606344013E+02  0.34226963872E+02  0.65427762823E+02  0.00000000000E+00 0.  1.
</event>
<event>
12    1  0.8251070E-002  0.1758012E+03  0.7818608E-02  0.1171944E+00
         21   -1    0    0  503  502  0.00000000000E+00  0.00000000000E+00  0.14830682864E+03  0.14830682864E+03  0.00000000000E+00 0. -1.
         21   -1    0    0  501  503 -0.00000000000E+00 -0.00000000000E+00 -0.21582073648E+03  0.21582073648E+03  0.00000000000E+00 0. -1.
          6    2    1    2  501    0  0.64234415717E+00 -0.29652789866E+02 -0.67693470150E+02  0.18838380637E+03  0.17328113587E+03 0.  0.
         24    2    3    3    0    0  0.13739582837E+02  0.14424765179E+02  0.23114192768E+02  0.86489301292E+02  0.80927642643E+02 0.  0.
         -6    2    1    2    0  502 -0.64234415717E+00  0.29652789866E+02  0.17956231291E+00  0.17574375875E+03  0.17322279280E+03 0.  0.
        -24    2    5    5    0    0 -0.19246860483E+02 -0.39747058870E+02  0.32283687514E+02  0.96907016764E+02  0.79990393744E+02 0.  0.
          5    1    3    3  501    0 -0.13097238680E+02 -0.44077555045E+02 -0.90807662918E+02  0.10189450507E+03  0.47000000000E+01 0. -1.
        -11    1    4    4    0    0 -0.12792287300E+02  0.34867875871E+02  0.34916842252E+02  0.50976438234E+02  0.00000000000E+00 0.  1.
         12    1    4    4    0    0  0.26531870137E+02 -0.20443110693E+02 -0.11802649484E+02  0.35512863059E+02  0.00000000000E+00 0. -1.
         -5    1    5    5    0  502  0.18604516325E+02  0.69399848736E+02 -0.32104125201E+02  0.78836741987E+02  0.47000000000E+01 0.  1.
         11    1    6    6    0    0  0.37547923897E+01  0.23476268929E+02  0.49246977215E+01  0.24279339290E+02  0.00000000000E+00 0. -1.
        -12    1    6    6    0    0 -0.23001652872E+02 -0.63223327799E+02  0.27358989792E+02  0.72627677474E+02  0.00000000000E+00 0.  1.
</event>
<event>
12    1  0.8251070E-002  0.2522673E+03  0.7818608E-02  0.1111900E+00
         21   -1    0    0  501  502  0.00000000000E+00  0.00000000000E+00  0.57416380504E+02  0.57416380504E+02  0.00000000000E+00 0. -1.
         21   -1    0    0  502  503 -0.00000000000E+00 -0.00000000000E+00 -0.11506643974E+04  0.11506643974E+04  0.00000000000E+00 0.  1.
         -6    2    1    2    0  503  0.15555696794E+03  0.10004173181E+03 -0.66331103670E+03  0.70966213429E+03  0.17155901332E+03 0.  0.
        -24    2    3    3    0    0  0.98832388644E+02  0.10368537451E+03 -0.60415214604E+03  0.62748660038E+03  0.90670392963E+02 0.  0.
          6    2    1    2  501    0 -0.15555696794E+03 -0.10004173181E+03 -0.42993698023E+03  0.49841864366E+03  0.17137391573E+03 0.  0.
         24    2    5    5    0    0 -0.45348833755E+02 -0.10835715661E+03 -0.20845124895E+03  0.25084441581E+03  0.75320698647E+02 0.  0.
          5    1    5    5  501    0 -0.11020813419E+03  0.83154247954E+01 -0.22148573128E+03  0.24757422784E+03  0.47000000000E+01 0. -1.
        -13    1    6    6    0    0  0.89093999159E+01 -0.29649335353E+02 -0.13618149779E+02  0.33821805054E+02  0.00000000000E+00 0.  1.
         14    1    6    6    0    0 -0.54258233671E+02 -0.78707821255E+02 -0.19483309917E+03  0.21702261076E+03  0.00000000000E+00 0. -1.
         -5    1    3    3    0  503  0.56724579296E+02 -0.36436426965E+01 -0.59158890661E+02  0.82175533905E+02  0.47000000000E+01 0.  1.
         13    1    4    4    0    0  0.34906185750E+02 -0.12030607119E+02 -0.11474413405E+03  0.12053793432E+03  0.00000000000E+00 0. -1.
        -14    1    4    4    0    0  0.63926202894E+02  0.11571598163E+03 -0.48940801199E+03  0.50694866606E+03  0.00000000000E+00 0.  1.
</event>
<event>
12    1  0.8251070E-002  0.2008218E+03  0.7818608E-02  0.1149101E+00
         21   -1    0    0  503  502  0.00000000000E+00  0.00000000000E+00  0.14099528584E+03  0.14099528584E+03  0.00000000000E+00 0.  1.
         21   -1    0    0  501  503 -0.00000000000E+00 -0.00000000000E+00 -0.29702998504E+03  0.29702998504E+03  0.00000000000E+00 0. -1.
          6    2    1    2  501    0 -0.56944400373E+01 -0.10491078405E+03 -0.35145405997E+02  0.20362473676E+03  0.17084827947E+03 0.  0.
         24    2    3    3    0    0 -0.10408493992E+02 -0.62631021040E+02  0.46367519211E+02  0.11155819755E+03  0.79147350298E+02 0.  0.
         -6    2    1    2    0  502  0.56944400373E+01  0.10491078405E+03 -0.12088929320E+03  0.23440053413E+03  0.17114523053E+03 0.  0.
        -24    2    5    5    0    0 -0.13522440260E+02  0.33264219128E+02 -0.23526665654E+02  0.11190935079E+03  0.10334812109E+03 0.  0.
          5    1    3    3  501    0  0.47140539551E+01 -0.42279763013E+02 -0.81512925208E+02  0.92066539205E+02  0.47000000000E+01 0. -1.
        -13    1    4    4    0    0  0.25716373992E+02 -0.22556018157E+02  0.46348257855E+02  0.57604399594E+02  0.00000000000E+00 0.  1.
         14    1    4    4    0    0 -0.36124867984E+02 -0.40075002883E+02  0.19261356156E-01  0.53953797957E+02  0.00000000000E+00 0. -1.
         -5    1    5    5    0  502  0.19216880297E+02  0.71646564926E+02 -0.97362627545E+02  0.12249118334E+03  0.47000000000E+01 0.  1.
         11    1    6    6    0    0  0.41276697735E+02  0.34653826551E+02 -0.17969709207E+02  0.56811653026E+02  0.00000000000E+00 0. -1.
        -12    1    6    6    0    0 -0.54799137994E+02 -0.13896074237E+01 -0.55569564476E+01  0.55097697762E+02  0.00000000000E+00 0.  1.
</event>
<event>
12    1  0.8251070E-002  0.2249114E+03  0.7818608E-02  0.1130281E+00
         21   -1    0    0  501  502  0.00000000000E+00  0.00000000000E+00  0.36766096543E+03  0.36766096543E+03  0.00000000000E+00 0. -1.
         21   -1    0    0  502  503 -0.00000000000E+00 -0.00000000000E+00 -0.20535225413E+03  0.20535225413E+03  0.00000000000E+00 0.  1.
         -6    2    1    2    0  503  0.12045611389E+03  0.76992020607E+02 -0.83457929995E+02  0.23989659564E+03  0.17363094168E+03 0.  0.
        -24    2    3    3    0    0  0.87943944437E+02  0.11155596304E+03 -0.26200702307E+02  0.16538359407E+03  0.80538103617E+02 0.  0.
          6    2    1    2  501    0 -0.12045611389E+03 -0.76992020607E+02  0.24576664129E+03  0.33311662393E+03  0.17357418171E+03 0.  0.
         24    2    5    5    0    0 -0.10682438369E+02 -0.47139415080E+02  0.17978574009E+03  0.20152252369E+03  0.77150348479E+02 0.  0.
          5    1    5    5  501    0 -0.10977367553E+03 -0.29852605527E+02  0.65980901205E+02  0.13159410024E+03  0.47000000000E+01 0. -1.
        -11    1    6    6    0    0  0.10811883803E+02  0.44076664779E+01 -0.15527538115E+01  0.11778599218E+02  0.00000000000E+00 0.  1.
         12    1    6    6    0    0 -0.21494322172E+02 -0.51547081558E+02  0.18133849390E+03  0.18974392447E+03  0.00000000000E+00 0. -1.
         -5    1    3    3    0  503  0.32512169457E+02 -0.34563942435E+02 -0.57257227688E+02  0.74513001563E+02  0.47000000000E+01 0.  1.
         11    1    4    4    0    0  0.47548017071E+02  0.11176251462E+03 -0.10026996298E+02  0.12186966093E+03  0.00000000000E+00 0. -1.
        -12    1    4    4    0    0  0.40395927367E+02 -0.20655157618E+00 -0.16173706009E+02  0.43513933142E+02  0.00000000000E+00 0.  1.
</event>
<event>
12    1  0.8251070E-002  0.2041091E+03  0.7818608E-02  0.1146382E+00
         21   -1    0    0  501  502  0.00000000000E+00  0.00000000000E+00  0.44841870135E+03  0.44841870135E+03  0.00000000000E+00 0. -1.
         21   -1    0    0  502  503 -0.00000000000E+00 -0.00000000000E+00 -0.14811196450E+03  0.14811196450E+03  0.00000000000E+00 0. -1.
         -6    2    1    2    0  503  0.44949925165E+02  0.10042597376E+03 -0.32249292109E+02  0.20633321392E+03  0.17154447338E+03 0.  0.
        -24    2    3    3    0    0 -0.23821369663E+01  0.69599559584E+02 -0.81728496637E+02  0.13109443670E+03  0.75209247442E+02 0.  0.
          6    2    1    2  501    0 -0.44949925165E+02 -0.10042597376E+03  0.33255602896E+03  0.39019745192E+03  0.17191470882E+03 0.  0.
         24    2    5    5    0    0 -0.85819183661E+02 -0.11071273593E+03  0.25279938247E+03  0.29986846197E+03  0.79945759914E+02 0.  0.
          5    1    5    5  501    0  0.40869258496E+02  0.10286762164E+02  0.79756646496E+02  0.90328989954E+02  0.47000000000E+01 0. -1.
        -13    1    6    6    0    0 -0.44267723601E+01 -0.70204864293E+02  0.10753427348E+03  0.12849879087E+03  0.00000000000E+00 0.  1.
         14    1    6    6    0    0 -0.81392411301E+02 -0.40507871634E+02  0.14526510899E+03  0.17136967110E+03  0.00000000000E+00 0. -1.
         -5    1    3    3    0  503  0.47332062132E+02  0.30826414179E+02  0.49479204528E+02  0.75238777219E+02  0.47000000000E+01 0.  1.
         11    1    4    4    0    0 -0.38056395351E+02  0.42740577531E+02 -0.52972983442E+02  0.77981941304E+02  0.00000000000E+00 0. -1.
        -12    1    4    4    0    0  0.35674258385E+02  0.26858982054E+02 -0.28755513196E+02  0.53112495398E+02  0.00000000000E+00 0.  1.
</event>
<event>
12    1  0.8251070E-002  0.2289672E+03  0.7818608E-02  0.1127720E+00
         21   -1    0    0  503  502  0.00000000000E+00  0.00000000000E+00  0.14551016108E+03  0.14551016108E+03  0.00000000000E+00 0. -1.
         21   -1    0    0  501  503 -0.00000000000E+00 -0.00000000000E+00 -0.54161571384E+03  0.54161571384E+03  0.00000000000E+00 0.  1.
          6    2    1    2  501    0  0.42742878840E+02  0.14208672585E+03 -0.39796680320E+03  0.45815114951E+03  0.17178273485E+03 0.  0.
         24    2    3    3    0    0  0.33764909098E+02  0.17217774831E+03 -0.31272668575E+03  0.36718939273E+03  0.79024199185E+02 0.  0.
         -6    2    1    2    0  502 -0.42742878840E+02 -0.14208672585E+03  0.18612504398E+01  0.22897472541E+03  0.17438569112E+03 0.  0.
        -24    2    5    5    0    0 -0.94100366526E+02 -0.11484254667E+03  0.15520600223E+02  0.16907059636E+03  0.79374353640E+02 0.  0.
          5    1    3    3  501    0  0.89779697417E+01 -0.30091022455E+02 -0.85240117453E+02  0.90961756780E+02  0.47000000000E+01 0. -1.
        -13    1    4    4    0    0  0.39526287831E+02  0.14538924897E+03 -0.19559985897E+03  0.24690011336E+03  0.00000000000E+00 0.  1.
         14    1    4    4    0    0 -0.57613787325E+01  0.26788499336E+02 -0.11712682678E+03  0.12028927937E+03  0.00000000000E+00 0. -1.
         -5    1    5    5    0  502  0.51357487686E+02 -0.27244179182E+02 -0.13659349783E+02  0.59904129050E+02  0.47000000000E+01 0.  1.
         11    1    6    6    0    0 -0.30205913129E+02 -0.69443747690E+01  0.29634317838E+02  0.42881398329E+02  0.00000000000E+00 0. -1.
        -12    1    6    6    0    0 -0.63894453397E+02 -0.10789817190E+03 -0.14113717616E+02  0.12618919803E+03  0.00000000000E+00 0.  1.
</event>
<event>
12    1  0.8251070E-002  0.1909596E+03  0.7818608E-02  0.1157930E+00
         21   -1    0    0  503  502  0.00000000000E+00  0.00000000000E+00  0.98168459425E+02  0.98168459425E+02  0.00000000000E+00 0.  1.
         21   -1    0    0  501  503 -0.00000000000E+00 -0.00000000000E+00 -0.72191057397E+03  0.72191057397E+03  0.00000000000E+00 0. -1.
          6    2    1    2  501    0  0.32635228085E+02 -0.72619930943E+02 -0.59810934335E+03  0.62740671613E+03  0.17194676026E+03 0.  0.
         24    2    3    3    0    0  0.10326120980E+02 -0.63527925441E+02 -0.16894286615E+03  0.19753892718E+03  0.79608477215E+02 0.  0.
         -6    2    1    2    0  502 -0.32635228085E+02  0.72619930943E+02 -0.25632771198E+02  0.19267231726E+03  0.17357093765E+03 0.  0.
        -24    2    5    5    0    0 -0.75426663877E+02  0.78292346647E+02 -0.49987247262E+02  0.14288764310E+03  0.78097890468E+02 0.  0.
          5    1    3    3  501    0  0.22309107105E+02 -0.90920055021E+01 -0.42916647720E+03  0.42986778895E+03  0.47000000000E+01 0. -1.
        -11    1    4    4    0    0  0.20066751164E+02 -0.12378778942E+02 -0.31805936318E+01  0.23791276683E+02  0.00000000000E+00 0.  1.
         12    1    4    4    0    0 -0.97406301842E+01 -0.51149146499E+02 -0.16576227252E+03  0.17374765050E+03  0.00000000000E+00 0. -1.
         -5    1    5    5    0  502  0.42791435792E+02 -0.56724157043E+01  0.24354476064E+02  0.49784674162E+02  0.47000000000E+01 0.  1.
         11    1    6    6    0    0 -0.69788932027E+02  0.34134111625E+02 -0.24032003825E+01  0.77726494723E+02  0.00000000000E+00 0. -1.
        -12    1    6    6    0    0 -0.56377318493E+01  0.44158235023E+02 -0.47584046879E+02  0.65161148379E+02  0.00000000000E+00 0.  1.
</event>
<event>
12    1  0.8251070E-002  0.1800594E+03  0.7818608E-02  0.1167874E+00
         21   -1    0    0  503  502  0.00000000000E+00  0.00000000000E+00  0.19763708761E+03  0.19763708761E+03  0.00000000000E+00 0.  1.
         21   -1    0    0  501  503 -0.00000000000E+00 -0.00000000000E+00 -0.30720779884E+03  0.30720779884E+03  0.00000000000E+00 0.  1.
          6    2    1    2  501    0 -0.26555852963E+01  0.50223709604E+02 -0.22734813879E+03  0.28968701199E+03  0.17234243691E+03 0.  0.
         24    2    3    3    0    0  0.42517813889E+02  0.74511810241E+02 -0.20225825804E+03  0.23239704827E+03  0.75764178442E+02 0.  0.
         -6    2    1    2    0  502  0.26555852963E+01 -0.50223709604E+02  0.11777742756E+03  0.21515787446E+03  0.17289278574E+03 0.  0.
        -24    2    5    5    0    0  0.19528789574E+02 -0.88273416539E+02  0.39328055383E+02  0.12622599483E+03  0.78820911818E+02 0.  0.
          5    1    3    3  501    0 -0.45173399185E+02 -0.24288100637E+02 -0.25089880747E+02  0.57289963715E+02  0.47000000000E+01 0. -1.
        -13    1    4    4    0    0  0.37225788302E+02  0.48163732431E+02 -0.19539879766E+03  0.20466117014E+03  0.00000000000E+00 0.  1.
         14    1    4    4    0    0  0.52920255867E+01  0.26348077810E+02 -0.68594603881E+01  0.27735878134E+02  0.00000000000E+00 0. -1.
         -5    1    5    5    0  502 -0.16873204278E+02  0.38049706935E+02  0.78449372181E+02  0.88931879639E+02  0.47000000000E+01 0.  1.
         11    1    6    6    0    0  0.43423628745E+01  0.11107225445E+02 -0.87456272935E+01  0.14788934011E+02  0.00000000000E+00 0. -1.
        -12    1    6    6    0    0  0.15186426700E+02 -0.99380641984E+02  0.48073682677E+02  0.11143706082E+03  0.00000000000E+00 0.  1.
</event>
<event>
12    1  0.8251070E-002  0.1918103E+03  0.7818608E-02  0.1159928E+00
         21   -1    0    0  501  502  0.00000000000E+00  0.00000000000E+00  0.39870886262E+02  0.39870886262E+02  0.00000000000E+00 0.  1.
         21   -1    0    0  502  503 -0.00000000000E+00 -0.00000000000E+00 -0.13945966718E+04  0.13945966718E+04  0.00000000000E+00 0.  1.
         -6    2    1    2    0  503 -0.16833845937E+02  0.38407104763E+02 -0.11364383326E+04  0.11525117303E+04  0.18717029854E+03 0.  0.
        -24    2    3    3    0    0 -0.38205091794E+02  0.11778862955E+02 -0.25506747612E+03  0.27046724728E+03  0.80589973476E+02 0.  0.
          6    2    1    2  501    0  0.16833845937E+02 -0.38407104763E+02 -0.21828745300E+03  0.28195582780E+03  0.17346813145E+03 0.  0.
         24    2    5    5    0    0  0.17098267466E+02  0.13309598849E+02 -0.28794498192E+02  0.85475912104E+02  0.77508143134E+02 0.  0.
          5    1    5    5  501    0 -0.26442152947E+00 -0.51716703612E+02 -0.18949295480E+03  0.19647991569E+03  0.47000000000E+01 0. -1.
        -13    1    6    6    0    0  0.42622839825E+02  0.82860719373E+01 -0.38181046458E+02  0.57820046450E+02  0.00000000000E+00 0.  1.
         14    1    6    6    0    0 -0.25524572359E+02  0.50235269115E+01  0.93865482656E+01  0.27655865654E+02  0.00000000000E+00 0. -1.
         -5    1    3    3    0  503  0.21371245857E+02  0.26628241808E+02 -0.88137085644E+03  0.88204448300E+03  0.47000000000E+01 0.  1.
         11    1    4    4    0    0 -0.55042659355E+01  0.32918531439E+02 -0.40903930850E+02  0.52792596210E+02  0.00000000000E+00 0. -1.
        -12    1    4    4    0    0 -0.32700825859E+02 -0.21139668484E+02 -0.21416354527E+03  0.21767465107E+03  0.00000000000E+00 0.  1.
</event>
<event>
12    1  0.8251070E-002  0.2286251E+03  0.7818608E-02  0.1127649E+00
         21   -1    0    0  503  502  0.00000000000E+00  0.00000000000E+00  0.11383713868E+04  0.11383713868E+04  0.00000000000E+00 0. -1.
         21   -1    0    0  501  503 -0.00000000000E+00 -0.00000000000E+00 -0.88645514351E+02  0.88645514351E+02  0.00000000000E+00 0.  1.
          6    2    1    2  501    0  0.14336265692E+03  0.46487025557E+02  0.98572354637E+02  0.24877231697E+03  0.17163117913E+03 0.  0.
         24    2    3    3    0    0  0.14984000937E+03  0.43504580311E+02  0.28400759112E+02  0.17808289844E+03  0.81007645822E+02 0.  0.
         -6    2    1    2    0  502 -0.14336265692E+03 -0.46487025557E+02  0.95115351784E+03  0.97824458421E+03  0.17191729722E+03 0.  0.
        -24    2    5    5    0    0 -0.12018081244E+03 -0.25244933139E+01  0.87774435093E+03  0.88946903610E+03  0.79184719804E+02 0.  0.
          5    1    3    3  501    0 -0.64773524531E+01  0.29824452465E+01  0.70171595524E+02  0.70689418536E+02  0.47000000000E+01 0. -1.
        -13    1    4    4    0    0  0.94112885335E+01  0.33192688710E+02  0.31602721073E+00  0.34502562352E+02  0.00000000000E+00 0.  1.
         14    1    4    4    0    0  0.14042872084E+03  0.10311891601E+02  0.28084731901E+02  0.14358033609E+03  0.00000000000E+00 0. -1.
         -5    1    5    5    0  502 -0.23181844481E+02 -0.43962532244E+02  0.73409166914E+02  0.88775548108E+02  0.47000000000E+01 0.  1.
         13    1    6    6    0    0 -0.12568057392E+03 -0.15872409374E+02  0.71943010921E+03  0.73049792750E+03  0.00000000000E+00 0. -1.
        -14    1    6    6    0    0  0.54997614846E+01  0.13347916060E+02  0.15831424172E+03  0.15897110860E+03  0.00000000000E+00 0.  1.
</event>
<event>
12    1  0.8251070E-002  0.1869376E+03  0.7818608E-02  0.1161260E+00
         21   -1    0    0  501  502  0.00000000000E+00  0.00000000000E+00  0.85639506223E+03  0.85639506223E+03  0.00000000000E+00 0.  1.
         21   -1    0    0  502  503 -0.00000000000E+00 -0.00000000000E+00 -0.41750971472E+02  0.41750971472E+02  0.00000000000E+00 0.  1.
         -6    2    1    2    0  503  0.79548830711E+01 -0.73052251219E+02  0.33946086787E+03  0.38751432064E+03  0.17185388071E+03 0.  0.
        -24    2    3    3    0    0  0.40730368541E+02  0.16522429474E+02  0.15565155663E+03  0.18037714685E+03  0.79853330720E+02 0.  0.
          6    2    1    2  501    0 -0.79548830711E+01  0.73052251219E+02  0.47518322289E+03  0.51063171306E+03  0.17188874162E+03 0.  0.
         24    2    5    5    0    0  0.44362792699E+02  0.63218074649E+02  0.41759738930E+03  0.43206920001E+03  0.79571550869E+02 0.  0.
          5    1    5    5  501    0 -0.52317675770E+02  0.98341765706E+01  0.57585833593E+02  0.78562513054E+02  0.47000000000E+01 0. -1.
        -11    1    6    6    0    0  0.17943379192E+02  0.20325532682E+02  0.27093877277E+02  0.38329757651E+02  0.00000000000E+00 0.  1.
         12    1    6    6    0    0  0.26419413508E+02  0.42892541966E+02  0.39050351202E+03  0.39373944236E+03  0.00000000000E+00 0. -1.
         -5    1    3    3    0  503 -0.32775485470E+02 -0.89574680693E+02  0.18380931124E+03  0.20713717379E+03  0.47000000000E+01 0.  1.
         13    1    4    4    0    0  0.59159734653E+02 -0.15343120725E+00  0.72411226078E+02  0.93505526080E+02  0.00000000000E+00 0. -1.
        -14    1    4    4    0    0 -0.18429366112E+02  0.16675860681E+02  0.83240330552E+02  0.86871620770E+02  0.00000000000E+00 0.  1.
</event>
<event>
12    1  0.8251070E-002  0.2993496E+03  0.7818608E-02  0.1085814E+00
         21   -1    0    0  501  502  0.00000000000E+00  0.00000000000E+00  0.11603068434E+04  0.11603068434E+04  0.00000000000E+00 0.  1.
         21   -1    0    0  502  503 -0.00000000000E+00 -0.00000000000E+00 -0.17400317421E+03  0.17400317421E+03  0.00000000000E+00 0.  1.
         -6    2    1    2    0  503 -0.37012760915E+01 -0.24534657804E+03 -0.49696156288E+01  0.29939082661E+03  0.17146873528E+03 0.  0.
        -24    2    3    3    0    0  0.15555578115E+02 -0.24464589565E+03 -0.38193783842E+02  0.26069647634E+03  0.80064332783E+02 0.  0.
          6    2    1    2  501    0  0.37012760915E+01  0.24534657804E+03  0.99127328484E+03  0.10349191910E+04  0.16800703531E+03 0.  0.
         24    2    5    5    0    0  0.16188317771E+02  0.21228050356E+03  0.96424186225E+03  0.99017459025E+03  0.73200248901E+02 0.  0.
          5    1    5    5  501    0 -0.12487041679E+02  0.33066074480E+02  0.27031422596E+02  0.44744600780E+02  0.47000000000E+01 0. -1.
        -11    1    6    6    0    0 -0.25624823148E+02  0.13106687622E+03  0.55015079441E+03  0.56612812525E+03  0.00000000000E+00 0.  1.
         12    1    6    6    0    0  0.41813140919E+02  0.81213627344E+02  0.41409106783E+03  0.42404646500E+03  0.00000000000E+00 0. -1.
         -5    1    3    3    0  503 -0.19256854207E+02 -0.70068239501E+00  0.33224168213E+02  0.38694350275E+02  0.47000000000E+01 0.  1.
         11    1    4    4    0    0 -0.19849791655E+02 -0.22406490223E+02  0.79508196941E+01  0.30972254788E+02  0.00000000000E+00 0. -1.
        -12    1    4    4    0    0  0.35405369770E+02 -0.22223940542E+03 -0.46144603536E+02  0.22972422155E+03  0.00000000000E+00 0.  1.
</event>
<event>
12    1  0.8251070E-002  0.1862253E+03  0.7818608E-02  0.1162106E+00
         21   -1    0    0  501  502  0.00000000000E+00  0.00000000000E+00  0.64027636424E+02  0.64027636424E+02  0.00000000000E+00 0. -1.
         21   -1    0    0  502  503 -0.00000000000E+00 -0.00000000000E+00 -0.66851503814E+03  0.66851503814E+03  0.00000000000E+00 0. -1.
         -6    2    1    2    0  503 -0.69120784551E+02 -0.99392160776E+01 -0.46389113303E+03  0.49987481870E+03  0.17263655522E+03 0.  0.
        -24    2    3    3    0    0 -0.89745172115E+02 -0.26811944231E+02 -0.45638239724E+03  0.47179412372E+03  0.74375576592E+02 0.  0.
          6    2    1    2  501    0  0.69120784551E+02  0.99392160776E+01 -0.14059626869E+03  0.23266785586E+03  0.17172812673E+03 0.  0.
         24    2    5    5    0    0  0.10037312963E+03 -0.29814662064E+02 -0.11909110956E+03  0.17751677456E+03  0.79786174535E+02 0.  0.
          5    1    5    5  501    0 -0.31252345078E+02  0.39753878142E+02 -0.21505159127E+02  0.55151081306E+02  0.47000000000E+01 0. -1.
        -11    1    6    6    0    0  0.44765411299E+01 -0.17677151619E+02 -0.63377094318E+02  0.65948291821E+02  0.00000000000E+00 0.  1.
         12    1    6    6    0    0  0.95896588499E+02 -0.12137510445E+02 -0.55714015245E+02  0.11156848274E+03  0.00000000000E+00 0. -1.
         -5    1    3    3    0  503  0.20624387563E+02  0.16872728153E+02 -0.75087357882E+01  0.28080694985E+02  0.47000000000E+01 0.  1.
         13    1    4    4    0    0 -0.42882258529E+01 -0.30477728508E+02 -0.17543767792E+03  0.17811698305E+03  0.00000000000E+00 0. -1.
        -14    1    4    4    0    0 -0.85456946262E+02  0.36657842772E+01 -0.28094471931E+03  0.29367714066E+03  0.00000000000E+00 0.  1.
</event>
<event>
12    1  0.8251070E-002  0.1873036E+03  0.7818608E-02  0.1161352E+00
         21   -1    0    0  501  502  0.00000000000E+00  0.00000000000E+00  0.70832409082E+02  0.70832409082E+02  0.00000000000E+00 0.  1.
         21   -1    0    0  502  503 -0.00000000000E+00 -0.00000000000E+00 -0.77396894909E+03  0.77396894909E+03  0.00000000000E+00 0.  1.
         -6    2    1    2    0  503 -0.33158742211E+02  0.64201639467E+02 -0.60615493301E+03  0.63387940939E+03  0.17075699148E+03 0.  0.
        -24    2    3    3    0    0  0.16006513318E+02  0.41983135942E+02 -0.16340471888E+03  0.18782927055E+03  0.80993459918E+02 0.  0.
          6    2    1    2  501    0  0.33158742211E+02 -0.64201639467E+02 -0.96981607001E+02  0.21092194879E+03  0.17280417729E+03 0.  0.
         24    2    5    5    0    0  0.60429713949E+02 -0.96268506367E+02 -0.52054517668E+02  0.14917631567E+03  0.81391183199E+02 0.  0.
          5    1    5    5  501    0 -0.27270971738E+02  0.32066866900E+02 -0.44927089332E+02  0.61745633110E+02  0.47000000000E+01 0. -1.
        -11    1    6    6    0    0  0.10069495406E+02 -0.80240134368E+02 -0.96999475821E+01  0.81449142931E+02  0.00000000000E+00 0.  1.
         12    1    6    6    0    0  0.50360218544E+02 -0.16028371999E+02 -0.42354570086E+02  0.67727172744E+02  0.00000000000E+00 0. -1.
         -5    1    3    3    0  503 -0.49165255529E+02  0.22218503525E+02 -0.44275021413E+03  0.44605013884E+03  0.47000000000E+01 0.  1.
         11    1    4    4    0    0 -0.29710271386E+02  0.14809288756E+02 -0.32166268006E+02  0.46224279948E+02  0.00000000000E+00 0. -1.
        -12    1    4    4    0    0  0.45716784703E+02  0.27173847186E+02 -0.13123845087E+03  0.14160499060E+03  0.00000000000E+00 0.  1.
</event>
<event>
12    1  0.8251070E-002  0.1877092E+03  0.7818608E-02  0.1161852E+00
         21   -1    0    0  501  502  0.00000000000E+00  0.00000000000E+00  0.17824175422E+04  0.17824175422E+04  0.00000000000E+00 0. -1.
         21   -1    0    0  502  503 -0.00000000000E+00 -0.00000000000E+00 -0.19197597274E+02  0.19197597274E+02  0.00000000000E+00 0.  1.
         -6    2    1    2    0  503 -0.21893716317E+02  0.66477717087E+02  0.89489134179E+03  0.91322934534E+03  0.16810324771E+03 0.  0.
        -24    2    3    3    0    0  0.33547573964E+02  0.25254335330E+01  0.59402484588E+03  0.60064916427E+03  0.82353405959E+02 0.  0.
          6    2    1    2  501    0  0.21893716317E+02 -0.66477717087E+02  0.86832860313E+03  0.88838579413E+03  0.17417271461E+03 0.  0.
         24    2    5    5    0    0  0.36936123561E+02 -0.61947796256E+02  0.27971100987E+03  0.29953984203E+03  0.79272071005E+02 0.  0.
          5    1    5    5  501    0 -0.15042407244E+02 -0.45299208316E+01  0.58861759326E+03  0.58884595209E+03  0.47000000000E+01 0. -1.
        -11    1    6    6    0    0  0.49263462202E+02 -0.47844269104E+02  0.26969036864E+03  0.27829634876E+03  0.00000000000E+00 0.  1.
         12    1    6    6    0    0 -0.12327338641E+02 -0.14103527152E+02  0.10020641227E+02  0.21243493279E+02  0.00000000000E+00 0. -1.
         -5    1    3    3    0  503 -0.55441290281E+02  0.63952283554E+02  0.30086649590E+03  0.31258018107E+03  0.47000000000E+01 0.  1.
         13    1    4    4    0    0  0.31501259887E+02  0.16474568620E+02  0.57883218394E+03  0.57992278619E+03  0.00000000000E+00 0. -1.
        -14    1    4    4    0    0  0.20463140769E+01 -0.13949135087E+02  0.15192661947E+02  0.20726378073E+02  0.00000000000E+00 0.  1.
</event>
<event>
12    1  0.8251070E-002  0.1945675E+03  0.7818608E-02  0.1158248E+00
         21   -1    0    0  501  502  0.00000000000E+00  0.00000000000E+00  0.49147342439E+03  0.49147342439E+03  0.00000000000E+00 0. -1.
         21   -1    0    0  502  503 -0.00000000000E+00 -0.00000000000E+00 -0.19885396709E+03  0.19885396709E+03  0.00000000000E+00 0. -1.
         -6    2    1    2    0  503  0.93948767924E+01 -0.43800299115E+02 -0.12852382972E+03  0.23318421007E+03  0.18934035785E+03 0.  0.
        -24    2    3    3    0    0 -0.67035922452E+01 -0.10414514369E+03 -0.73407387475E+02  0.14975416047E+03  0.78399712619E+02 0.  0.
          6    2    1    2  501    0 -0.93948767924E+01  0.43800299115E+02  0.42114328702E+03  0.45714318140E+03  0.17207989477E+03 0.  0.
         24    2    5    5    0    0 -0.97092941224E+00 -0.39858814100E+02  0.26514565243E+03  0.27986610417E+03  0.80206929211E+02 0.  0.
          5    1    5    5  501    0 -0.84239473801E+01  0.83659113215E+02  0.15599763459E+03  0.17727707723E+03  0.47000000000E+01 0. -1.
        -13    1    6    6    0    0  0.13693935206E+02 -0.25113910243E+02  0.25522872472E+03  0.25682666191E+03  0.00000000000E+00 0.  1.
         14    1    6    6    0    0 -0.14664864618E+02 -0.14744903857E+02  0.99169277119E+01  0.23039442252E+02  0.00000000000E+00 0. -1.
         -5    1    3    3    0  503  0.16098469038E+02  0.60344844572E+02 -0.55116442245E+02  0.83430049607E+02  0.47000000000E+01 0.  1.
         13    1    4    4    0    0  0.10614072378E+02  0.89549913819E+01 -0.17693087970E+02  0.22492126734E+02  0.00000000000E+00 0. -1.
        -14    1    4    4    0    0 -0.17317664624E+02 -0.11310013507E+03 -0.55714299506E+02  0.12726203373E+03  0.00000000000E+00 0.  1.
</event>
<event>
12    1  0.8251070E-002  0.2234793E+03  0.7818608E-02  0.1132007E+00
         21   -1    0    0  503  502  0.00000000000E+00  0.00000000000E+00  0.10644677953E+04  0.10644677953E+04  0.00000000000E+00 0.  1.
         21   -1    0    0  501  503 -0.00000000000E+00 -0.00000000000E+00 -0.49032295953E+02  0.49032295953E+02  0.00000000000E+00 0. -1.
          6    2    1    2  501    0 -0.14066539128E+03 -0.77785801389E+01  0.63903776079E+03  0.67575786962E+03  0.16861844510E+03 0.  0.
         24    2    3    3    0    0 -0.95037606847E+00 -0.14587426124E+02  0.11951175257E+03  0.13770953622E+03  0.66836824790E+02 0.  0.
         -6    2    1    2    0  502  0.14066539128E+03  0.77785801389E+01  0.37639773856E+03  0.43774222164E+03  0.17348122779E+03 0.  0.
        -24    2    5    5    0    0  0.14241638551E+03  0.13922956175E+02  0.18802015164E+03  0.24919773195E+03  0.79193791513E+02 0.  0.
          5    1    3    3  501    0 -0.13971501521E+03  0.68088459847E+01  0.51952600822E+03  0.53804833340E+03  0.47000000000E+01 0. -1.
        -11    1    4    4    0    0  0.16766519794E+02 -0.15811957962E+02  0.11761237309E+03  0.11984909055E+03  0.00000000000E+00 0.  1.
         12    1    4    4    0    0 -0.17716895863E+02  0.12245318384E+01  0.18993794780E+01  0.17860445673E+02  0.00000000000E+00 0. -1.
         -5    1    5    5    0  502 -0.17509942347E+01 -0.61443760360E+01  0.18837758692E+03  0.18854448969E+03  0.47000000000E+01 0.  1.
         11    1    6    6    0    0  0.15051775196E+01  0.10576190652E+02  0.52811741136E+02  0.53881363846E+02  0.00000000000E+00 0. -1.
        -12    1    6    6    0    0  0.14091120799E+03  0.33467655228E+01  0.13520841050E+03  0.19531636810E+03  0.00000000000E+00 0.  1.
</event>
<event>
12    1  0.8251070E-002  0.1830470E+03  0.7818608E-02  0.1165325E+00
         21   -1    0    0  503  502  0.00000000000E+00  0.00000000000E+00  0.13265649659E+03  0.13265649659E+03  0.00000000000E+00 0. -1.
         21   -1    0    0  501  503 -0.00000000000E+00 -0.00000000000E+00 -0.30788766646E+03  0.30788766646E+03  0.00000000000E+00 0. -1.
          6    2    1    2  501    0  0.23357202908E+02 -0.51810232511E+02 -0.18344952361E+03  0.25915230093E+03  0.17400094323E+03 0.  0.
         24    2    3    3    0    0  0.16409598535E+02  0.10160880377E+02 -0.20005393486E+02  0.84152981760E+02  0.79429151804E+02 0.  0.
         -6    2    1    2    0  502 -0.23357202908E+02  0.51810232511E+02  0.82183537406E+01  0.18139186212E+03  0.17206280012E+03 0.  0.
        -24    2    5    5    0    0  0.23366881467E+02  0.33631725532E+02  0.62172564877E+02  0.10758979524E+03  0.77672595579E+02 0.  0.
          5    1    3    3  501    0  0.69476043725E+01 -0.61971112888E+02 -0.16344413012E+03  0.17499931917E+03  0.47000000000E+01 0. -1.
        -11    1    4    4    0    0  0.29948394502E+02 -0.16128534413E+02 -0.36826962916E+02  0.50132436139E+02  0.00000000000E+00 0.  1.
         12    1    4    4    0    0 -0.13538795967E+02  0.26289414791E+02  0.16821569430E+02  0.34020545621E+02  0.00000000000E+00 0. -1.
         -5    1    5    5    0  502 -0.46724084375E+02  0.18178506978E+02 -0.53954211136E+02  0.73802066881E+02  0.47000000000E+01 0.  1.
         11    1    6    6    0    0  0.35002429567E+02  0.41487008924E+02  0.12135058284E+02  0.55620154842E+02  0.00000000000E+00 0. -1.
        -12    1    6    6    0    0 -0.11635548100E+02 -0.78552833920E+01  0.50037506593E+02  0.51969640395E+02  0.00000000000E+00 0.  1.
</event>
<event>
12    1  0.8251070E-002  0.1852681E+03  0.7818608E-02  0.1162831E+00
         21   -1    0    0  501  502  0.00000000000E+00  0.00000000000E+00  0.59038431452E+02  0.59038431452E+02  0.00000000000E+00 0.  1.
         21   -1    0    0  502  503 -0.00000000000E+00 -0.00000000000E+00 -0.88625594329E+03  0.88625594329E+03  0.00000000000E+00 0.  1.
         -6    2    1    2    0  503  0.23814475832E+02  0.64647767900E+02 -0.69111311302E+03  0.71551492157E+03  0.17198198990E+03 0.  0.
        -24    2    3    3    0    0 -0.17875359364E+02 -0.23774470770E+02 -0.29363126580E+03  0.30616123157E+03  0.81428652985E+02 0.  0.
          6    2    1    2  501    0 -0.23814475832E+02 -0.64647767900E+02 -0.13610439882E+03  0.22977945317E+03  0.17183633658E+03 0.  0.
         24    2    5    5    0    0 -0.54635950114E+02 -0.10088314934E+03 -0.95407074185E+02  0.16699945335E+03  0.74992071254E+02 0.  0.
          5    1    5    5  501    0  0.30821474282E+02  0.36235381437E+02 -0.40697324633E+02  0.62779999817E+02  0.47000000000E+01 0. -1.
        -13    1    6    6    0    0 -0.68406996116E+02 -0.82823888598E+02 -0.55084885164E+02  0.12072140744E+03  0.00000000000E+00 0.  1.
         14    1    6    6    0    0  0.13771046002E+02 -0.18059260739E+02 -0.40322189021E+02  0.46278045917E+02  0.00000000000E+00 0. -1.
         -5    1    3    3    0  503  0.41689835196E+02  0.88422238670E+02 -0.39748184722E+03  0.40935369001E+03  0.47000000000E+01 0.  1.
         13    1    4    4    0    0 -0.46005148707E+01 -0.10860629335E+02  0.15100176948E+00  0.11795796207E+02  0.00000000000E+00 0. -1.
        -14    1    4    4    0    0 -0.13274844493E+02 -0.12913841436E+02 -0.29378226757E+03  0.29436543536E+03  0.00000000000E+00 0.  1.
</event>
<event>
12    1  0.8251070E-002  0.2378098E+03  0.7818608E-02  0.1122032E+00
         21   -1    0    0  501  502  0.00000000000E+00  0.00000000000E+00  0.13349678328E+04  0.13349678328E+04  0.00000000000E+00 0. -1.
         21   -1    0    0  502  503 -0.00000000000E+00 -0.00000000000E+00 -0.42488185059E+02  0.42488185059E+02  0.00000000000E+00 0.  1.
         -6    2    1    2    0  503 -0.23419030614E+02  0.15694502790E+03  0.53839426889E+03  0.58676122422E+03  0.17099752247E+03 0.  0.
        -24    2    3    3    0    0  0.26550621399E+02  0.86007399446E+02  0.43624644660E+03  0.45265163898E+03  0.80500533203E+02 0.  0.
          6    2    1    2  501    0  0.23419030614E+02 -0.15694502790E+03  0.75408537887E+03  0.79069479366E+03  0.17712511206E+03 0.  0.
         24    2    5    5    0    0  0.44952662599E+02 -0.16395720645E+03  0.74010720718E+03  0.76366985632E+03  0.80810048329E+02 0.  0.
          5    1    5    5  501    0 -0.21533631985E+02  0.70121785452E+01  0.13978171684E+02  0.27024937336E+02  0.47000000000E+01 0. -1.
        -11    1    6    6    0    0  0.11555950566E+02 -0.14001654015E+02  0.18612833270E+02  0.26000459053E+02  0.00000000000E+00 0.  1.
         12    1    6    6    0    0  0.33396712032E+02 -0.14995555243E+03  0.72149437391E+03  0.73766939727E+03  0.00000000000E+00 0. -1.
         -5    1    3    3    0  503 -0.49969652012E+02  0.70937628455E+02  0.10214782229E+03  0.13410958523E+03  0.47000000000E+01 0.  1.
         11    1    4    4    0    0  0.50032460863E+02  0.26153986612E+02  0.20646011752E+03  0.21403985209E+03  0.00000000000E+00 0. -1.
        -12    1    4    4    0    0 -0.23481839464E+02  0.59853412835E+02  0.22978632908E+03  0.23861178690E+03  0.00000000000E+00 0.  1.
</event>
<event>
12    1  0.8251070E-002  0.1868975E+03  0.7818608E-02  0.1161663E+00
         21   -1    0    0  501  502  0.00000000000E+00  0.00000000000E+00  0.70089891038E+02  0.70089891038E+02  0.00000000000E+00 0. -1.
         21   -1    0    0  502  503 -0.00000000000E+00 -0.00000000000E+00 -0.16513775842E+04  0.16513775842E+04  0.00000000000E+00 0. -1.
         -6    2    1    2    0  503  0.71531876696E+02 -0.30074910868E+01 -0.15122259053E+04  0.15237315648E+04  0.17264077855E+03 0.  0.
        -24    2    3    3    0    0  0.21139626655E+02 -0.70798172477E+02 -0.81691927092E+03  0.82329715587E+03  0.70723734553E+02 0.  0.
          6    2    1    2  501    0 -0.71531876696E+02  0.30074910868E+01 -0.69061787781E+02  0.19773591039E+03  0.17089208683E+03 0.  0.
         24    2    5    5    0    0  0.16380425207E+02  0.18096208506E+02 -0.69716583206E+02  0.10841199995E+03  0.79353441431E+02 0.  0.
          5    1    5    5  501    0 -0.87912301903E+02 -0.15088717419E+02  0.65479542472E+00  0.89323910440E+02  0.47000000000E+01 0. -1.
        -11    1    6    6    0    0  0.43213594048E+00 -0.24873072754E+02 -0.54850032549E+02  0.60227755730E+02  0.00000000000E+00 0.  1.
         12    1    6    6    0    0  0.15948289267E+02  0.42969281260E+02 -0.14866550657E+02  0.48184244220E+02  0.00000000000E+00 0. -1.
         -5    1    3    3    0  503  0.50392250040E+02  0.67790681390E+02 -0.69530663442E+03  0.70043440893E+03  0.47000000000E+01 0.  1.
         13    1    4    4    0    0  0.36435107011E+02 -0.62741060804E+02 -0.76787778384E+03  0.77129776912E+03  0.00000000000E+00 0. -1.
        -14    1    4    4    0    0 -0.15295480356E+02 -0.80571116727E+01 -0.49041487075E+02  0.51999386750E+02  0.00000000000E+00 0.  1.
</event>
<event>
12    1  0.8251070E-002  0.2018657E+03  0.7818608E-02  0.1148181E+00
         21   -1    0    0  503  502  0.00000000000E+00  0.00000000000E+00  0.21141720251E+03  0.21141720251E+03  0.00000000000E+00 0. -1.
         21   -1    0    0  501  503 -0.00000000000E+00 -0.00000000000E+00 -0.33977411094E+03  0.33977411094E+03  0.00000000000E+00 0. -1.
          6    2    1    2  501    0  0.50128060071E+02 -0.91646710518E+02 -0.24548683636E+03  0.31780500202E+03  0.17269710630E+03 0.  0.
         24    2    3    3    0    0  0.83646612155E+02 -0.86056990842E+02 -0.24422416622E+03  0.28347684105E+03  0.79442524172E+02 0.  0.
         -6    2    1    2    0  502 -0.50128060071E+02  0.91646710518E+02  0.11712992794E+03  0.23338631143E+03  0.17273623936E+03 0.  0.
        -24    2    5    5    0    0 -0.67683523311E+02  0.77889537741E+02  0.17802078334E+02  0.13147671522E+03  0.79507064053E+02 0.  0.
          5    1    3    3  501    0 -0.33518552084E+02 -0.55897196757E+01 -0.12626701455E+01  0.34328160973E+02  0.47000000000E+01 0. -1.
        -11    1    4    4    0    0  0.81005630728E+02 -0.37568545498E+02 -0.11615511219E+03  0.14651047030E+03  0.00000000000E+00 0.  1.
         12    1    4    4    0    0  0.26409814270E+01 -0.48488445344E+02 -0.12806905403E+03  0.13696637075E+03  0.00000000000E+00 0. -1.
         -5    1    5    5    0  502  0.17555463240E+02  0.13757172777E+02  0.99327849606E+02  0.10190959621E+03  0.47000000000E+01 0.  1.
         13    1    6    6    0    0 -0.17695211438E+02  0.48339210437E+02  0.44049676436E+02  0.67750821158E+02  0.00000000000E+00 0. -1.
        -14    1    6    6    0    0 -0.49988311873E+02  0.29550327305E+02 -0.26247598102E+02  0.63725894061E+02  0.00000000000E+00 0.  1.
</event>
<event>
12    1  0.8251070E-002  0.5325840E+03  0.7818608E-02  0.1005616E+00
         21   -1    0    0  501  502  0.00000000000E+00  0.00000000000E+00  0.77570464235E+03  0.77570464235E+03  0.00000000000E+00 0.  1.
         21   -1    0    0  502  503 -0.00000000000E+00 -0.00000000000E+00 -0.38686654160E+03  0.38686654160E+03  0.00000000000E+00 0.  1.
         -6    2    1    2    0  503  0.17700857446E+03 -0.47198823700E+03  0.58004832051E+02  0.53559717979E+03  0.17144925537E+03 0.  0.
        -24    2    3    3    0    0  0.15824561006E+03 -0.27417808628E+03 -0.74031527893E+01  0.32635760649E+03  0.78988508892E+02 0.  0.
          6    2    1    2  501    0 -0.17700857446E+03  0.47198823700E+03  0.33083326870E+03  0.62697400415E+03  0.17187442773E+03 0.  0.
         24    2    5    5    0    0 -0.16628531290E+03  0.25731005912E+03  0.21584488790E+03  0.38315824151E+03  0.79761836689E+02 0.  0.
          5    1    5    5  501    0 -0.10723261560E+02  0.21467817787E+03  0.11498838081E+03  0.24381576264E+03  0.47000000000E+01 0. -1.
        -11    1    6    6    0    0 -0.13660189112E+03  0.22166089393E+03  0.14372256150E+03  0.29740511636E+03  0.00000000000E+00 0.  1.
         12    1    6    6    0    0 -0.29683421785E+02  0.35649165195E+02  0.72122326392E+02  0.85753125145E+02  0.00000000000E+00 0. -1.
         -5    1    3    3    0  503  0.18762964396E+02 -0.19781015071E+03  0.65407984840E+02  0.20923957331E+03  0.47000000000E+01 0.  1.
         13    1    4    4    0    0  0.55796314189E+02 -0.13287915023E+03 -0.38280715941E+02  0.14911576193E+03  0.00000000000E+00 0. -1.
        -14    1    4    4    0    0  0.10244929588E+03 -0.14129893605E+03  0.30877563152E+02  0.17724184455E+03  0.00000000000E+00 0.  1.
</event>
<event>
12    1  0.8251070E-002  0.1796489E+03  0.7818608E-02  0.1169014E+00
         21   -1    0    0  501  502  0.00000000000E+00  0.00000000000E+00  0.70201089529E+03  0.70201089529E+03  0.00000000000E+00 0. -1.
         21   -1    0    0  502  503 -0.00000000000E+00 -0.00000000000E+00 -0.45069042411E+02  0.45069042411E+02  0.00000000000E+00 0. -1.
         -6    2    1    2    0  503  0.10389616863E+02  0.54372646821E+02  0.32503655371E+03  0.36967450303E+03  0.16717101448E+03 0.  0.
        -24    2    3    3    0    0  0.59309942399E+02  0.40589227774E+02  0.28702747084E+03  0.30603519700E+03  0.78151251483E+02 0.  0.
          6    2    1    2  501    0 -0.10389616863E+02 -0.54372646821E+02  0.33190529917E+03  0.37740543467E+03  0.17090759386E+03 0.  0.
         24    2    5    5    0    0 -0.39533884504E+02 -0.69466826306E+02  0.12820409050E+03  0.17102351927E+03  0.80151028324E+02 0.  0.
          5    1    5    5  501    0  0.29144267642E+02  0.15094179485E+02  0.20370120867E+03  0.20638191540E+03  0.47000000000E+01 0. -1.
        -11    1    6    6    0    0  0.24149757547E+02 -0.19261280403E+02  0.47148739301E+02  0.56366757313E+02  0.00000000000E+00 0.  1.
         12    1    6    6    0    0 -0.63683642051E+02 -0.50205545903E+02  0.81055351203E+02  0.11465676196E+03  0.00000000000E+00 0. -1.
         -5    1    3    3    0  503 -0.48920325536E+02  0.13783419047E+02  0.38009082865E+02  0.63639306025E+02  0.47000000000E+01 0.  1.
         11    1    4    4    0    0  0.69095148384E+02  0.50421870443E+01  0.19048417743E+03  0.20269135412E+03  0.00000000000E+00 0. -1.
        -12    1    4    4    0    0 -0.97852059856E+01  0.35547040730E+02  0.96543293409E+02  0.10334384289E+03  0.00000000000E+00 0.  1.
</event>
<event>
12    1  0.8251070E-002  0.2061306E+03  0.7818608E-02  0.1144858E+00
         21   -1    0    0  503  502  0.00000000000E+00  0.00000000000E+00  0.10330174771E+04  0.10330174771E+04  0.00000000000E+00 0.  1.
         21   -1    0    0  501  503 -0.00000000000E+00 -0.00000000000E+00 -0.32223637089E+03  0.32223637089E+03  0.00000000000E+00 0. -1.
          6    2    1    2  501    0  0.54027402016E+02  0.98656234338E+02 -0.27782666675E+03  0.34538495868E+03  0.17161322846E+03 0.  0.
         24    2    3    3    0    0 -0.17395215284E+02  0.16076457735E+01 -0.86604818481E+02  0.11931527018E+03  0.80190779231E+02 0.  0.
         -6    2    1    2    0  502 -0.54027402016E+02 -0.98656234338E+02  0.98860777291E+03  0.10098688893E+04  0.17273630802E+03 0.  0.
        -24    2    5    5    0    0 -0.72659839063E+01  0.12572483314E+02  0.30604053187E+03  0.31670326231E+03  0.80182837013E+02 0.  0.
          5    1    3    3  501    0  0.71422617300E+02  0.97048588565E+02 -0.19122184827E+03  0.22606968850E+03  0.47000000000E+01 0. -1.
        -11    1    4    4    0    0 -0.65696175044E+01  0.13929431912E+02  0.11894687926E+02  0.19459510487E+02  0.00000000000E+00 0.  1.
         12    1    4    4    0    0 -0.10825597780E+02 -0.12321786138E+02 -0.98499506406E+02  0.99855759690E+02  0.00000000000E+00 0. -1.
         -5    1    5    5    0  502 -0.46761418110E+02 -0.11122871765E+03  0.68256724104E+03  0.69316562696E+03  0.47000000000E+01 0.  1.
         11    1    6    6    0    0 -0.40252919059E+02  0.23386773023E+02  0.18667509069E+03  0.19239238065E+03  0.00000000000E+00 0. -1.
        -12    1    6    6    0    0  0.32986935153E+02 -0.10814289709E+02  0.11936544118E+03  0.12431088166E+03  0.00000000000E+00 0.  1.
</event>
<event>
12    1  0.8251070E-002  0.5186943E+03  0.7818608E-02  0.1009061E+00
         21   -1    0    0  503  502  0.00000000000E+00  0.00000000000E+00  0.29439902149E+03  0.29439902149E+03  0.00000000000E+00 0. -1.
         21   -1    0    0  501  503 -0.00000000000E+00 -0.00000000000E+00 -0.11335681611E+04  0.11335681611E+04  0.00000000000E+00 0.  1.
          6    2    1    2  501    0  0.39988251672E+03 -0.28152284596E+03 -0.73463917822E+03  0.89884497795E+03  0.17048880385E+03 0.  0.
         24    2    3    3    0    0  0.41014110589E+03 -0.27034807825E+03 -0.68543843939E+03  0.84714471890E+03  0.80774441552E+02 0.  0.
         -6    2    1    2    0  502 -0.39988251672E+03  0.28152284596E+03 -0.10452996136E+03  0.52912220461E+03  0.17286600189E+03 0.  0.
        -24    2    5    5    0    0 -0.15745316637E+03  0.16750506962E+03 -0.51340645587E+01  0.24333613508E+03  0.79603191332E+02 0.  0.
          5    1    3    3  501    0 -0.10258589166E+02 -0.11174767706E+02 -0.49200738825E+02  0.51700259051E+02  0.47000000000E+01 0. -1.
        -13    1    4    4    0    0  0.10847755525E+03 -0.92191037460E+02 -0.14596262796E+03  0.20389128511E+03  0.00000000000E+00 0.  1.
         14    1    4    4    0    0  0.30166355064E+03 -0.17815704079E+03 -0.53947581143E+03  0.64325343379E+03  0.00000000000E+00 0. -1.
         -5    1    5    5    0  502 -0.24242935035E+03  0.11401777634E+03 -0.99395896801E+02  0.28578606952E+03  0.47000000000E+01 0.  1.
         11    1    6    6    0    0 -0.15264564807E+03  0.15474177039E+03 -0.25472292923E+02  0.21884822843E+03  0.00000000000E+00 0. -1.
        -12    1    6    6    0    0 -0.48075182948E+01  0.12763299235E+02  0.20338228364E+02  0.24487906658E+02  0.00000000000E+00 0.  1.
</event>
<event>
12    1  0.8251070E-002  0.2044906E+03  0.7818608E-02  0.1146190E+00
         21   -1    0    0  501  502  0.00000000000E+00  0.00000000000E+00  0.66601267234E+03  0.66601267234E+03  0.00000000000E+00 0.  1.
         21   -1    0    0  502  503 -0.00000000000E+00 -0.00000000000E+00 -0.83576326960E+02  0.83576326960E+02  0.00000000000E+00 0. -1.
         -6    2    1    2    0  503 -0.92760669800E+02  0.59443519813E+02  0.47986892900E+03  0.52162303720E+03  0.17227399691E+03 0.  0.
        -24    2    3    3    0    0 -0.12175005926E+02  0.79172414345E+02  0.34462640810E+03  0.36289084777E+03  0.80659185924E+02 0.  0.
          6    2    1    2  501    0  0.92760669800E+02 -0.59443519813E+02  0.10256741639E+03  0.22796596211E+03  0.17120260239E+03 0.  0.
         24    2    5    5    0    0 -0.13996586123E+02 -0.47490493723E+02  0.66699237617E+02  0.11461428469E+03  0.78970846134E+02 0.  0.
          5    1    5    5  501    0  0.10675725592E+03 -0.11953026089E+02  0.35868178770E+02  0.11335167742E+03  0.47000000000E+01 0. -1.
        -11    1    6    6    0    0 -0.20694890161E+02 -0.62182698278E+02  0.25426944685E+02  0.70295774837E+02  0.00000000000E+00 0.  1.
         12    1    6    6    0    0  0.66983040385E+01  0.14692204555E+02  0.41272292933E+02  0.44318509853E+02  0.00000000000E+00 0. -1.
         -5    1    3    3    0  503 -0.80585663874E+02 -0.19728894532E+02  0.13524252089E+03  0.15873218942E+03  0.47000000000E+01 0.  1.
         13    1    4    4    0    0 -0.26338325045E+02  0.23360088240E+02  0.41853241840E+02  0.54690903643E+02  0.00000000000E+00 0. -1.
        -14    1    4    4    0    0  0.14163319119E+02  0.55812326105E+02  0.30277316626E+03  0.30819994413E+03  0.00000000000E+00 0.  1.
</event>
<event>
12    1  0.8251070E-002  0.2469962E+03  0.7818608E-02  0.1115789E+00
         21   -1    0    0  501  502  0.00000000000E+00  0.00000000000E+00  0.36506411642E+03  0.36506411642E+03  0.00000000000E+00 0. -1.
         21   -1    0    0  502  503 -0.00000000000E+00 -0.00000000000E+00 -0.28425819275E+03  0.28425819275E+03  0.00000000000E+00 0. -1.
         -6    2    1    2    0  503 -0.16178333370E+03  0.63504269840E+02 -0.16995042655E+03  0.29981708867E+03  0.17550071175E+03 0.  0.
        -24    2    3    3    0    0 -0.16448927292E+03  0.11805958832E+02 -0.16620938247E+03  0.24770065289E+03  0.80832871099E+02 0.  0.
          6    2    1    2  501    0  0.16178333370E+03 -0.63504269840E+02  0.25075635021E+03  0.34950522049E+03  0.17049490499E+03 0.  0.
         24    2    5    5    0    0  0.93302160713E+02  0.20842719689E+02  0.18294976052E+03  0.22134941960E+03  0.79907687519E+02 0.  0.
          5    1    5    5  501    0  0.68481172990E+02 -0.84346989529E+02  0.67806589690E+02  0.12815580089E+03  0.47000000000E+01 0. -1.
        -11    1    6    6    0    0  0.65081270601E+01  0.32922304068E+02  0.29699593102E+02  0.44814056426E+02  0.00000000000E+00 0.  1.
         12    1    6    6    0    0  0.86794033653E+02 -0.12079584379E+02  0.15325016742E+03  0.17653536318E+03  0.00000000000E+00 0. -1.
         -5    1    3    3    0  503  0.27059392196E+01  0.51698311008E+02 -0.37410440803E+01  0.52116435785E+02  0.47000000000E+01 0.  1.
         11    1    4    4    0    0 -0.12291454074E+03  0.44000500733E+02 -0.12673338818E+03  0.18194883916E+03  0.00000000000E+00 0. -1.
        -12    1    4    4    0    0 -0.41574732179E+02 -0.32194541900E+02 -0.39475994289E+02  0.65751813732E+02  0.00000000000E+00 0.  1.
</event>
<event>
12    1  0.8251070E-002  0.2702971E+03  0.7818608E-02  0.1101138E+00
         21   -1    0    0  501  502  0.00000000000E+00  0.00000000000E+00  0.42350400652E+03  0.42350400652E+03  0.00000000000E+00 0. -1.
         21   -1    0    0  502  503 -0.00000000000E+00 -0.00000000000E+00 -0.18011447700E+03  0.18011447700E+03  0.00000000000E+00 0.  1.
         -6    2    1    2    0  503  0.15281720803E+02  0.20719433797E+03  0.18424812269E+03  0.32712063285E+03  0.17290897329E+03 0.  0.
        -24    2    3    3    0    0  0.38727462512E+01  0.18735180383E+03  0.78351314460E+02  0.21867656960E+03  0.81023558633E+02 0.  0.
          6    2    1    2  501    0 -0.15281720803E+02 -0.20719433797E+03  0.59141406835E+02  0.27649785067E+03  0.17259875649E+03 0.  0.
         24    2    5    5    0    0 -0.32002884170E+02 -0.22661195259E+03  0.64678395425E+02  0.24986348744E+03  0.76624446955E+02 0.  0.
          5    1    5    5  501    0  0.16721163367E+02  0.19417614617E+02 -0.55369885893E+01  0.26634363225E+02  0.47000000000E+01 0. -1.
        -11    1    6    6    0    0 -0.19384996563E+02 -0.38698714279E+02 -0.14377192395E+02  0.45607808978E+02  0.00000000000E+00 0.  1.
         12    1    6    6    0    0 -0.12617887607E+02 -0.18791323831E+03  0.79055587820E+02  0.20425567846E+03  0.00000000000E+00 0. -1.
         -5    1    3    3    0  503  0.11408974552E+02  0.19842534139E+02  0.10589680823E+03  0.10844406325E+03  0.47000000000E+01 0.  1.
         13    1    4    4    0    0  0.24929158801E+02  0.96473789705E+02  0.76074278088E+02  0.12536327550E+03  0.00000000000E+00 0. -1.
        -14    1    4    4    0    0 -0.21056412550E+02  0.90878014124E+02  0.22770363720E+01  0.93313294097E+02  0.00000000000E+00 0.  1.
</event>
<event>
12    1  0.8251070E-002  0.2326824E+03  0.7818608E-02  0.1124935E+00
         21   -1    0    0  503  502  0.00000000000E+00  0.00000000000E+00  0.32101956203E+03  0.32101956203E+03  0.00000000000E+00 0.  1.
         21   -1    0    0  501  503 -0.00000000000E+00 -0.00000000000E+00 -0.27408154003E+03  0.27408154003E+03  0.00000000000E+00 0.  1.
          6    2    1    2  501    0 -0.12962461048E+03  0.88375904297E+02 -0.16171966648E+03  0.28256451446E+03  0.17051866232E+03 0.  0.
         24    2    3    3    0    0 -0.36282070786E+02  0.47502577575E+02 -0.10820573152E+02  0.10042148022E+03  0.79965651056E+02 0.  0.
         -6    2    1    2    0  502  0.12962461048E+03 -0.88375904297E+02  0.20865768848E+03  0.31253658760E+03  0.17183785243E+03 0.  0.
        -24    2    5    5    0    0  0.10637862661E+03  0.70619628147E+01  0.12790361866E+03  0.18528851478E+03  0.81278622801E+02 0.  0.
          5    1    3    3  501    0 -0.93342539693E+02  0.40873326721E+02 -0.15089909333E+03  0.18214303424E+03  0.47000000000E+01 0. -1.
        -13    1    4    4    0    0 -0.45616419011E+02 -0.47648711579E+01 -0.11648157785E+02  0.47320621935E+02  0.00000000000E+00 0.  1.
         14    1    4    4    0    0  0.93343482255E+01  0.52267448733E+02  0.82758463342E+00  0.53100858281E+02  0.00000000000E+00 0. -1.
         -5    1    5    5    0  502  0.23245983865E+02 -0.95437867111E+02  0.80754069819E+02  0.12724807282E+03  0.47000000000E+01 0.  1.
         13    1    6    6    0    0  0.25419018675E+02  0.12743220111E+02 -0.56677417134E+01  0.28993783218E+02  0.00000000000E+00 0. -1.
        -14    1    6    6    0    0  0.80959607939E+02 -0.56812572966E+01  0.13357136037E+03  0.15629473156E+03  0.00000000000E+00 0.  1.
</event>
<event>
12    1  0.8251070E-002  0.2646464E+03  0.7818608E-02  0.1104480E+00
         21   -1    0    0  501  502  0.00000000000E+00  0.00000000000E+00  0.13238904414E+04  0.13238904414E+04  0.00000000000E+00 0.  1.
         21   -1    0    0  502  503 -0.00000000000E+00 -0.00000000000E+00 -0.12192198860E+03  0.12192198860E+03  0.00000000000E+00 0.  1.
         -6    2    1    2    0  503 -0.19480976095E+03 -0.49969034109E+02  0.56883299927E+02  0.27069066038E+03  0.17201737260E+03 0.  0.
        -24    2    3    3    0    0 -0.14757721373E+03 -0.77226514011E+02  0.93829596974E+02  0.20465277282E+03  0.73046530912E+02 0.  0.
          6    2    1    2  501    0  0.19480976095E+03  0.49969034109E+02  0.11450851529E+04  0.11751217696E+04  0.17100707225E+03 0.  0.
         24    2    5    5    0    0  0.46761711835E+02  0.41448474530E+02  0.29419288075E+03  0.31139115562E+03  0.80686845168E+02 0.  0.
          5    1    5    5  501    0  0.14804804911E+03  0.85205595785E+01  0.85089227214E+03  0.86373061401E+03  0.47000000000E+01 0. -1.
        -11    1    6    6    0    0  0.56318089623E+02  0.53543490936E+02  0.17857553625E+03  0.19475075041E+03  0.00000000000E+00 0.  1.
         12    1    6    6    0    0 -0.95563777876E+01 -0.12095016406E+02  0.11561734450E+03  0.11664040521E+03  0.00000000000E+00 0. -1.
         -5    1    3    3    0  503 -0.47232547222E+02  0.27257479902E+02 -0.36946297046E+02  0.66037887558E+02  0.47000000000E+01 0.  1.
         11    1    4    4    0    0  0.49789797604E+01 -0.12601662053E+02  0.17775510794E+02  0.22350859266E+02  0.00000000000E+00 0. -1.
        -12    1    4    4    0    0 -0.15255619349E+03 -0.64624851958E+02  0.76054086179E+02  0.18230191356E+03  0.00000000000E+00 0.  1.
</event>
<event>
12    1  0.8251070E-002  0.1774872E+03  0.7818608E-02  0.1170488E+00
         21   -1    0    0  501  502  0.00000000000E+00  0.00000000000E+00  0.14745558857E+03  0.14745558857E+03  0.00000000000E+00 0. -1.
         21   -1    0    0  502  503 -0.00000000000E+00 -0.00000000000E+00 -0.27046541299E+03  0.27046541299E+03  0.00000000000E+00 0. -1.
         -6    2    1    2    0  503 -0.36142261296E+02 -0.14650085972E+02  0.35091929558E+02  0.18092306615E+03  0.17314971636E+03 0.  0.
        -24    2    3    3    0    0 -0.49025503660E+02 -0.28125466281E+02 -0.38344830914E+02  0.10501119885E+03  0.79765180149E+02 0.  0.
          6    2    1    2  501    0  0.36142261296E+02  0.14650085972E+02 -0.15810175398E+03  0.23699793541E+03  0.17219456643E+03 0.  0.
         24    2    5    5    0    0  0.31781569108E+02 -0.29892067731E+02 -0.23300492237E+02  0.94883582653E+02  0.80971460839E+02 0.  0.
          5    1    5    5  501    0  0.43606921878E+01  0.44542153704E+02 -0.13480126174E+03  0.14211435276E+03  0.47000000000E+01 0. -1.
        -13    1    6    6    0    0  0.20066456649E+02 -0.12423113556E+02 -0.53273285700E+02  0.58266966646E+02  0.00000000000E+00 0.  1.
         14    1    6    6    0    0  0.11715112458E+02 -0.17468954175E+02  0.29972793462E+02  0.36616616007E+02  0.00000000000E+00 0. -1.
         -5    1    3    3    0  503  0.12883242365E+02  0.13475380309E+02  0.73436760472E+02  0.75911867300E+02  0.47000000000E+01 0.  1.
         13    1    4    4    0    0 -0.33848918684E+01 -0.30673688996E+02  0.15372486104E+02  0.34476746056E+02  0.00000000000E+00 0. -1.
        -14    1    4    4    0    0 -0.45640611792E+02  0.25482227149E+01 -0.53717317018E+02  0.70534452797E+02  0.00000000000E+00 0.  1.
</event>
<event>
12    1  0.8251070E-002  0.2146481E+03  0.7818608E-02  0.1138652E+00
         21   -1    0    0  501  502  0.00000000000E+00  0.00000000000E+00  0.42371380615E+03  0.42371380615E+03  0.00000000000E+00 0.  1.
         21   -1    0    0  502  503 -0.00000000000E+00 -0.00000000000E+00 -0.18985473481E+03  0.18985473481E+03  0.00000000000E+00 0.  1.
         -6    2    1    2    0  503  0.86662323457E+02  0.85092165835E+02 -0.86444913171E+02  0.22799307446E+03  0.17250241736E+03 0.  0.
        -24    2    3    3    0    0  0.19439113528E+02  0.26857631822E+02 -0.91263043210E+02  0.13879932310E+03  0.99182143126E+02 0.  0.
          6    2    1    2  501    0 -0.86662323457E+02 -0.85092165835E+02  0.32030398451E+03  0.38557546650E+03  0.17698238014E+03 0.  0.
         24    2    5    5    0    0 -0.48084607446E+02 -0.11549105908E+03  0.29388723055E+03  0.32960879988E+03  0.81375318580E+02 0.  0.
          5    1    5    5  501    0 -0.38577716011E+02  0.30398893248E+02  0.26416753964E+02  0.55966666627E+02  0.47000000000E+01 0. -1.
        -13    1    6    6    0    0 -0.65844413657E+02 -0.60603857505E+02  0.20448878043E+03  0.22321284837E+03  0.00000000000E+00 0.  1.
         14    1    6    6    0    0  0.17759806211E+02 -0.54887201578E+02  0.89398450123E+02  0.10639595151E+03  0.00000000000E+00 0. -1.
         -5    1    3    3    0  503  0.67223209929E+02  0.58234534013E+02  0.48181300394E+01  0.89193751362E+02  0.47000000000E+01 0.  1.
         13    1    4    4    0    0  0.29164310438E+01  0.77203405404E-01  0.21515844405E+02  0.21712740289E+02  0.00000000000E+00 0. -1.
        -14    1    4    4    0    0  0.16522682484E+02  0.26780428417E+02 -0.11277888761E+03  0.11708658281E+03  0.00000000000E+00 0.  1.
</event>
<event>
12    1  0.8251070E-002  0.1875484E+03  0.7818608E-02  0.1161840E+00
         21   -1    0    0  501  502  0.00000000000E+00  0.00000000000E+00  0.13247580669E+03  0.13247580669E+03  0.00000000000E+00 0. -1.
         21   -1    0    0  502  503 -0.00000000000E+00 -0.00000000000E+00 -0.47724488484E+03  0.47724488484E+03  0.00000000000E+00 0.  1.
         -6    2    1    2    0  503  0.75736564989E+00 -0.62400194808E+02 -0.37748961871E+03  0.41933939509E+03  0.17161805884E+03 0.  0.
        -24    2    3    3    0    0 -0.50104454964E+01  0.23958347718E+02 -0.25629677198E+03  0.27033985948E+03  0.82440871570E+02 0.  0.
          6    2    1    2  501    0 -0.75736564989E+00  0.62400194808E+02  0.32720540560E+02  0.19038129644E+03  0.17686165877E+03 0.  0.
         24    2    5    5    0    0 -0.35998261639E+02 -0.17649166865E+02  0.47255903065E+02  0.10159397855E+03  0.80503715265E+02 0.  0.
          5    1    5    5  501    0  0.35240895989E+02  0.80049361673E+02 -0.14535362505E+02  0.88787317886E+02  0.47000000000E+01 0. -1.
        -11    1    6    6    0    0 -0.30840365151E+02 -0.16464417130E+02 -0.15765727855E+02  0.38350532316E+02  0.00000000000E+00 0.  1.
         12    1    6    6    0    0 -0.51578964874E+01 -0.11847497341E+01  0.63021630919E+02  0.63243446236E+02  0.00000000000E+00 0. -1.
         -5    1    3    3    0  503  0.57678111462E+01 -0.86358542526E+02 -0.12119284673E+03  0.14899953561E+03  0.47000000000E+01 0.  1.
         13    1    4    4    0    0  0.84753577716E+01 -0.31845322031E+01  0.27995653047E+01  0.94768402226E+01  0.00000000000E+00 0. -1.
        -14    1    4    4    0    0 -0.13485803268E+02  0.27142879921E+02 -0.25909633728E+03  0.26086301925E+03  0.00000000000E+00 0.  1.
</event>
<event>
12    1  0.8251070E-002  0.2155842E+03  0.7818608E-02  0.1137279E+00
         21   -1    0    0  503  502  0.00000000000E+00  0.00000000000E+00  0.18935107869E+04  0.18935107869E+04  0.00000000000E+00 0.  1.
         21   -1    0    0  501  503 -0.00000000000E+00 -0.00000000000E+00 -0.70952149728E+02  0.70952149728E+02  0.00000000000E+00 0.  1.
          6    2    1    2  501    0  0.73701629826E+01 -0.12845217912E+03  0.11683344587E+03  0.24520727174E+03  0.17298054926E+03 0.  0.
         24    2    3    3    0    0  0.55582481072E+02 -0.12052833446E+03  0.51526568728E+02  0.16351092463E+03  0.80401141656E+02 0.  0.
         -6    2    1    2    0  502 -0.73701629826E+01  0.12845217912E+03  0.17057251913E+04  0.17192556648E+04  0.17259006736E+03 0.  0.
        -24    2    5    5    0    0 -0.48138436787E+02  0.96456371713E+02  0.72847788243E+03  0.74062387686E+03  0.78883211339E+02 0.  0.
          5    1    3    3  501    0 -0.48212318089E+02 -0.79238446560E+01  0.65306877137E+02  0.81696347110E+02  0.47000000000E+01 0. -1.
        -11    1    4    4    0    0  0.11551493464E+02 -0.10485639319E+03  0.20642062506E+02  0.10749137146E+03  0.00000000000E+00 0.  1.
         12    1    4    4    0    0  0.44030987608E+02 -0.15671941270E+02  0.30884506222E+02  0.56019553171E+02  0.00000000000E+00 0. -1.
         -5    1    5    5    0  502  0.40768273805E+02  0.31995807405E+02  0.97724730883E+03  0.97863178799E+03  0.47000000000E+01 0.  1.
         11    1    6    6    0    0 -0.46077080412E+02  0.10096246411E+02  0.25043443647E+03  0.25483806329E+03  0.00000000000E+00 0. -1.
        -12    1    6    6    0    0 -0.20613563749E+01  0.86360125302E+02  0.47804344597E+03  0.48578581357E+03  0.00000000000E+00 0.  1.
</event>
<event>
12    1  0.8251070E-002  0.2252037E+03  0.7818608E-02  0.1130112E+00
         21   -1    0    0  503  502  0.00000000000E+00  0.00000000000E+00  0.15340527171E+03  0.15340527171E+03  0.00000000000E+00 0.  1.
         21   -1    0    0  501  503 -0.00000000000E+00 -0.00000000000E+00 -0.35944588952E+03  0.35944588952E+03  0.00000000000E+00 0.  1.
          6    2    1    2  501    0 -0.12756546742E+03  0.69828403639E+02 -0.29815671487E+02  0.22689321105E+03  0.17158846267E+03 0.  0.
         24    2    3    3    0    0 -0.14056272370E+03  0.10050006501E+03 -0.32410510315E+02  0.19315150583E+03  0.79993253859E+02 0.  0.
         -6    2    1    2    0  502  0.12756546742E+03 -0.69828403639E+02 -0.17622494633E+03  0.28595795018E+03  0.17195279333E+03 0.  0.
        -24    2    5    5    0    0  0.33015244860E+02 -0.41548852906E+02 -0.11983690273E+02  0.94289596601E+02  0.77010425422E+02 0.  0.
          5    1    3    3  501    0  0.12997256289E+02 -0.30671661373E+02  0.25948388275E+01  0.33741705217E+02  0.47000000000E+01 0. -1.
        -13    1    4    4    0    0 -0.84866951621E+02  0.21873410264E+02  0.93478522574E+01  0.88137550997E+02  0.00000000000E+00 0.  1.
         14    1    4    4    0    0 -0.55695772084E+02  0.78626654749E+02 -0.41758362572E+02  0.10501395483E+03  0.00000000000E+00 0. -1.
         -5    1    5    5    0  502  0.94550222556E+02 -0.28279550733E+02 -0.16424125605E+03  0.19166835358E+03  0.47000000000E+01 0.  1.
         13    1    6    6    0    0 -0.44031450338E+01  0.19415606508E+02  0.54954737000E+01  0.20653176352E+02  0.00000000000E+00 0. -1.
        -14    1    6    6    0    0  0.37418389894E+02 -0.60964459414E+02 -0.17479163973E+02  0.73636420249E+02  0.00000000000E+00 0.  1.
</event>
<event>
12    1  0.8251070E-002  0.1822699E+03  0.7818608E-02  0.1165655E+00
         21   -1    0    0  503  502  0.00000000000E+00  0.00000000000E+00  0.44040202472E+03  0.44040202472E+03  0.00000000000E+00 0. -1.
         21   -1    0    0  501  503 -0.00000000000E+00 -0.00000000000E+00 -0.36963626789E+03  0.36963626789E+03  0.00000000000E+00 0. -1.
          6    2    1    2  501    0  0.58671123478E+02 -0.11639730065E+02 -0.32598241453E+03  0.37347938776E+03  0.17217588231E+03 0.  0.
         24    2    3    3    0    0  0.22602287324E+01 -0.19884808605E+02 -0.59748256747E+02  0.10116911043E+03  0.79150618911E+02 0.  0.
         -6    2    1    2    0  502 -0.58671123478E+02  0.11639730065E+02  0.39674817136E+03  0.43655890485E+03  0.17203715263E+03 0.  0.
        -24    2    5    5    0    0  0.15448114220E+02 -0.39611744962E+02  0.22665740295E+03  0.24401453442E+03  0.79760768061E+02 0.  0.
          5    1    3    3  501    0  0.56410894746E+02  0.82450785403E+01 -0.26623415779E+03  0.27231027733E+03  0.47000000000E+01 0. -1.
        -13    1    4    4    0    0  0.66907917421E+01  0.29631368298E+02 -0.13401504019E+02  0.33202183532E+02  0.00000000000E+00 0.  1.
         14    1    4    4    0    0 -0.44305630097E+01 -0.49516176903E+02 -0.46346752728E+02  0.67966926899E+02  0.00000000000E+00 0. -1.
         -5    1    5    5    0  502 -0.74119237699E+02  0.51251475027E+02  0.17009076841E+03  0.19254437043E+03  0.47000000000E+01 0.  1.
         11    1    6    6    0    0 -0.49827234037E+01 -0.19687143071E+02  0.20998230634E+03  0.21096203476E+03  0.00000000000E+00 0. -1.
        -12    1    6    6    0    0  0.20430837624E+02 -0.19924601891E+02  0.16675096615E+02  0.33052499658E+02  0.00000000000E+00 0.  1.
</event>
<event>
12    1  0.8251070E-002  0.2585733E+03  0.7818608E-02  0.1109458E+00
         21   -1    0    0  503  502  0.00000000000E+00  0.00000000000E+00  0.18009359500E+03  0.18009359500E+03  0.00000000000E+00 0.  1.
         21   -1    0    0  501  503 -0.00000000000E+00 -0.00000000000E+00 -0.54441953150E+03  0.54441953150E+03  0.00000000000E+00 0. -1.
          6    2    1    2  501    0 -0.17873511162E+03  0.23885689497E+02 -0.39198785733E+03  0.46446442290E+03  0.17191845033E+03 0.  0.
         24    2    3    3    0    0 -0.19787519735E+03  0.43853194319E+02 -0.32495799790E+03  0.39179987732E+03  0.82654383369E+02 0.  0.
         -6    2    1    2    0  502  0.17873511162E+03 -0.23885689497E+02  0.27661920825E+02  0.26004870359E+03  0.18531967000E+03 0.  0.
        -24    2    5    5    0    0  0.15847890635E+03  0.34265868064E+02  0.60791726170E+02  0.18996595607E+03  0.78113488084E+02 0.  0.
          5    1    3    3  501    0  0.19140085729E+02 -0.19967504821E+02 -0.67029859426E+02  0.72664545586E+02  0.47000000000E+01 0. -1.
        -11    1    4    4    0    0 -0.79746800715E+01  0.26593948140E+02 -0.33537066007E+02  0.43538125778E+02  0.00000000000E+00 0.  1.
         12    1    4    4    0    0 -0.18990051728E+03  0.17259246179E+02 -0.29142093189E+03  0.34826175154E+03  0.00000000000E+00 0. -1.
         -5    1    5    5    0  502  0.20256205266E+02 -0.58151557561E+02 -0.33129805346E+02  0.70082747526E+02  0.47000000000E+01 0.  1.
         11    1    6    6    0    0  0.42260461003E+02  0.23600995646E+02 -0.15158252761E+02  0.50722048326E+02  0.00000000000E+00 0. -1.
        -12    1    6    6    0    0  0.11621844535E+03  0.10664872418E+02  0.75949978931E+02  0.13924390774E+03  0.00000000000E+00 0.  1.
</event>
<event>
12    1  0.8251070E-002  0.2325193E+03  0.7818608E-02  0.1124898E+00
         21   -1    0    0  501  502  0.00000000000E+00  0.00000000000E+00  0.21125327297E+04  0.21125327297E+04  0.00000000000E+00 0.  1.
         21   -1    0    0  502  503 -0.00000000000E+00 -0.00000000000E+00 -0.72517204695E+02  0.72517204695E+02  0.00000000000E+00 0. -1.
         -6    2    1    2    0  503 -0.14298364073E+03 -0.63103673999E+02  0.14096912291E+03  0.27182165077E+03  0.17201256066E+03 0.  0.
        -24    2    3    3    0    0 -0.96597796664E+02 -0.17211333849E+02  0.11118931873E+02  0.12642249147E+03  0.78940809279E+02 0.  0.
          6    2    1    2  501    0  0.14298364073E+03  0.63103673999E+02  0.18990464021E+04  0.19132282837E+04  0.17215932375E+03 0.  0.
         24    2    5    5    0    0  0.40041861666E+02  0.82973553717E+02  0.91857900167E+03  0.92716021533E+03  0.85736347549E+02 0.  0.
          5    1    5    5  501    0  0.10294177906E+03 -0.19869879718E+02  0.98046740047E+03  0.98606806833E+03  0.47000000000E+01 0. -1.
        -13    1    6    6    0    0  0.33712669549E+02 -0.66496628653E+01  0.32646598755E+03  0.32826940633E+03  0.00000000000E+00 0.  1.
         14    1    6    6    0    0  0.63291921170E+01  0.89623216582E+02  0.59211301411E+03  0.59889080900E+03  0.00000000000E+00 0. -1.
         -5    1    3    3    0  503 -0.46385844066E+02 -0.45892340150E+02  0.12985019103E+03  0.14539915930E+03  0.47000000000E+01 0.  1.
         11    1    4    4    0    0 -0.87196599550E+02  0.13535342280E+02  0.24528155168E+02  0.91586477493E+02  0.00000000000E+00 0. -1.
        -12    1    4    4    0    0 -0.94011971142E+01 -0.30746676130E+02 -0.13409223296E+02  0.34836013974E+02  0.00000000000E+00 0.  1.
</event>
<event>
12    1  0.8251070E-002  0.1758007E+03  0.7818608E-02  0.1171967E+00
         21   -1    0    0  501  502  0.00000000000E+00  0.00000000000E+00  0.31028307238E+03  0.31028307238E+03  0.00000000000E+00 0. -1.
         21   -1    0    0  502  503 -0.00000000000E+00 -0.00000000000E+00 -0.11992500412E+03  0.11992500412E+03  0.00000000000E+00 0. -1.
         -6    2    1    2    0  503  0.89563784828E+01  0.30177285115E+02  0.64889635593E+01  0.17592040237E+03  0.17295952148E+03 0.  0.
        -24    2    3    3    0    0 -0.63725499891E+01 -0.20071026228E+00  0.69088182511E+02  0.10451626479E+03  0.78165356547E+02 0.  0.
          6    2    1    2  501    0 -0.89563784828E+01 -0.30177285115E+02  0.18386910470E+03  0.25428767413E+03  0.17281055610E+03 0.  0.
         24    2    5    5    0    0 -0.44175379459E+02 -0.15550363693E+02  0.32126241339E+02  0.97755532252E+02  0.79566140675E+02 0.  0.
          5    1    5    5  501    0  0.35219000976E+02 -0.14626921422E+02  0.15174286336E+03  0.15653214187E+03  0.47000000000E+01 0. -1.
        -13    1    6    6    0    0 -0.58409493703E+02  0.13314971006E+02  0.24189836594E+02  0.64607318486E+02  0.00000000000E+00 0.  1.
         14    1    6    6    0    0  0.14234114244E+02 -0.28865334699E+02  0.79364047452E+01  0.33148213766E+02  0.00000000000E+00 0. -1.
         -5    1    3    3    0  503  0.15328928472E+02  0.30377995378E+02 -0.62599218952E+02  0.71404137587E+02  0.47000000000E+01 0.  1.
         11    1    4    4    0    0 -0.18537558512E+01  0.34875955563E+02  0.11195690634E+02  0.36675770966E+02  0.00000000000E+00 0. -1.
        -12    1    4    4    0    0 -0.45187941379E+01 -0.35076665826E+02  0.57892491877E+02  0.67840493819E+02  0.00000000000E+00 0.  1.
</event>
<event>
12    1  0.8251070E-002  0.1766786E+03  0.7818608E-02  0.1171274E+00
         21   -1    0    0  501  502  0.00000000000E+00  0.00000000000E+00  0.19659811624E+03  0.19659811624E+03  0.00000000000E+00 0. -1.
         21   -1    0    0  502  503 -0.00000000000E+00 -0.00000000000E+00 -0.34950527586E+03  0.34950527586E+03  0.00000000000E+00 0. -1.
         -6    2    1    2    0  503 -0.21706976588E+01  0.38668612406E+02 -0.27866253292E+03  0.32995174040E+03  0.17238146717E+03 0.  0.
        -24    2    3    3    0    0 -0.33802606581E+02  0.49732354149E+01 -0.26898302208E+03  0.28249924813E+03  0.79288143792E+02 0.  0.
          6    2    1    2  501    0  0.21706976588E+01 -0.38668612406E+02  0.12575537331E+03  0.21615165170E+03  0.17148512794E+03 0.  0.
         24    2    5    5    0    0  0.12756679267E+02  0.14324758622E+02  0.13862417252E+03  0.16040170665E+03  0.78384403522E+02 0.  0.
          5    1    5    5  501    0 -0.10585981608E+02 -0.52993371027E+02 -0.12868799212E+02  0.55749945046E+02  0.47000000000E+01 0. -1.
        -11    1    6    6    0    0 -0.47213322641E+01  0.90533747127E+01 -0.77968645490E+01  0.12847010113E+02  0.00000000000E+00 0.  1.
         12    1    6    6    0    0  0.17478011531E+02  0.52713839088E+01  0.14642103707E+03  0.14755469654E+03  0.00000000000E+00 0. -1.
         -5    1    3    3    0  503  0.31631908922E+02  0.33695376991E+02 -0.96795108472E+01  0.47452492272E+02  0.47000000000E+01 0.  1.
         11    1    4    4    0    0  0.12436330616E+02 -0.27248868180E+02 -0.96600603517E+02  0.10113772657E+03  0.00000000000E+00 0. -1.
        -12    1    4    4    0    0 -0.46238937196E+02  0.32222103595E+02 -0.17238241856E+03  0.18136152156E+03  0.00000000000E+00 0.  1.
</event>
<event>
12    1  0.8251070E-002  0.2273773E+03  0.7818608E-02  0.1128740E+00
         21   -1    0    0  501  502  0.00000000000E+00  0.00000000000E+00  0.18048879258E+03  0.18048879258E+03  0.00000000000E+00 0.  1.
         21   -1    0    0  502  503 -0.00000000000E+00 -0.00000000000E+00 -0.43614893539E+03  0.43614893539E+03  0.00000000000E+00 0. -1.
         -6    2    1    2    0  503 -0.14618126830E+03  0.19857225455E+02 -0.30972332097E+03  0.38422514371E+03  0.17302356171E+03 0.  0.
        -24    2    3    3    0    0 -0.30478037667E+02 -0.20418925320E+01 -0.23021155438E+03  0.24205967684E+03  0.68282115340E+02 0.  0.
          6    2    1    2  501    0  0.14618126830E+03 -0.19857225455E+02  0.54063178159E+02  0.23241258425E+03  0.17125860411E+03 0.  0.
         24    2    5    5    0    0  0.12435974726E+03 -0.74939186171E+02  0.47985464492E+02  0.17266955302E+03  0.80193150433E+02 0.  0.
          5    1    5    5  501    0  0.21821521039E+02  0.55081960716E+02  0.60777136666E+01  0.59743031227E+02  0.47000000000E+01 0. -1.
        -11    1    6    6    0    0  0.13405237328E+03 -0.72566839409E+02  0.35189369057E+02  0.15644256665E+03  0.00000000000E+00 0.  1.
         12    1    6    6    0    0 -0.96926260252E+01 -0.23723467614E+01  0.12796095435E+02  0.16226986375E+02  0.00000000000E+00 0. -1.
         -5    1    3    3    0  503 -0.11570323063E+03  0.21899117987E+02 -0.79511766590E+02  0.14216546688E+03  0.47000000000E+01 0.  1.
         11    1    4    4    0    0 -0.17477260024E+02 -0.34278358500E+02 -0.14532037959E+03  0.15032788565E+03  0.00000000000E+00 0. -1.
        -12    1    4    4    0    0 -0.13000777643E+02  0.32236465968E+02 -0.84891174790E+02  0.91731791189E+02  0.00000000000E+00 0.  1.
</event>
<event>
12    1  0.8251070E-002  0.2326192E+03  0.7818608E-02  0.1126415E+00
         21   -1    0    0  501  502  0.00000000000E+00  0.00000000000E+00  0.72990954110E+03  0.72990954110E+03  0.00000000000E+00 0.  1.
         21   -1    0    0  502  503 -0.00000000000E+00 -0.00000000000E+00 -0.71607800197E+02  0.71607800197E+02  0.00000000000E+00 0.  1.
         -6    2    1    2    0  503 -0.27721619480E+02  0.15058413531E+03  0.29534937070E+03  0.37041862086E+03  0.16289454844E+03 0.  0.
        -24    2    3    3    0    0 -0.71099432251E+02  0.81788268562E+02  0.12548259465E+03  0.18202722634E+03  0.75123760747E+02 0.  0.
          6    2    1    2  501    0  0.27721619480E+02 -0.15058413531E+03  0.36295237021E+03  0.43109872044E+03  0.17512171119E+03 0.  0.
         24    2    5    5    0    0  0.70491193278E+02 -0.74619532291E+02  0.28909773435E+03  0.31674639387E+03  0.78826994691E+02 0.  0.
          5    1    5    5  501    0 -0.42769573798E+02 -0.75964603022E+02  0.73854635859E+02  0.11435232657E+03  0.47000000000E+01 0. -1.
        -13    1    6    6    0    0 -0.12211043642E+02 -0.28337613625E+02  0.10836941322E+03  0.11267679288E+03  0.00000000000E+00 0.  1.
         14    1    6    6    0    0  0.82702236920E+02 -0.46281918666E+02  0.18072832113E+03  0.20406960098E+03  0.00000000000E+00 0. -1.
         -5    1    3    3    0  503  0.43377812771E+02  0.68795866752E+02  0.16986677605E+03  0.18839139452E+03  0.47000000000E+01 0.  1.
         11    1    4    4    0    0 -0.10059198960E+02  0.10466580075E+02  0.73095888819E+02  0.74523457679E+02  0.00000000000E+00 0. -1.
        -12    1    4    4    0    0 -0.61040233292E+02  0.71321688487E+02  0.52386705830E+02  0.10750376866E+03  0.00000000000E+00 0.  1.
</event>
<event>
12    1  0.8251070E-002  0.2724907E+03  0.7818608E-02  0.1099916E+00
         21   -1    0    0  501  502  0.00000000000E+00  0.00000000000E+00  0.25517637084E+03  0.25517637084E+03  0.00000000000E+00 0. -1.
         21   -1    0    0  502  503 -0.00000000000E+00 -0.00000000000E+00 -0.33525387813E+03  0.33525387813E+03  0.00000000000E+00 0.  1.
         -6    2    1    2    0  503 -0.20882478155E+03 -0.31495222889E+02  0.67708229008E+02  0.28077677978E+03  0.17219598525E+03 0.  0.
        -24    2    3    3    0    0 -0.22668553329E+03 -0.48716788518E+02  0.71608967647E+02  0.25522497872E+03  0.79071417290E+02 0.  0.
          6    2    1    2  501    0  0.20882478155E+03  0.31495222889E+02 -0.14778573630E+03  0.30965346919E+03  0.17159518838E+03 0.  0.
         24    2    5    5    0    0  0.21203768325E+03  0.44626053623E+02 -0.85773542852E+02  0.24601115945E+03  0.78822117069E+02 0.  0.
          5    1    5    5  501    0 -0.32129017042E+01 -0.13130830735E+02 -0.62012193444E+02  0.63642309739E+02  0.47000000000E+01 0. -1.
        -11    1    6    6    0    0  0.15637246175E+03  0.99278544035E+01 -0.89253262535E+02  0.18032485674E+03  0.00000000000E+00 0.  1.
         12    1    6    6    0    0  0.55665221505E+02  0.34698199220E+02  0.34797196824E+01  0.65686302708E+02  0.00000000000E+00 0. -1.
         -5    1    3    3    0  503  0.17860751738E+02  0.17221565629E+02 -0.39007386386E+01  0.25551801058E+02  0.47000000000E+01 0.  1.
         13    1    4    4    0    0 -0.19518149406E+03 -0.15278142654E+02  0.73811483930E+02  0.20923042902E+03  0.00000000000E+00 0. -1.
        -14    1    4    4    0    0 -0.31504039226E+02 -0.33438645864E+02 -0.22025162831E+01  0.45994549707E+02  0.00000000000E+00 0.  1.
</event>
<event>
12    1  0.8251070E-002  0.2846501E+03  0.7818608E-02  0.1093323E+00
         21   -1    0    0  503  502  0.00000000000E+00  0.00000000000E+00  0.17796928284E+03  0.17796928284E+03  0.00000000000E+00 0. -1.
         21   -1    0    0  501  503 -0.00000000000E+00 -0.00000000000E+00 -0.73758248991E+03  0.73758248991E+03  0.00000000000E+00 0.  1.
          6    2    1    2  501    0 -0.61856761342E+02 -0.21725002243E+03 -0.56355995275E+03  0.63087433211E+03  0.17140236699E+03 0.  0.
         24    2    3    3    0    0 -0.45672485617E+02 -0.18925023476E+03 -0.55969175722E+03  0.59796579482E+03  0.80041247963E+02 0.  0.
         -6    2    1    2    0  502  0.61856761342E+02  0.21725002243E+03  0.39467456819E+01  0.28467744064E+03  0.17321038433E+03 0.  0.
        -24    2    5    5    0    0  0.26368233317E+02  0.21016430877E+03  0.43737142780E+02  0.23068662049E+03  0.80243746196E+02 0.  0.
          5    1    3    3  501    0 -0.16184275725E+02 -0.27999787664E+02 -0.38681955279E+01  0.32908537291E+02  0.47000000000E+01 0. -1.
        -13    1    4    4    0    0 -0.62660526482E+02 -0.17735305929E+03 -0.47786878029E+03  0.51355527492E+03  0.00000000000E+00 0.  1.
         14    1    4    4    0    0  0.16988040865E+02 -0.11897175467E+02 -0.81822976932E+02  0.84410519904E+02  0.00000000000E+00 0. -1.
         -5    1    5    5    0  502  0.35488528025E+02  0.70857136550E+01 -0.39790397098E+02  0.53990820152E+02  0.47000000000E+01 0.  1.
         13    1    6    6    0    0  0.19069058816E+01  0.78283800625E+00  0.18227021137E+02  0.18343211958E+02  0.00000000000E+00 0. -1.
        -14    1    6    6    0    0  0.24461327435E+02  0.20938147076E+03  0.25510121643E+02  0.21234340853E+03  0.00000000000E+00 0.  1.
</event>
<event>
12    1  0.8251070E-002  0.3418669E+03  0.7818608E-02  0.1067168E+00
         21   -1    0    0  503  502  0.00000000000E+00  0.00000000000E+00  0.79549297009E+03  0.79549297009E+03  0.00000000000E+00 0. -1.
         21   -1    0    0  501  503 -0.00000000000E+00 -0.00000000000E+00 -0.34394087437E+03  0.34394087437E+03  0.00000000000E+00 0.  1.
          6    2    1    2  501    0  0.13135094512E+03 -0.25150157087E+03 -0.20891447555E+03  0.40064731292E+03  0.19070107582E+03 0.  0.
         24    2    3    3    0    0  0.26561601426E+01 -0.42966497013E+02 -0.93187537081E+02  0.12960480888E+03  0.79122148379E+02 0.  0.
         -6    2    1    2    0  502 -0.13135094512E+03  0.25150157087E+03  0.66046657127E+03  0.73878653153E+03  0.17053837244E+03 0.  0.
        -24    2    5    5    0    0 -0.96804769773E+02  0.25017504202E+03  0.63945214264E+03  0.69805700759E+03  0.80161262541E+02 0.  0.
          5    1    3    3  501    0  0.12869478498E+03 -0.20853507386E+03 -0.11572693847E+03  0.27104250404E+03  0.47000000000E+01 0. -1.
        -11    1    4    4    0    0  0.14522473225E+02 -0.63832975932E+02 -0.61232230460E+02  0.89637810616E+02  0.00000000000E+00 0.  1.
         12    1    4    4    0    0 -0.11866313083E+02  0.20866478919E+02 -0.31955306621E+02  0.39966998260E+02  0.00000000000E+00 0. -1.
         -5    1    5    5    0  502 -0.34546175352E+02  0.13265288490E+01  0.21014428628E+02  0.40729523945E+02  0.47000000000E+01 0.  1.
         13    1    6    6    0    0 -0.57616786673E+02  0.89726446773E+02  0.17295814485E+03  0.20318722703E+03  0.00000000000E+00 0. -1.
        -14    1    6    6    0    0 -0.39187983100E+02  0.16044859525E+03  0.46649399779E+03  0.49486978056E+03  0.00000000000E+00 0.  1.
</event>
<event>
12    1  0.8251070E-002  0.1882628E+03  0.7818608E-02  0.1160067E+00
         21   -1    0    0  501  502  0.00000000000E+00  0.00000000000E+00  0.28550210656E+03  0.28550210656E+03  0.00000000000E+00 0. -1.
         21   -1    0    0  502  503 -0.00000000000E+00 -0.00000000000E+00 -0.12544884404E+03  0.12544884404E+03  0.00000000000E+00 0.  1.
         -6    2    1    2    0  503 -0.71276214090E+02 -0.30327868562E+02  0.58421122206E+02  0.19711902300E+03  0.17158905386E+03 0.  0.
        -24    2    3    3    0    0 -0.79661303414E+02  0.36459754156E+02  0.44035866014E+02  0.12812683601E+03  0.82474794176E+02 0.  0.
          6    2    1    2  501    0  0.71276214090E+02  0.30327868562E+02  0.10163214031E+03  0.21383192760E+03  0.17144947655E+03 0.  0.
         24    2    5    5    0    0  0.92998070700E+02  0.42446337203E+02  0.22224100937E+02  0.13048672345E+03  0.77990650963E+02 0.  0.
          5    1    5    5  501    0 -0.21721856610E+02 -0.12118468641E+02  0.79408039377E+02  0.83345204148E+02  0.47000000000E+01 0. -1.
        -13    1    6    6    0    0  0.41066528199E+02  0.31163171116E+02 -0.26872687909E+02  0.58135568525E+02  0.00000000000E+00 0.  1.
         14    1    6    6    0    0  0.51931542501E+02  0.11283166087E+02  0.49096788846E+02  0.72351154922E+02  0.00000000000E+00 0. -1.
         -5    1    3    3    0  503  0.83850893242E+01 -0.66787622718E+02  0.14385256192E+02  0.68992186999E+02  0.47000000000E+01 0.  1.
         13    1    4    4    0    0 -0.75923712418E+02 -0.73860362288E+01  0.29407640815E+02  0.81754345309E+02  0.00000000000E+00 0. -1.
        -14    1    4    4    0    0 -0.37375909961E+01  0.43845790385E+02  0.14628225199E+02  0.46372490696E+02  0.00000000000E+00 0.  1.
</event>
<event>
12    1  0.8251070E-002  0.1951959E+03  0.7818608E-02  0.1153886E+00
         21   -1    0    0  503  502  0.00000000000E+00  0.00000000000E+00  0.48726301777E+02  0.48726301777E+02  0.00000000000E+00 0.  1.
         21   -1    0    0  501  503 -0.00000000000E+00 -0.00000000000E+00 -0.93087260503E+03  0.93087260503E+03  0.00000000000E+00 0.  1.
          6    2    1    2  501    0 -0.34577278135E+02 -0.86211272930E+02 -0.63747100921E+03  0.66668637383E+03  0.17167836708E+03 0.  0.
         24    2    3    3    0    0 -0.59294578574E+02 -0.11793196441E+03 -0.47551365981E+03  0.49974500618E+03  0.78791086149E+02 0.  0.
         -6    2    1    2    0  502  0.34577278135E+02  0.86211272930E+02 -0.24467529404E+03  0.31291253298E+03  0.17152341542E+03 0.  0.
        -24    2    5    5    0    0  0.40061455773E+02 -0.41727077339E+01 -0.18872146635E+03  0.20636554335E+03  0.73134218345E+02 0.  0.
          5    1    3    3  501    0  0.24717300439E+02  0.31720691476E+02 -0.16195734940E+03  0.16694136765E+03  0.47000000000E+01 0. -1.
        -11    1    4    4    0    0 -0.73856415478E+02 -0.79534039764E+02 -0.39095714287E+03  0.40574366434E+03  0.00000000000E+00 0.  1.
         12    1    4    4    0    0  0.14561836904E+02 -0.38397924642E+02 -0.84556516941E+02  0.94001341841E+02  0.00000000000E+00 0. -1.
         -5    1    5    5    0  502 -0.54841776383E+01  0.90383980664E+02 -0.55953827692E+02  0.10654698963E+03  0.47000000000E+01 0.  1.
         11    1    6    6    0    0  0.71384084993E+01 -0.35318616133E+02 -0.61073312829E+02  0.70910584974E+02  0.00000000000E+00 0. -1.
        -12    1    6    6    0    0  0.32923047274E+02  0.31145908399E+02 -0.12764815352E+03  0.13545495838E+03  0.00000000000E+00 0.  1.
</event>
<event>
12    1  0.8251070E-002  0.2042093E+03  0.7818608E-02  0.1147190E+00
         21   -1    0    0  501  502  0.00000000000E+00  0.00000000000E+00  0.41380932478E+02  0.41380932478E+02  0.00000000000E+00 0. -1.
         21   -1    0    0  502  503 -0.00000000000E+00 -0.00000000000E+00 -0.10327411581E+04  0.10327411581E+04  0.00000000000E+00 0. -1.
         -6    2    1    2    0  503  0.10975024893E+03 -0.66447521656E+01 -0.61626820627E+03  0.64922102118E+03  0.17208184797E+03 0.  0.
        -24    2    3    3    0    0  0.11613370741E+02 -0.51002148446E+02 -0.34020404905E+03  0.35285649164E+03  0.77671224876E+02 0.  0.
          6    2    1    2  501    0 -0.10975024893E+03  0.66447521656E+01 -0.37509201931E+03  0.42490106936E+03  0.16660620014E+03 0.  0.
         24    2    5    5    0    0 -0.12335122614E+03  0.42814228501E+02 -0.33215578236E+03  0.36694567235E+03  0.85282351933E+02 0.  0.
          5    1    5    5  501    0  0.13600977205E+02 -0.36169476335E+02 -0.42936236949E+02  0.57955397010E+02  0.47000000000E+01 0. -1.
        -13    1    6    6    0    0 -0.32223022365E+02 -0.19484905543E+02 -0.14358407726E+03  0.14843979236E+03  0.00000000000E+00 0.  1.
         14    1    6    6    0    0 -0.91128203771E+02  0.62299134043E+02 -0.18857170510E+03  0.21850587999E+03  0.00000000000E+00 0. -1.
         -5    1    3    3    0  503  0.98136878190E+02  0.44357396280E+02 -0.27606415722E+03  0.29636452954E+03  0.47000000000E+01 0.  1.
         13    1    4    4    0    0  0.73724979922E+01  0.11854517355E+02 -0.18251959104E+03  0.18305268209E+03  0.00000000000E+00 0. -1.
        -14    1    4    4    0    0  0.42408727485E+01 -0.62856665801E+02 -0.15768445801E+03  0.16980380955E+03  0.00000000000E+00 0.  1.
</event>
<event>
12    1  0.8251070E-002  0.1933152E+03  0.7818608E-02  0.1155693E+00
         21   -1    0    0  503  502  0.00000000000E+00  0.00000000000E+00  0.25399725615E+03  0.25399725615E+03  0.00000000000E+00 0. -1.
         21   -1    0    0  501  503 -0.00000000000E+00 -0.00000000000E+00 -0.16342400121E+03  0.16342400121E+03  0.00000000000E+00 0. -1.
          6    2    1    2  501    0  0.20105997260E+02  0.85064446989E+02 -0.21821246484E+02  0.19454285010E+03  0.17242546929E+03 0.  0.
         24    2    3    3    0    0  0.73882827083E+02  0.68690591127E+02  0.12846869039E+02  0.12833092659E+03  0.78273336637E+02 0.  0.
         -6    2    1    2    0  502 -0.20105997260E+02 -0.85064446989E+02  0.11239450143E+03  0.22287840726E+03  0.17147025748E+03 0.  0.
        -24    2    5    5    0    0  0.20383556317E+02 -0.87581733522E+02  0.13134747088E+03  0.17785568265E+03  0.79337483761E+02 0.  0.
          5    1    3    3  501    0 -0.53776829823E+02  0.16373855863E+02 -0.34668115522E+02  0.66211923514E+02  0.47000000000E+01 0. -1.
        -11    1    4    4    0    0  0.50406940671E+02 -0.44595402024E+01  0.11201272585E+01  0.50616221231E+02  0.00000000000E+00 0.  1.
         12    1    4    4    0    0  0.23475886412E+02  0.73150131329E+02  0.11726741780E+02  0.77714705359E+02  0.00000000000E+00 0. -1.
         -5    1    5    5    0  502 -0.40489553577E+02  0.25172865324E+01 -0.18952969445E+02  0.45022724609E+02  0.47000000000E+01 0.  1.
         11    1    6    6    0    0  0.49399175463E+02 -0.37746292132E+02  0.71425607229E+02  0.94692547089E+02  0.00000000000E+00 0. -1.
        -12    1    6    6    0    0 -0.29015619146E+02 -0.49835441390E+02  0.59921863647E+02  0.83163135558E+02  0.00000000000E+00 0.  1.
</event>
<event>
12    1  0.8251070E-002  0.2136568E+03  0.7818608E-02  0.1138703E+00
         21   -1    0    0  501  502  0.00000000000E+00  0.00000000000E+00  0.22683213047E+03  0.22683213047E+03  0.00000000000E+00 0.  1.
         21   -1    0    0  502  503 -0.00000000000E+00 -0.00000000000E+00 -0.21977545991E+03  0.21977545991E+03  0.00000000000E+00 0. -1.
         -6    2    1    2    0  503 -0.38980504819E+02 -0.12071439526E+03 -0.61312721743E+02  0.22227832993E+03  0.17192138066E+03 0.  0.
        -24    2    3    3    0    0 -0.57567421540E+02 -0.14653067763E+03 -0.34298116179E+02  0.18028032019E+03  0.80866467497E+02 0.  0.
          6    2    1    2  501    0  0.38980504819E+02  0.12071439526E+03  0.68369392306E+02  0.22432926045E+03  0.17192381543E+03 0.  0.
         24    2    5    5    0    0  0.57526428487E+02  0.14140282043E+03  0.83285112243E+02  0.19244617839E+03  0.82432239166E+02 0.  0.
          5    1    5    5  501    0 -0.18545923668E+02 -0.20688425171E+02 -0.14915719938E+02  0.31883082066E+02  0.47000000000E+01 0. -1.
        -13    1    6    6    0    0  0.65564591240E+02  0.13905094841E+03  0.55529665621E+02  0.16345465929E+03  0.00000000000E+00 0.  1.
         14    1    6    6    0    0 -0.80381627531E+01  0.23518720180E+01  0.27755446622E+02  0.28991519098E+02  0.00000000000E+00 0. -1.
         -5    1    3    3    0  503  0.18586916721E+02  0.25816282366E+02 -0.27014605564E+02  0.41998009740E+02  0.47000000000E+01 0.  1.
         13    1    4    4    0    0 -0.51791489179E+02 -0.44086243543E+02 -0.37414201874E+02  0.77625883074E+02  0.00000000000E+00 0. -1.
        -14    1    4    4    0    0 -0.57759323603E+01 -0.10244443408E+03  0.31160856953E+01  0.10265443711E+03  0.00000000000E+00 0.  1.
</event>
<event>
12    1  0.8251070E-002  0.2416756E+03  0.7818608E-02  0.1118684E+00
         21   -1    0    0  501  502  0.00000000000E+00  0.00000000000E+00  0.82670210757E+03  0.82670210757E+03  0.00000000000E+00 0.  1.
         21   -1    0    0  502  503 -0.00000000000E+00 -0.00000000000E+00 -0.74062808518E+02  0.74062808518E+02  0.00000000000E+00 0.  1.
         -6    2    1    2    0  503  0.32566196667E+02 -0.16546975061E+03  0.27956402785E+03  0.36953303238E+03  0.17308327713E+03 0.  0.
        -24    2    3    3    0    0  0.13773177589E+02 -0.77662824817E+02  0.25178429400E+03  0.27542119786E+03  0.78995510938E+02 0.  0.
          6    2    1    2  501    0 -0.32566196667E+02  0.16546975061E+03  0.47307527120E+03  0.53123188370E+03  0.17310778869E+03 0.  0.
         24    2    5    5    0    0  0.94942999323E-01  0.18645304534E+03  0.38646825164E+03  0.43620602123E+03  0.78442566867E+02 0.  0.
          5    1    5    5  501    0 -0.32661139667E+02 -0.20983294727E+02  0.86607019565E+02  0.95025862479E+02  0.47000000000E+01 0. -1.
        -13    1    6    6    0    0 -0.83091813196E+01  0.64209383713E+02  0.22112529074E+03  0.23040894440E+03  0.00000000000E+00 0.  1.
         14    1    6    6    0    0  0.84041243190E+01  0.12224366163E+03  0.16534296090E+03  0.20579707683E+03  0.00000000000E+00 0. -1.
         -5    1    3    3    0  503  0.18793019078E+02 -0.87806925798E+02  0.27779733849E+02  0.94111834521E+02  0.47000000000E+01 0.  1.
         13    1    4    4    0    0 -0.17789957015E+01  0.10172611979E+02  0.24539372712E+01  0.10614549840E+02  0.00000000000E+00 0. -1.
        -14    1    4    4    0    0  0.15552173291E+02 -0.87835436795E+02  0.24933035673E+03  0.26480664802E+03  0.00000000000E+00 0.  1.
</event>
<event>
12    1  0.8251070E-002  0.2236112E+03  0.7818608E-02  0.1131451E+00
         21   -1    0    0  501  502  0.00000000000E+00  0.00000000000E+00  0.82070408736E+02  0.82070408736E+02  0.00000000000E+00 0. -1.
         21   -1    0    0  502  503 -0.00000000000E+00 -0.00000000000E+00 -0.60678748740E+03  0.60678748740E+03  0.00000000000E+00 0. -1.
         -6    2    1    2    0  503 -0.12794704165E+03  0.58043696856E+02 -0.27690777902E+03  0.35592117323E+03  0.17396105099E+03 0.  0.
        -24    2    3    3    0    0 -0.37267609941E+02  0.89985926869E+02 -0.13986404315E+03  0.18845135226E+03  0.80409077963E+02 0.  0.
          6    2    1    2  501    0  0.12794704165E+03 -0.58043696856E+02 -0.24780929964E+03  0.33293672290E+03  0.17233077571E+03 0.  0.
         24    2    5    5    0    0  0.13097457367E+02 -0.51806848018E+02 -0.16107657743E+03  0.18880490686E+03  0.82741381225E+02 0.  0.
          5    1    5    5  501    0  0.11484958428E+03 -0.62368488386E+01 -0.86732722214E+02  0.14413181604E+03  0.47000000000E+01 0. -1.
        -11    1    6    6    0    0 -0.18334001113E+02 -0.12040206371E+02 -0.22067549233E+01  0.22044771116E+02  0.00000000000E+00 0.  1.
         12    1    6    6    0    0  0.31431458480E+02 -0.39766641647E+02 -0.15886982251E+03  0.16676013575E+03  0.00000000000E+00 0. -1.
         -5    1    3    3    0  503 -0.90679431709E+02 -0.31942230013E+02 -0.13704373587E+03  0.16746982097E+03  0.47000000000E+01 0.  1.
         13    1    4    4    0    0 -0.60712017966E+02  0.46918658733E+02 -0.76729940758E+02  0.10851172043E+03  0.00000000000E+00 0. -1.
        -14    1    4    4    0    0  0.23444408026E+02  0.43067268136E+02 -0.63134102389E+02  0.79939631828E+02  0.00000000000E+00 0.  1.
</event>
<event>
12    1  0.8251070E-002  0.2039318E+03  0.7818608E-02  0.1146628E+00
         21   -1    0    0  501  502  0.00000000000E+00  0.00000000000E+00  0.53522608965E+03  0.53522608965E+03  0.00000000000E+00 0. -1.
         21   -1    0    0  502  503 -0.00000000000E+00 -0.00000000000E+00 -0.11647248646E+03  0.11647248646E+03  0.00000000000E+00 0. -1.
         -6    2    1    2    0  503 -0.10388742598E+03  0.35143796446E+02  0.39838400637E+03  0.44754664789E+03  0.17193167772E+03 0.  0.
        -24    2    3    3    0    0 -0.11523652552E+03 -0.23186118464E+02  0.32450973121E+03  0.35262204853E+03  0.72240504949E+02 0.  0.
          6    2    1    2  501    0  0.10388742598E+03 -0.35143796446E+02  0.20369596827E+02  0.20415192823E+03  0.17098364138E+03 0.  0.
         24    2    5    5    0    0 -0.11473737075E+02 -0.93669676004E+01 -0.30797460868E+01  0.83550914428E+02  0.82169846910E+02 0.  0.
          5    1    5    5  501    0  0.11536116305E+03 -0.25776828846E+02  0.23449342914E+02  0.12060101380E+03  0.47000000000E+01 0. -1.
        -11    1    6    6    0    0 -0.86357459281E+01 -0.25625450000E+02 -0.37000109071E+02  0.45828461317E+02  0.00000000000E+00 0.  1.
         12    1    6    6    0    0 -0.28379911470E+01  0.16258482399E+02  0.33920362984E+02  0.37722453111E+02  0.00000000000E+00 0. -1.
         -5    1    3    3    0  503  0.11349099541E+02  0.58329914911E+02  0.73874275159E+02  0.94924599362E+02  0.47000000000E+01 0.  1.
         13    1    4    4    0    0 -0.10934507656E+03 -0.24857995907E+01  0.21729750886E+03  0.24327090316E+03  0.00000000000E+00 0. -1.
        -14    1    4    4    0    0 -0.58914489594E+01 -0.20700318874E+02  0.10721222235E+03  0.10935114536E+03  0.00000000000E+00 0.  1.
</event>
<event>
12    1  0.8251070E-002  0.1759813E+03  0.7818608E-02  0.1172350E+00
         21   -1    0    0  503  502  0.00000000000E+00  0.00000000000E+00  0.62091007175E+02  0.62091007175E+02  0.00000000000E+00 0.  1.
         21   -1    0    0  501  503 -0.00000000000E+00 -0.00000000000E+00 -0.63533620009E+03  0.63533620009E+03  0.00000000000E+00 0.  1.
          6    2    1    2  501    0  0.26063547799E+02 -0.13875897362E+02 -0.45375576873E+03  0.48668647061E+03  0.17348652386E+03 0.  0.
         24    2    3    3    0    0  0.22281175705E+02 -0.26911033758E+02 -0.99732344463E+02  0.13237178554E+03  0.79718846872E+02 0.  0.
         -6    2    1    2    0  502 -0.26063547799E+02  0.13875897362E+02 -0.11948942418E+03  0.21074073665E+03  0.17106164545E+03 0.  0.
        -24    2    5    5    0    0 -0.10609176340E+01 -0.55730428949E+02 -0.82774926591E+02  0.12803513521E+03  0.80214095511E+02 0.  0.
          5    1    3    3  501    0  0.37823720938E+01  0.13035136396E+02 -0.35402342427E+03  0.35431468506E+03  0.47000000000E+01 0. -1.
        -13    1    4    4    0    0  0.45938339215E+02  0.41338706500E+01 -0.67490456877E+02  0.81745835771E+02  0.00000000000E+00 0.  1.
         14    1    4    4    0    0 -0.23657163511E+02 -0.31044904408E+02 -0.32241887586E+02  0.50625949771E+02  0.00000000000E+00 0. -1.
         -5    1    5    5    0  502 -0.25002630165E+02  0.69606326311E+02 -0.36714497586E+02  0.82705601447E+02  0.47000000000E+01 0.  1.
         13    1    6    6    0    0 -0.40099092183E+02 -0.28980522635E+02 -0.33716512396E+02  0.59871621777E+02  0.00000000000E+00 0. -1.
        -14    1    6    6    0    0  0.39038174549E+02 -0.26749906314E+02 -0.49058414195E+02  0.68163513431E+02  0.00000000000E+00 0.  1.
</event>
<event>
12    1  0.8251070E-002  0.1942306E+03  0.7818608E-02  0.1155100E+00
         21   -1    0    0  503  502  0.00000000000E+00  0.00000000000E+00  0.53267226983E+02  0.53267226983E+02  0.00000000000E+00 0.  1.
         21   -1    0    0  501  503 -0.00000000000E+00 -0.00000000000E+00 -0.71626539168E+03  0.71626539168E+03  0.00000000000E+00 0.  1.
          6    2    1    2  501    0 -0.49762254718E+02  0.70610594900E+02 -0.27802715342E+03  0.33915278348E+03  0.17396371576E+03 0.  0.
         24    2    3    3    0    0 -0.87182553757E+02  0.90744451519E+02 -0.23464094564E+03  0.27824216054E+03  0.80789686029E+02 0.  0.
         -6    2    1    2    0  502  0.49762254718E+02 -0.70610594900E+02 -0.38497101127E+03  0.43037983517E+03  0.17193599069E+03 0.  0.
        -24    2    5    5    0    0  0.28132673692E+01 -0.10050990668E+03 -0.20273049059E+03  0.23977061809E+03  0.79247344868E+02 0.  0.
          5    1    3    3  501    0  0.37420299039E+02 -0.20133856619E+02 -0.43386207780E+02  0.60910622949E+02  0.47000000000E+01 0. -1.
        -11    1    4    4    0    0  0.83915921000E+01 -0.78674778269E+01 -0.26394870242E+02  0.28792450407E+02  0.00000000000E+00 0.  1.
         12    1    4    4    0    0 -0.95574145857E+02  0.98611929346E+02 -0.20824607540E+03  0.24944971013E+03  0.00000000000E+00 0. -1.
         -5    1    5    5    0  502  0.46948987349E+02  0.29899311784E+02 -0.18224052069E+03  0.19060921709E+03  0.47000000000E+01 0.  1.
         13    1    6    6    0    0  0.24503316251E+02 -0.16950090659E+02 -0.10605282598E+03  0.11015861282E+03  0.00000000000E+00 0. -1.
        -14    1    6    6    0    0 -0.21690048882E+02 -0.83559816026E+02 -0.96677664611E+02  0.12961200527E+03  0.00000000000E+00 0.  1.
</event>
<event>
12    1  0.8251070E-002  0.2891861E+03  0.7818608E-02  0.1090788E+00
         21   -1    0    0  501  502  0.00000000000E+00  0.00000000000E+00  0.22970157491E+03  0.22970157491E+03  0.00000000000E+00 0. -1.
         21   -1    0    0  502  503 -0.00000000000E+00 -0.00000000000E+00 -0.38734052352E+03  0.38734052352E+03  0.00000000000E+00 0.  1.
         -6    2    1    2    0  503 -0.16829891446E+03  0.16015078950E+03 -0.15464488268E+03  0.32793851000E+03  0.17220867172E+03 0.  0.
        -24    2    3    3    0    0 -0.15818071200E+03  0.17575165473E+03 -0.92459581142E+02  0.26286265623E+03  0.68104479333E+02 0.  0.
          6    2    1    2  501    0  0.16829891446E+03 -0.16015078950E+03 -0.29940659406E+01  0.28910358843E+03  0.17204394912E+03 0.  0.
         24    2    5    5    0    0  0.20349951676E+02 -0.66008008232E+02 -0.35247128061E+02  0.11073848851E+03  0.79053621786E+02 0.  0.
          5    1    5    5  501    0  0.14794896278E+03 -0.94142781271E+02  0.32253062121E+02  0.17836509992E+03  0.47000000000E+01 0. -1.
        -13    1    6    6    0    0  0.49040630059E+02 -0.34440833620E+02 -0.32057794611E+02  0.67962170451E+02  0.00000000000E+00 0.  1.
         14    1    6    6    0    0 -0.28690678383E+02 -0.31567174612E+02 -0.31893334502E+01  0.42776318062E+02  0.00000000000E+00 0. -1.
         -5    1    3    3    0  503 -0.10118202459E+02 -0.15600865229E+02 -0.62185301535E+02  0.65075853770E+02  0.47000000000E+01 0.  1.
         13    1    4    4    0    0 -0.22130812674E+02  0.65319771866E+02 -0.41005659138E+02  0.80236584845E+02  0.00000000000E+00 0. -1.
        -14    1    4    4    0    0 -0.13604989932E+03  0.11043188287E+03 -0.51453922005E+02  0.18262607138E+03  0.00000000000E+00 0.  1.
</event>
<event>
12    1  0.8251070E-002  0.2295982E+03  0.7818608E-02  0.1126956E+00
         21   -1    0    0  503  502  0.00000000000E+00  0.00000000000E+00  0.38467676878E+03  0.38467676878E+03  0.00000000000E+00 0. -1.
         21   -1    0    0  501  503 -0.00000000000E+00 -0.00000000000E+00 -0.29174653550E+03  0.29174653550E+03  0.00000000000E+00 0.  1.
          6    2    1    2  501    0  0.10405681773E+03  0.11244380175E+03 -0.19991933486E+03  0.30429940173E+03  0.17075993552E+03 0.  0.
         24    2    3    3    0    0 -0.26339859311E+01  0.17800639543E+02 -0.10702650068E+03  0.13403071882E+03  0.78649609603E+02 0.  0.
         -6    2    1    2    0  502 -0.10405681773E+03 -0.11244380175E+03  0.29284956815E+03  0.37212390254E+03  0.17100847760E+03 0.  0.
        -24    2    5    5    0    0 -0.12260573484E+03 -0.10733946085E+03  0.17539595384E+03  0.25301236601E+03  0.81838809000E+02 0.  0.
          5    1    3    3  501    0  0.10669080366E+03  0.94643162212E+02 -0.92892834180E+02  0.17026868291E+03  0.47000000000E+01 0. -1.
        -11    1    4    4    0    0 -0.37043558229E+02  0.18277392860E+02 -0.80858746940E+02  0.90798817463E+02  0.00000000000E+00 0.  1.
         12    1    4    4    0    0  0.34409572298E+02 -0.47675331704E+00 -0.26167753739E+02  0.43231901360E+02  0.00000000000E+00 0. -1.
         -5    1    5    5    0  502  0.18548917116E+02 -0.51043409049E+01  0.11745361430E+03  0.11911153653E+03  0.47000000000E+01 0.  1.
         11    1    6    6    0    0 -0.26087162950E+02 -0.49187268750E+01  0.76582747995E+02  0.81053385095E+02  0.00000000000E+00 0. -1.
        -12    1    6    6    0    0 -0.96518571892E+02 -0.10242073397E+03  0.98813205850E+02  0.17195898092E+03  0.00000000000E+00 0.  1.
</event>
<event>
12    1  0.8251070E-002  0.1860321E+03  0.7818608E-02  0.1163123E+00
         21   -1    0    0  501  502  0.00000000000E+00  0.00000000000E+00  0.11639784438E+03  0.11639784438E+03  0.00000000000E+00 0.  1.
         21   -1    0    0  502  503 -0.00000000000E+00 -0.00000000000E+00 -0.43953182463E+03  0.43953182463E+03  0.00000000000E+00 0.  1.
         -6    2    1    2    0  503 -0.63866916492E+02 -0.56639094431E+01 -0.32223228561E+03  0.36989540061E+03  0.16993498347E+03 0.  0.
        -24    2    3    3    0    0 -0.75128661556E+00 -0.16678108119E+02 -0.57755124169E+02  0.97727889259E+02  0.77047791982E+02 0.  0.
          6    2    1    2  501    0  0.63866916492E+02  0.56639094431E+01 -0.90169462950E+00  0.18603426840E+03  0.17463353938E+03 0.  0.
         24    2    5    5    0    0  0.38549643022E+02 -0.35398802783E+01 -0.69511680236E+02  0.11217565884E+03  0.79075274381E+02 0.  0.
          5    1    5    5  501    0  0.25317273470E+02  0.92037897213E+01  0.68609985606E+02  0.73858609560E+02  0.47000000000E+01 0. -1.
        -11    1    6    6    0    0  0.19332024248E+02 -0.27036435747E+02  0.31917940891E+01  0.33389872251E+02  0.00000000000E+00 0.  1.
         12    1    6    6    0    0  0.19217618774E+02  0.23496555468E+02 -0.72703474325E+02  0.78785786594E+02  0.00000000000E+00 0. -1.
         -5    1    3    3    0  503 -0.63115629876E+02  0.11014198675E+02 -0.26447716144E+03  0.27216751135E+03  0.47000000000E+01 0.  1.
         13    1    4    4    0    0 -0.30129033619E+02 -0.31562922692E+02 -0.21156431953E+02  0.48493003296E+02  0.00000000000E+00 0. -1.
        -14    1    4    4    0    0  0.29377747004E+02  0.14884814573E+02 -0.36598692217E+02  0.49234885964E+02  0.00000000000E+00 0.  1.
</event>
<event>
12    1  0.8251070E-002  0.2169228E+03  0.7818608E-02  0.1136309E+00
         21   -1    0    0  501  502  0.00000000000E+00  0.00000000000E+00  0.16960051519E+03  0.16960051519E+03  0.00000000000E+00 0.  1.
         21   -1    0    0  502  503 -0.00000000000E+00 -0.00000000000E+00 -0.53557084011E+03  0.53557084011E+03  0.00000000000E+00 0. -1.
         -6    2    1    2    0  503 -0.95322691900E+02 -0.90507565995E+02 -0.42824003753E+03  0.48004690412E+03  0.17256148274E+03 0.  0.
        -24    2    3    3    0    0  0.79029165728E+01 -0.17480641000E+02 -0.23806718855E+03  0.25162566933E+03  0.79192564672E+02 0.  0.
          6    2    1    2  501    0  0.95322691900E+02  0.90507565995E+02  0.62269712604E+02  0.22512445118E+03  0.17182975970E+03 0.  0.
         24    2    5    5    0    0  0.31795618247E+02 -0.11134499482E+02 -0.85649938525E+01  0.85817436999E+02  0.78462315509E+02 0.  0.
          5    1    5    5  501    0  0.63527073654E+02  0.10164206548E+03  0.70834706457E+02  0.13930701418E+03  0.47000000000E+01 0. -1.
        -11    1    6    6    0    0  0.84829461590E+01  0.22606626407E+02  0.23549443043E+02  0.33728270052E+02  0.00000000000E+00 0.  1.
         12    1    6    6    0    0  0.23312672088E+02 -0.33741125889E+02 -0.32114436896E+02  0.52089166947E+02  0.00000000000E+00 0. -1.
         -5    1    3    3    0  503 -0.10322560847E+03 -0.73026924995E+02 -0.19017284898E+03  0.22842123480E+03  0.47000000000E+01 0.  1.
         11    1    4    4    0    0  0.34043597313E+01 -0.17206952203E+02 -0.24374570476E+03  0.24437601654E+03  0.00000000000E+00 0. -1.
        -12    1    4    4    0    0  0.44985568414E+01 -0.27368879690E+00  0.56785162101E+01  0.72496527890E+01  0.00000000000E+00 0.  1.
</event>
<event>
12    1  0.8251070E-002  0.2222483E+03  0.7818608E-02  0.1132413E+00
         21   -1    0    0  501  502  0.00000000000E+00  0.00000000000E+00  0.17034804557E+03  0.17034804557E+03  0.00000000000E+00 0. -1.
         21   -1    0    0  502  503 -0.00000000000E+00 -0.00000000000E+00 -0.36736250113E+03  0.36736250113E+03  0.00000000000E+00 0. -1.
         -6    2    1    2    0  503  0.14127414422E+03  0.15536845060E+02 -0.22319654436E+03  0.31497776374E+03  0.17086403032E+03 0.  0.
        -24    2    3    3    0    0  0.15802195319E+03  0.23775148501E+02 -0.13136213750E+03  0.22114809342E+03  0.78193814845E+02 0.  0.
          6    2    1    2  501    0 -0.14127414422E+03 -0.15536845060E+02  0.26182088807E+02  0.22273278296E+03  0.16948337219E+03 0.  0.
         24    2    5    5    0    0 -0.44545240185E+02 -0.56167161152E+02 -0.17941305462E+02  0.10881936240E+03  0.79879501597E+02 0.  0.
          5    1    5    5  501    0 -0.96728904039E+02  0.40630316092E+02  0.44123394269E+02  0.11391342056E+03  0.47000000000E+01 0. -1.
        -11    1    6    6    0    0 -0.22972335878E+02 -0.70480016459E+02  0.49044993100E+01  0.74291419755E+02  0.00000000000E+00 0.  1.
         12    1    6    6    0    0 -0.21572904307E+02  0.14312855307E+02 -0.22845804772E+02  0.34527942640E+02  0.00000000000E+00 0. -1.
         -5    1    3    3    0  503 -0.16747808962E+02 -0.82383034412E+01 -0.91834406865E+02  0.93829670322E+02  0.47000000000E+01 0.  1.
         11    1    4    4    0    0  0.28710569857E+02 -0.21503902390E+02 -0.50864957698E+02  0.62241132389E+02  0.00000000000E+00 0. -1.
        -12    1    4    4    0    0  0.12931138333E+03  0.45279050891E+02 -0.80497179800E+02  0.15890696103E+03  0.00000000000E+00 0.  1.
</event>
<event>
12    1  0.8251070E-002  0.2142977E+03  0.7818608E-02  0.1139819E+00
         21   -1    0    0  501  502  0.00000000000E+00  0.00000000000E+00  0.97883312796E+03  0.97883312796E+03  0.00000000000E+00 0. -1.
         21   -1    0    0  502  503 -0.00000000000E+00 -0.00000000000E+00 -0.51448610826E+02  0.51448610826E+02  0.00000000000E+00 0.  1.
         -6    2    1    2    0  503 -0.10048771887E+03 -0.55328837037E+02  0.63610215725E+03  0.66866186094E+03  0.17124154858E+03 0.  0.
        -24    2    3    3    0    0 -0.73899606604E+02 -0.10225569872E+03  0.50600965325E+03  0.52775335283E+03  0.80996620040E+02 0.  0.
          6    2    1    2  501    0  0.10048771887E+03  0.55328837037E+02  0.29128235988E+03  0.36161987785E+03  0.18100956059E+03 0.  0.
         24    2    5    5    0    0  0.59748619065E+02  0.17578390239E+02  0.28868780065E+03  0.30582030595E+03  0.79413575707E+02 0.  0.
          5    1    5    5  501    0  0.40739099802E+02  0.37750446798E+02  0.25945592340E+01  0.55799571896E+02  0.47000000000E+01 0. -1.
        -13    1    6    6    0    0  0.61888303805E+02  0.38837771911E+02  0.25986529420E+03  0.26994167111E+03  0.00000000000E+00 0.  1.
         14    1    6    6    0    0 -0.21396847396E+01 -0.21259381673E+02  0.28822506449E+02  0.35878634839E+02  0.00000000000E+00 0. -1.
         -5    1    3    3    0  503 -0.26588112262E+02  0.46926861683E+02  0.13009250400E+03  0.14090850811E+03  0.47000000000E+01 0.  1.
         13    1    4    4    0    0 -0.34874264514E+02 -0.88250438270E+01  0.24785374163E+03  0.25045073960E+03  0.00000000000E+00 0. -1.
        -14    1    4    4    0    0 -0.39025342091E+02 -0.93430654894E+02  0.25815591162E+03  0.27730261323E+03  0.00000000000E+00 0.  1.
</event>
<event>
12    1  0.8251070E-002  0.2005581E+03  0.7818608E-02  0.1149305E+00
         21   -1    0    0  503  502  0.00000000000E+00  0.00000000000E+00  0.34366431532E+03  0.34366431532E+03  0.00000000000E+00 0. -1.
         21   -1    0    0  501  503 -0.00000000000E+00 -0.00000000000E+00 -0.30031055759E+03  0.30031055759E+03  0.00000000000E+00 0. -1.
          6    2    1    2  501    0 -0.99214788644E+02 -0.29787816962E+02 -0.22992220298E+03  0.30510291841E+03  0.17173433866E+03 0.  0.
         24    2    3    3    0    0  0.50267847203E+01 -0.37818059814E+02 -0.54947033002E+02  0.10121767979E+03  0.75962938689E+02 0.  0.
         -6    2    1    2    0  502  0.99214788644E+02  0.29787816962E+02  0.27327596070E+03  0.33887195450E+03  0.17153297796E+03 0.  0.
        -24    2    5    5    0    0  0.97440505254E+02  0.16850134061E+02  0.29031672985E+03  0.31689447663E+03  0.79747894024E+02 0.  0.
          5    1    3    3  501    0 -0.10424157336E+03  0.80302428521E+01 -0.17497516997E+03  0.20388523862E+03  0.47000000000E+01 0. -1.
        -11    1    4    4    0    0 -0.21279674288E+02 -0.49498416734E+02 -0.46635700661E+02  0.71258728400E+02  0.00000000000E+00 0.  1.
         12    1    4    4    0    0  0.26306459008E+02  0.11680356920E+02 -0.83113323410E+01  0.29958951393E+02  0.00000000000E+00 0. -1.
         -5    1    5    5    0  502  0.17742833898E+01  0.12937682901E+02 -0.17040769155E+02  0.21977477876E+02  0.47000000000E+01 0.  1.
         13    1    6    6    0    0  0.54463093245E+02 -0.25228553986E+02  0.19641245254E+03  0.20537906411E+03  0.00000000000E+00 0. -1.
        -14    1    6    6    0    0  0.42977412009E+02  0.42078688047E+02  0.93904277309E+02  0.11151541251E+03  0.00000000000E+00 0.  1.
</event>
<event>
12    1  0.8251070E-002  0.3889837E+03  0.7818608E-02  0.1047678E+00
         21   -1    0    0  503  502  0.00000000000E+00  0.00000000000E+00  0.42192216265E+03  0.42192216265E+03  0.00000000000E+00 0.  1.
         21   -1    0    0  501  503 -0.00000000000E+00 -0.00000000000E+00 -0.37724815230E+03  0.37724815230E+03  0.00000000000E+00 0. -1.
          6    2    1    2  501    0 -0.10075910806E+03  0.33394740330E+03 -0.66843588253E+02  0.39468513031E+03  0.17214825229E+03 0.  0.
         24    2    3    3    0    0 -0.66631359168E+02  0.32534121484E+03 -0.88844313293E+02  0.35291323035E+03  0.79798446406E+02 0.  0.
         -6    2    1    2    0  502  0.10075910806E+03 -0.33394740330E+03  0.11151759860E+03  0.40448518464E+03  0.17175221618E+03 0.  0.
        -24    2    5    5    0    0  0.19444617907E+02 -0.10653209666E+03  0.90121586142E+02  0.16197817989E+03  0.79924024457E+02 0.  0.
          5    1    3    3  501    0 -0.34127748895E+02  0.86061884605E+01  0.22000725040E+02  0.41771899965E+02  0.47000000000E+01 0. -1.
        -13    1    4    4    0    0  0.97518919557E+01  0.10645186400E+03 -0.72628096786E+01  0.10714404860E+03  0.00000000000E+00 0.  1.
         14    1    4    4    0    0 -0.76383251124E+02  0.21888935085E+03 -0.81581503615E+02  0.24576918175E+03  0.00000000000E+00 0. -1.
         -5    1    5    5    0  502  0.81314490156E+02 -0.22741530664E+03  0.21396012456E+02  0.24250700475E+03  0.47000000000E+01 0.  1.
         11    1    6    6    0    0  0.24602987741E+02 -0.99931704778E+02  0.10365077257E+03  0.14606551708E+03  0.00000000000E+00 0. -1.
        -12    1    6    6    0    0 -0.51583698343E+01 -0.66003918854E+01 -0.13529186423E+02  0.15912662809E+02  0.00000000000E+00 0.  1.
</event>
<event>
12    1  0.8251070E-002  0.1907311E+03  0.7818608E-02  0.1158739E+00
         21   -1    0    0  501  502  0.00000000000E+00  0.00000000000E+00  0.12931170961E+03  0.12931170961E+03  0.00000000000E+00 0. -1.
         21   -1    0    0  502  503 -0.00000000000E+00 -0.00000000000E+00 -0.37074925121E+03  0.37074925121E+03  0.00000000000E+00 0. -1.
         -6    2    1    2    0  503  0.55734902419E+02 -0.63577236181E+02 -0.24661363756E+03  0.30925965686E+03  0.16635746099E+03 0.  0.
        -24    2    3    3    0    0  0.49876868136E+02 -0.68352044592E+02 -0.77811061081E+02  0.14022263374E+03  0.80300198084E+02 0.  0.
          6    2    1    2  501    0 -0.55734902419E+02  0.63577236181E+02  0.51760959574E+01  0.19080130395E+03  0.17096754462E+03 0.  0.
         24    2    5    5    0    0  0.27264660580E+01  0.98539023674E+02  0.48220287454E+00  0.12236022841E+03  0.72487379412E+02 0.  0.
          5    1    5    5  501    0 -0.58461368477E+02 -0.34961787493E+02  0.46938930829E+01  0.68441075541E+02  0.47000000000E+01 0. -1.
        -11    1    6    6    0    0  0.29533267103E+02  0.56544745410E+02 -0.22299005156E+02  0.67577864203E+02  0.00000000000E+00 0.  1.
         12    1    6    6    0    0 -0.26806801045E+02  0.41994278265E+02  0.22781208031E+02  0.54782364211E+02  0.00000000000E+00 0. -1.
         -5    1    3    3    0  503  0.58580342834E+01  0.47748084105E+01 -0.16880257648E+03  0.16903702312E+03  0.47000000000E+01 0.  1.
         11    1    4    4    0    0 -0.95982896702E+01 -0.10779941538E+01 -0.42747008275E+02  0.43824604418E+02  0.00000000000E+00 0. -1.
        -12    1    4    4    0    0  0.59475157806E+02 -0.67274050438E+02 -0.35064052806E+02  0.96398029324E+02  0.00000000000E+00 0.  1.
</event>
<event>
12    1  0.8251070E-002  0.2411441E+03  0.7818608E-02  0.1119149E+00
         21   -1    0    0  501  502  0.00000000000E+00  0.00000000000E+00  0.26465640934E+03  0.26465640934E+03  0.00000000000E+00 0. -1.
         21   -1    0    0  502  503 -0.00000000000E+00 -0.00000000000E+00 -0.39852908741E+03  0.39852908741E+03  0.00000000000E+00 0. -1.
         -6    2    1    2    0  503 -0.11186553425E+03 -0.12609121731E+03 -0.28949557199E+03  0.37677335123E+03  0.17244587312E+03 0.  0.
        -24    2    3    3    0    0 -0.11583571031E+03 -0.13609802435E+03 -0.17465641112E+03  0.26133496353E+03  0.76488673702E+02 0.  0.
          6    2    1    2  501    0  0.11186553425E+03  0.12609121731E+03  0.15562289391E+03  0.28641214552E+03  0.17146585420E+03 0.  0.
         24    2    5    5    0    0  0.15009156879E+01  0.99896072794E+01  0.46290919798E+02  0.92413425301E+02  0.79343222261E+02 0.  0.
          5    1    5    5  501    0  0.11036461856E+03  0.11610161003E+03  0.10933197412E+03  0.19399872022E+03  0.47000000000E+01 0. -1.
        -13    1    6    6    0    0 -0.22606922204E+02  0.61932732848E+01  0.60003936485E+02  0.64419732685E+02  0.00000000000E+00 0.  1.
         14    1    6    6    0    0  0.24107837892E+02  0.37963339947E+01 -0.13713016688E+02  0.27993692616E+02  0.00000000000E+00 0. -1.
         -5    1    3    3    0  503  0.39701760583E+01  0.10006807033E+02 -0.11483916087E+03  0.11543838770E+03  0.47000000000E+01 0.  1.
         13    1    4    4    0    0 -0.19916916802E+02 -0.81335674295E+02 -0.81356346002E+02  0.11675200436E+03  0.00000000000E+00 0. -1.
        -14    1    4    4    0    0 -0.95918793507E+02 -0.54762350052E+02 -0.93300065120E+02  0.14458295917E+03  0.00000000000E+00 0.  1.
</event>
<event>
12    1  0.8251070E-002  0.2986682E+03  0.7818608E-02  0.1085933E+00
         21   -1    0    0  501  502  0.00000000000E+00  0.00000000000E+00  0.17326819190E+03  0.17326819190E+03  0.00000000000E+00 0.  1.
         21   -1    0    0  502  503 -0.00000000000E+00 -0.00000000000E+00 -0.51463556071E+03  0.51463556071E+03  0.00000000000E+00 0. -1.
         -6    2    1    2    0  503  0.17499431776E+03 -0.17014104660E+03 -0.17656939838E+03  0.34695742895E+03  0.17213865944E+03 0.  0.
        -24    2    3    3    0    0  0.59517935108E+02 -0.14968596446E+03 -0.90203025369E+02  0.20123699208E+03  0.80071646903E+02 0.  0.
          6    2    1    2  501    0 -0.17499431776E+03  0.17014104660E+03 -0.16479797042E+03  0.34094632366E+03  0.17179941088E+03 0.  0.
         24    2    5    5    0    0 -0.32729293104E+02  0.71225337332E+02 -0.11598628908E+03  0.16086766026E+03  0.79254839325E+02 0.  0.
          5    1    5    5  501    0 -0.14226502465E+03  0.98915709265E+02 -0.48811681341E+02  0.18007866341E+03  0.47000000000E+01 0. -1.
        -13    1    6    6    0    0 -0.52128759478E+00 -0.80178218312E+01  0.72715051299E+01  0.10836604382E+02  0.00000000000E+00 0.  1.
         14    1    6    6    0    0 -0.32208005509E+02  0.79243159163E+02 -0.12325779421E+03  0.15003105587E+03  0.00000000000E+00 0. -1.
         -5    1    3    3    0  503  0.11547638265E+03 -0.20455082135E+02 -0.86366373015E+02  0.14572043687E+03  0.47000000000E+01 0.  1.
         13    1    4    4    0    0  0.12728646196E+02 -0.17687699088E+02 -0.51532191262E+02  0.55950333952E+02  0.00000000000E+00 0. -1.
        -14    1    4    4    0    0  0.46789288912E+02 -0.13199826537E+03 -0.38670834107E+02  0.14528665812E+03  0.00000000000E+00 0.  1.
</event>
<event>
12    1  0.8251070E-002  0.1942971E+03  0.7818608E-02  0.1154758E+00
         21   -1    0    0  503  502  0.00000000000E+00  0.00000000000E+00  0.20013172629E+03  0.20013172629E+03  0.00000000000E+00 0. -1.
         21   -1    0    0  501  503 -0.00000000000E+00 -0.00000000000E+00 -0.18913522210E+03  0.18913522210E+03  0.00000000000E+00 0.  1.
          6    2    1    2  501    0  0.32274537410E+02 -0.85276499299E+02 -0.87876710467E+01  0.19396523150E+03  0.17097239769E+03 0.  0.
         24    2    3    3    0    0 -0.17742351439E+02 -0.11006883979E+03  0.31172157812E+01  0.13669250110E+03  0.79026465792E+02 0.  0.
         -6    2    1    2    0  502 -0.32274537410E+02  0.85276499299E+02  0.19784175235E+02  0.19530171690E+03  0.17157394888E+03 0.  0.
        -24    2    5    5    0    0 -0.83910923847E+02  0.43565626707E+02  0.37587655535E+02  0.12641654282E+03  0.75028684371E+02 0.  0.
          5    1    3    3  501    0  0.50016888849E+02  0.24792340490E+02 -0.11904886828E+02  0.57272730400E+02  0.47000000000E+01 0. -1.
        -13    1    4    4    0    0 -0.15926256939E+02 -0.12123266194E+03 -0.56152510010E+01  0.12240316591E+03  0.00000000000E+00 0.  1.
         14    1    4    4    0    0 -0.18160944999E+01  0.11163822147E+02  0.87324667822E+01  0.14289335193E+02  0.00000000000E+00 0. -1.
         -5    1    5    5    0  502  0.51636386438E+02  0.41710872591E+02 -0.17803480300E+02  0.68885174076E+02  0.47000000000E+01 0.  1.
         13    1    6    6    0    0 -0.31450255669E+00  0.17944752770E+02  0.34545098618E+02  0.38929126658E+02  0.00000000000E+00 0. -1.
        -14    1    6    6    0    0 -0.83596421291E+02  0.25620873937E+02  0.30425569172E+01  0.87487416161E+02  0.00000000000E+00 0.  1.
</event>
<event>
12    1  0.8251070E-002  0.2109727E+03  0.7818608E-02  0.1143415E+00
         21   -1    0    0  503  502  0.00000000000E+00  0.00000000000E+00  0.47209403673E+03  0.47209403673E+03  0.00000000000E+00 0.  1.
         21   -1    0    0  501  503 -0.00000000000E+00 -0.00000000000E+00 -0.12368435230E+03  0.12368435230E+03  0.00000000000E+00 0. -1.
          6    2    1    2  501    0 -0.95161287666E+02 -0.46736963564E+01  0.33667582688E+03  0.39731608715E+03  0.18823375521E+03 0.  0.
         24    2    3    3    0    0 -0.93986332833E+00  0.33846057369E+02  0.24591413669E+03  0.26085648640E+03  0.80161742323E+02 0.  0.
         -6    2    1    2    0  502  0.95161287666E+02  0.46736963564E+01  0.11733857549E+02  0.19846230187E+03  0.17370114491E+03 0.  0.
        -24    2    5    5    0    0  0.96071368183E+02  0.61602988776E+02  0.20226232762E+02  0.14070433256E+03  0.79774511592E+02 0.  0.
          5    1    3    3  501    0 -0.94221424337E+02 -0.38519753726E+02  0.90761690191E+02  0.13645960075E+03  0.47000000000E+01 0. -1.
        -11    1    4    4    0    0 -0.31004397888E+02  0.43371874339E+02  0.12495137719E+03  0.13585006012E+03  0.00000000000E+00 0.  1.
         12    1    4    4    0    0  0.30064534559E+02 -0.95258169693E+01  0.12096275949E+03  0.12500642628E+03  0.00000000000E+00 0. -1.
         -5    1    5    5    0  502 -0.91008051751E+00 -0.56929292420E+02 -0.84923752125E+01  0.57757969309E+02  0.47000000000E+01 0.  1.
         13    1    6    6    0    0  0.14093173526E+02  0.51070619346E+02  0.23567220819E+02  0.57984822131E+02  0.00000000000E+00 0. -1.
        -14    1    6    6    0    0  0.81978194657E+02  0.10532369430E+02 -0.33409880571E+01  0.82719510432E+02  0.00000000000E+00 0.  1.
</event>
<event>
12    1  0.8251070E-002  0.1936663E+03  0.7818608E-02  0.1155251E+00
         21   -1    0    0  501  502  0.00000000000E+00  0.00000000000E+00  0.12776096501E+04  0.12776096501E+04  0.00000000000E+00 0.  1.
         21   -1    0    0  502  503 -0.00000000000E+00 -0.00000000000E+00 -0.77398518028E+02  0.77398518028E+02  0.00000000000E+00 0.  1.
         -6    2    1    2    0  503  0.57687346079E+02 -0.67649277344E+02  0.65977931525E+02  0.20435983486E+03  0.17177194193E+03 0.  0.
        -24    2    3    3    0    0 -0.17015711485E+02  0.14157764144E+01  0.61566823362E+02  0.10241830096E+03  0.80046834864E+02 0.  0.
          6    2    1    2  501    0 -0.57687346079E+02  0.67649277344E+02  0.11342332006E+04  0.11506483333E+04  0.17205341903E+03 0.  0.
         24    2    5    5    0    0  0.15373362500E+02 -0.41615737797E+00  0.69078578129E+03  0.69607328534E+03  0.84240782778E+02 0.  0.
          5    1    5    5  501    0 -0.73060708580E+02  0.68065434722E+02  0.44344741930E+03  0.45457504796E+03  0.47000000000E+01 0. -1.
        -11    1    6    6    0    0  0.42567216696E+02  0.22609323057E+02  0.46525631757E+03  0.46774628857E+03  0.00000000000E+00 0.  1.
         12    1    6    6    0    0 -0.27193854196E+02 -0.23025480435E+02  0.22552946371E+03  0.22832699678E+03  0.00000000000E+00 0. -1.
         -5    1    3    3    0  503  0.74703057564E+02 -0.69065053758E+02  0.44111081630E+01  0.10194153391E+03  0.47000000000E+01 0.  1.
         13    1    4    4    0    0 -0.28288863412E+02  0.19467930925E+02 -0.29643358374E+01  0.34468063691E+02  0.00000000000E+00 0. -1.
        -14    1    4    4    0    0  0.11273151927E+02 -0.18052154511E+02  0.64531159199E+02  0.67950237266E+02  0.00000000000E+00 0.  1.
</event>
<event>
12    1  0.8251070E-002  0.2034130E+03  0.7818608E-02  0.1147089E+00
         21   -1    0    0  503  502  0.00000000000E+00  0.00000000000E+00  0.10002520930E+04  0.10002520930E+04  0.00000000000E+00 0.  1.
         21   -1    0    0  501  503 -0.00000000000E+00 -0.00000000000E+00 -0.81771426033E+02  0.81771426033E+02  0.00000000000E+00 0. -1.
          6    2    1    2  501    0 -0.10870494701E+03 -0.21101892075E+01  0.78573852489E+02  0.21806121436E+03  0.17191749332E+03 0.  0.
         24    2    3    3    0    0 -0.52338774780E+02 -0.80773378550E+01 -0.25919447600E+02  0.99091924211E+02  0.79641703571E+02 0.  0.
         -6    2    1    2    0  502  0.10870494701E+03  0.21101892075E+01  0.83990681451E+03  0.86396230470E+03  0.17078111278E+03 0.  0.
        -24    2    5    5    0    0  0.11678619770E+03 -0.30227707788E+02  0.45071340250E+03  0.47331585566E+03  0.79577620828E+02 0.  0.
          5    1    3    3  501    0 -0.56366172234E+02  0.59671486476E+01  0.10449330009E+03  0.11896929015E+03  0.47000000000E+01 0. -1.
        -13    1    4    4    0    0 -0.20834994467E+02 -0.21138168689E+02  0.24319319351E+02  0.38371193149E+02  0.00000000000E+00 0.  1.
         14    1    4    4    0    0 -0.31503780312E+02  0.13060830834E+02 -0.50238766951E+02  0.60720731063E+02  0.00000000000E+00 0. -1.
         -5    1    5    5    0  502 -0.80812506902E+01  0.32337896996E+02  0.38919341201E+03  0.39064644904E+03  0.47000000000E+01 0.  1.
         11    1    6    6    0    0  0.27528989157E+02 -0.35778089843E+02  0.24317098723E+03  0.24732578917E+03  0.00000000000E+00 0. -1.
        -12    1    6    6    0    0  0.89257208547E+02  0.55503820549E+01  0.20754241527E+03  0.22599006649E+03  0.00000000000E+00 0.  1.
</event>
<event>
12    1  0.8251070E-002  0.1781674E+03  0.7818608E-02  0.1169598E+00
         21   -1    0    0  503  502  0.00000000000E+00  0.00000000000E+00  0.21830027470E+03  0.21830027470E+03  0.00000000000E+00 0. -1.
         21   -1    0    0  501  503 -0.00000000000E+00 -0.00000000000E+00 -0.23862108309E+03  0.23862108309E+03  0.00000000000E+00 0. -1.
          6    2    1    2  501    0  0.29131678353E+02  0.34680126581E+02 -0.15297133781E+03  0.23482728039E+03  0.17231440903E+03 0.  0.
         24    2    3    3    0    0  0.78337518612E+01  0.83822958309E+01  0.20658279008E+01  0.76070263766E+02  0.75171715644E+02 0.  0.
         -6    2    1    2    0  502 -0.29131678353E+02 -0.34680126581E+02  0.13265052943E+03  0.22209407740E+03  0.17227376584E+03 0.  0.
        -24    2    5    5    0    0 -0.56577922407E+02  0.28970898039E+02  0.10269180739E+03  0.14643454877E+03  0.82807581356E+02 0.  0.
          5    1    3    3  501    0  0.21297926492E+02  0.26297830750E+02 -0.15503716571E+03  0.15875701663E+03  0.47000000000E+01 0. -1.
        -11    1    4    4    0    0 -0.20854409043E+02  0.28558807542E+02  0.15370674751E+02  0.38558650223E+02  0.00000000000E+00 0.  1.
         12    1    4    4    0    0  0.28688160904E+02 -0.20176511711E+02 -0.13304846850E+02  0.37511613543E+02  0.00000000000E+00 0. -1.
         -5    1    5    5    0  502  0.27446244054E+02 -0.63651024620E+02  0.29958722034E+02  0.75659528638E+02  0.47000000000E+01 0.  1.
         13    1    6    6    0    0  0.66346791576E+01  0.34205053836E+02  0.61865261070E+02  0.71002219702E+02  0.00000000000E+00 0. -1.
        -14    1    6    6    0    0 -0.63212601565E+02 -0.52341557966E+01  0.40826546322E+02  0.75432329065E+02  0.00000000000E+00 0.  1.
</event>
<event>
12    1  0.8251070E-002  0.1894623E+03  0.7818608E-02  0.1161627E+00
         21   -1    0    0  501  502  0.00000000000E+00  0.00000000000E+00  0.55298154580E+02  0.55298154580E+02  0.00000000000E+00 0.  1.
         21   -1    0    0  502  503 -0.00000000000E+00 -0.00000000000E+00 -0.99513414373E+03  0.99513414373E+03  0.00000000000E+00 0.  1.
         -6    2    1    2    0  503 -0.41792814369E+02 -0.13344906519E+02 -0.80533356020E+03  0.82731982920E+03  0.18431286102E+03 0.  0.
        -24    2    3    3    0    0 -0.84409349294E+02 -0.54984429269E+02 -0.60812633636E+03  0.62125479568E+03  0.77405778023E+02 0.  0.
          6    2    1    2  501    0  0.41792814369E+02  0.13344906519E+02 -0.13450242895E+03  0.22311246911E+03  0.17252114252E+03 0.  0.
         24    2    5    5    0    0 -0.24616594988E+02  0.53022542089E+02 -0.10222558043E+03  0.13915766362E+03  0.74144583953E+02 0.  0.
          5    1    5    5  501    0  0.66409409357E+02 -0.39677635570E+02 -0.32276848512E+02  0.83954805493E+02  0.47000000000E+01 0. -1.
        -11    1    6    6    0    0 -0.31482515415E+02  0.25012665112E+02 -0.85030560636E+01  0.41098469014E+02  0.00000000000E+00 0.  1.
         12    1    6    6    0    0  0.68659204269E+01  0.28009876977E+02 -0.93722524371E+02  0.98059194602E+02  0.00000000000E+00 0. -1.
         -5    1    3    3    0  503  0.42616534925E+02  0.41639522750E+02 -0.19720722385E+03  0.20606503352E+03  0.47000000000E+01 0.  1.
         13    1    4    4    0    0 -0.33191831000E+02 -0.10021117333E+02 -0.63223993149E+02  0.72106821782E+02  0.00000000000E+00 0. -1.
        -14    1    4    4    0    0 -0.51217518294E+02 -0.44963311935E+02 -0.54490234321E+03  0.54914797390E+03  0.00000000000E+00 0.  1.
</event>
<event>
12    1  0.8251070E-002  0.2069779E+03  0.7818608E-02  0.1144594E+00
         21   -1    0    0  503  502  0.00000000000E+00  0.00000000000E+00  0.31765554899E+03  0.31765554899E+03  0.00000000000E+00 0.  1.
         21   -1    0    0  501  503 -0.00000000000E+00 -0.00000000000E+00 -0.15345662655E+03  0.15345662655E+03  0.00000000000E+00 0. -1.
          6    2    1    2  501    0 -0.77150425205E+02  0.86201312282E+02  0.16777356500E+03  0.26410343708E+03  0.16798750553E+03 0.  0.
         24    2    3    3    0    0 -0.30740058140E+02  0.10197627148E+03  0.16839055409E+03  0.21485668912E+03  0.80398426821E+02 0.  0.
         -6    2    1    2    0  502  0.77150425205E+02 -0.86201312282E+02 -0.35746425622E+01  0.20700873846E+03  0.17163037429E+03 0.  0.
        -24    2    5    5    0    0 -0.60446921327E+01 -0.49906541804E+02  0.43707455560E+02  0.10455667788E+03  0.80588808158E+02 0.  0.
          5    1    3    3  501    0 -0.46410367066E+02 -0.15774959194E+02 -0.61698908458E+00  0.49246747956E+02  0.47000000000E+01 0. -1.
        -13    1    4    4    0    0 -0.10779618923E+02  0.33257600869E+02  0.12799383824E+03  0.13268266966E+03  0.00000000000E+00 0.  1.
         14    1    4    4    0    0 -0.19960439217E+02  0.68718670606E+02  0.40396715848E+02  0.82174019465E+02  0.00000000000E+00 0. -1.
         -5    1    5    5    0  502  0.83195117338E+02 -0.36294770477E+02 -0.47282098122E+02  0.10245206057E+03  0.47000000000E+01 0.  1.
         11    1    6    6    0    0  0.19623514831E+00 -0.18288874783E+02 -0.23643597639E+02  0.29892158810E+02  0.00000000000E+00 0. -1.
        -12    1    6    6    0    0 -0.62409272810E+01 -0.31617667022E+02  0.67351053199E+02  0.74664519072E+02  0.00000000000E+00 0.  1.
</event>
<event>
12    1  0.8251070E-002  0.2003046E+03  0.7818608E-02  0.1149689E+00
         21   -1    0    0  503  502  0.00000000000E+00  0.00000000000E+00  0.19321482509E+03  0.19321482509E+03  0.00000000000E+00 0.  1.
         21   -1    0    0  501  503 -0.00000000000E+00 -0.00000000000E+00 -0.23339472852E+03  0.23339472852E+03  0.00000000000E+00 0.  1.
          6    2    1    2  501    0  0.41517331399E+02  0.94285852855E+02 -0.92351204626E+02  0.22056899606E+03  0.17178016816E+03 0.  0.
         24    2    3    3    0    0  0.92731181654E+02  0.78414372789E+02 -0.71102975460E+02  0.16270415717E+03  0.81664703088E+02 0.  0.
         -6    2    1    2    0  502 -0.41517331399E+02 -0.94285852855E+02  0.52171301188E+02  0.20604055755E+03  0.17063808435E+03 0.  0.
        -24    2    5    5    0    0 -0.11787380037E+02  0.10507973547E+02 -0.58194236710E+01  0.82547115497E+02  0.80813369864E+02 0.  0.
          5    1    3    3  501    0 -0.51213850255E+02  0.15871480067E+02 -0.21248229166E+02  0.57864838894E+02  0.47000000000E+01 0. -1.
        -11    1    4    4    0    0  0.23603085031E+02  0.56133733738E+01 -0.56197680633E+02  0.61211068379E+02  0.00000000000E+00 0.  1.
         12    1    4    4    0    0  0.69128096623E+02  0.72800999415E+02 -0.14905294827E+02  0.10149308879E+03  0.00000000000E+00 0. -1.
         -5    1    5    5    0  502 -0.29729951362E+02 -0.10479382640E+03  0.57990724859E+02  0.12349344205E+03  0.47000000000E+01 0.  1.
         11    1    6    6    0    0 -0.25562566260E+02  0.39100126203E+02 -0.15740197743E+02  0.49295217698E+02  0.00000000000E+00 0. -1.
        -12    1    6    6    0    0  0.13775186223E+02 -0.28592152657E+02  0.99207740721E+01  0.33251897799E+02  0.00000000000E+00 0.  1.
</event>
<event>
12    1  0.8251070E-002  0.1831043E+03  0.7818608E-02  0.1165084E+00
         21   -1    0    0  503  502  0.00000000000E+00  0.00000000000E+00  0.42043846477E+02  0.42043846477E+02  0.00000000000E+00 0. -1.
         21   -1    0    0  501  503 -0.00000000000E+00 -0.00000000000E+00 -0.13777776377E+04  0.13777776377E+04  0.00000000000E+00 0.  1.
          6    2    1    2  501    0 -0.60064874193E+02 -0.19246030275E+01 -0.11315525039E+04  0.11462714557E+04  0.17296152167E+03 0.  0.
         24    2    3    3    0    0  0.11136520674E+02 -0.29031300213E+02 -0.86285405704E+03  0.86694126224E+03  0.78122915551E+02 0.  0.
         -6    2    1    2    0  502  0.60064874193E+02  0.19246030275E+01 -0.20418128737E+03  0.27355002847E+03  0.17183750102E+03 0.  0.
        -24    2    5    5    0    0  0.10296083225E+03  0.63315117419E+01 -0.16576552123E+03  0.21560742627E+03  0.91473128377E+02 0.  0.
          5    1    3    3  501    0 -0.71201394867E+02  0.27106697185E+02 -0.26869844684E+03  0.27933019349E+03  0.47000000000E+01 0. -1.
        -11    1    4    4    0    0 -0.65055809299E+00  0.13905457836E+02 -0.61253054199E+03  0.61268870551E+03  0.00000000000E+00 0.  1.
         12    1    4    4    0    0  0.11787078767E+02 -0.42936758048E+02 -0.25032351505E+03  0.25425255673E+03  0.00000000000E+00 0. -1.
         -5    1    5    5    0  502 -0.42895958057E+02 -0.44069087145E+01 -0.38415766142E+02  0.57942602205E+02  0.47000000000E+01 0.  1.
         13    1    6    6    0    0  0.84536353287E+02  0.27350566165E+02 -0.62512928184E+02  0.10863845860E+03  0.00000000000E+00 0. -1.
        -14    1    6    6    0    0  0.18424478963E+02 -0.21019054423E+02 -0.10325259304E+03  0.10696896767E+03  0.00000000000E+00 0.  1.
</event>
<event>
12    1  0.8251070E-002  0.2310465E+03  0.7818608E-02  0.1126067E+00
         21   -1    0    0  503  502  0.00000000000E+00  0.00000000000E+00  0.18293780082E+03  0.18293780082E+03  0.00000000000E+00 0.  1.
         21   -1    0    0  501  503 -0.00000000000E+00 -0.00000000000E+00 -0.35559330432E+03  0.35559330432E+03  0.00000000000E+00 0. -1.
          6    2    1    2  501    0  0.11850463409E+03 -0.98604000595E+02  0.28891835785E+02  0.23193071341E+03  0.17085379836E+03 0.  0.
         24    2    3    3    0    0  0.11402425194E+03 -0.80573931602E+02  0.77236664535E+02  0.17992619746E+03  0.83151943450E+02 0.  0.
         -6    2    1    2    0  502 -0.11850463409E+03  0.98604000595E+02 -0.20154733928E+03  0.30660039173E+03  0.17209408185E+03 0.  0.
        -24    2    5    5    0    0 -0.26069580248E+02  0.65321551648E+02 -0.17561764156E+03  0.20488313749E+03  0.78670298570E+02 0.  0.
          5    1    3    3  501    0  0.44803821488E+01 -0.18030068993E+02 -0.48344828750E+02  0.52004515947E+02  0.47000000000E+01 0. -1.
        -13    1    4    4    0    0  0.19518036652E+02 -0.62147690486E+02  0.21108618435E+02  0.68475272615E+02  0.00000000000E+00 0.  1.
         14    1    4    4    0    0  0.94506215287E+02 -0.18426241116E+02  0.56128046099E+02  0.11145092484E+03  0.00000000000E+00 0. -1.
         -5    1    5    5    0  502 -0.92435053840E+02  0.33282448947E+02 -0.25929697715E+02  0.10171725424E+03  0.47000000000E+01 0.  1.
         11    1    6    6    0    0  0.22204887280E+02  0.12636431017E+02 -0.88999582860E+02  0.92594071933E+02  0.00000000000E+00 0. -1.
        -12    1    6    6    0    0 -0.48274467527E+02  0.52685120631E+02 -0.86618058704E+02  0.11228906556E+03  0.00000000000E+00 0.  1.
</event>
<event>
12    1  0.8251070E-002  0.1839989E+03  0.7818608E-02  0.1164052E+00
         21   -1    0    0  503  502  0.00000000000E+00  0.00000000000E+00  0.64087397586E+03  0.64087397586E+03  0.00000000000E+00 0. -1.
         21   -1    0    0  501  503 -0.00000000000E+00 -0.00000000000E+00 -0.10119008570E+03  0.10119008570E+03  0.00000000000E+00 0. -1.
          6    2    1    2  501    0 -0.62599376207E+02  0.18577105730E+02  0.13232865994E+02  0.18447410029E+03  0.17202265600E+03 0.  0.
         24    2    3    3    0    0 -0.65098474232E+02 -0.40557151608E+02  0.41850162970E+02  0.11856396778E+03  0.80145395505E+02 0.  0.
         -6    2    1    2    0  502  0.62599376207E+02 -0.18577105730E+02  0.52645102416E+03  0.55758996127E+03  0.17173262157E+03 0.  0.
        -24    2    5    5    0    0 -0.17404386964E+02 -0.37753078097E+02  0.33326651483E+03  0.34756457071E+03  0.89478228128E+02 0.  0.
          5    1    3    3  501    0  0.24990980247E+01  0.59134257337E+02 -0.28617296976E+02  0.65910132514E+02  0.47000000000E+01 0. -1.
        -13    1    4    4    0    0 -0.75292086857E+02 -0.31988378472E+02  0.80086753571E+01  0.82196676219E+02  0.00000000000E+00 0.  1.
         14    1    4    4    0    0  0.10193612625E+02 -0.85687731361E+01  0.33841487613E+02  0.36367291558E+02  0.00000000000E+00 0. -1.
         -5    1    5    5    0  502  0.80003763171E+02  0.19175972367E+02  0.19318450933E+03  0.21002539056E+03  0.47000000000E+01 0.  1.
         13    1    6    6    0    0  0.30970966165E+02 -0.75717048525E+01  0.20126672559E+03  0.20377641249E+03  0.00000000000E+00 0. -1.
        -14    1    6    6    0    0 -0.48375353129E+02 -0.30181373244E+02  0.13199978925E+03  0.14378815821E+03  0.00000000000E+00 0.  1.
</event>
<event>
12    1  0.8251070E-002  0.1892680E+03  0.7818608E-02  0.1159239E+00
         21   -1    0    0  503  502  0.00000000000E+00  0.00000000000E+00  0.56745412875E+03  0.56745412875E+03  0.00000000000E+00 0. -1.
         21   -1    0    0  501  503 -0.00000000000E+00 -0.00000000000E+00 -0.78637010140E+02  0.78637010140E+02  0.00000000000E+00 0. -1.
          6    2    1    2  501    0 -0.27598610492E+02  0.71174700571E+02  0.10042435473E+03  0.21426019931E+03  0.17319024419E+03 0.  0.
         24    2    3    3    0    0 -0.32805528655E+02 -0.10354323493E+02  0.10649490443E+01  0.85541609896E+02  0.78312311815E+02 0.  0.
         -6    2    1    2    0  502  0.27598610492E+02 -0.71174700571E+02  0.38839276388E+03  0.43183093958E+03  0.17263110972E+03 0.  0.
        -24    2    5    5    0    0  0.18761022410E+02 -0.11492549879E+03  0.32234485993E+03  0.35197700465E+03  0.80135864904E+02 0.  0.
          5    1    3    3  501    0  0.52069181638E+01  0.81529024064E+02  0.99359405684E+02  0.12871858941E+03  0.47000000000E+01 0. -1.
        -11    1    4    4    0    0 -0.97861749610E+01  0.87851963717E+01 -0.35749382422E+02  0.38091563885E+02  0.00000000000E+00 0.  1.
         12    1    4    4    0    0 -0.23019353694E+02 -0.19139519865E+02  0.36814331466E+02  0.47450046011E+02  0.00000000000E+00 0. -1.
         -5    1    5    5    0  502  0.88375880813E+01  0.43750798223E+02  0.66047903954E+02  0.79853934938E+02  0.47000000000E+01 0.  1.
         13    1    6    6    0    0 -0.14206749176E+02 -0.67358897167E+02  0.25014336730E+03  0.25944316710E+03  0.00000000000E+00 0. -1.
        -14    1    6    6    0    0  0.32967771587E+02 -0.47566601628E+02  0.72201492622E+02  0.92533837544E+02  0.00000000000E+00 0.  1.
</event>
<event>
12    1  0.8251070E-002  0.1787603E+03  0.7818608E-02  0.1169721E+00
         21   -1    0    0  503  502  0.00000000000E+00  0.00000000000E+00  0.96389144947E+02  0.96389144947E+02  0.00000000000E+00 0.  1.
         21   -1    0    0  501  503 -0.00000000000E+00 -0.00000000000E+00 -0.88045686444E+03  0.88045686444E+03  0.00000000000E+00 0.  1.
          6    2    1    2  501    0 -0.13444081138E+01  0.44045124718E+02 -0.77837454297E+03  0.79799506173E+03  0.17025689107E+03 0.  0.
         24    2    3    3    0    0 -0.36200443170E+01 -0.19246046526E+02 -0.19712296136E+03  0.21328449914E+03  0.79052518308E+02 0.  0.
         -6    2    1    2    0  502  0.13444081138E+01 -0.44045124718E+02 -0.56931765213E+01  0.17885094766E+03  0.17324395740E+03 0.  0.
        -24    2    5    5    0    0 -0.53635105562E+02  0.76690996503E+01  0.83354474477E+01  0.10193540816E+03  0.85940724420E+02 0.  0.
          5    1    3    3  501    0  0.22756362032E+01  0.63291171243E+02 -0.58125158162E+03  0.58471056259E+03  0.47000000000E+01 0. -1.
        -13    1    4    4    0    0 -0.21804550831E+02  0.21860380166E+02 -0.12103830658E+03  0.12491431590E+03  0.00000000000E+00 0.  1.
         14    1    4    4    0    0  0.18184506514E+02 -0.41106426691E+02 -0.76084654781E+02  0.88370183238E+02  0.00000000000E+00 0. -1.
         -5    1    5    5    0  502  0.54979513676E+02 -0.51714224368E+02 -0.14028623969E+02  0.76915539500E+02  0.47000000000E+01 0.  1.
         11    1    6    6    0    0 -0.21556980340E+02  0.28319615953E+02 -0.30956119893E+02  0.47169750985E+02  0.00000000000E+00 0. -1.
        -12    1    6    6    0    0 -0.32078125222E+02 -0.20650516303E+02  0.39291567341E+02  0.54765657172E+02  0.00000000000E+00 0.  1.
</event>
<event>
12    1  0.8251070E-002  0.1883687E+03  0.7818608E-02  0.1160093E+00
         21   -1    0    0  503  502  0.00000000000E+00  0.00000000000E+00  0.57683711858E+03  0.57683711858E+03  0.00000000000E+00 0. -1.
         21   -1    0    0  501  503 -0.00000000000E+00 -0.00000000000E+00 -0.67109422521E+03  0.67109422521E+03  0.00000000000E+00 0. -1.
          6    2    1    2  501    0  0.73657875393E+02  0.17152441904E+02 -0.64190868135E+03  0.66878971223E+03  0.17179416498E+03 0.  0.
         24    2    3    3    0    0  0.27841665909E+02 -0.52653454463E+02 -0.28215213709E+03  0.29944048811E+03  0.80667421109E+02 0.  0.
         -6    2    1    2    0  502 -0.73657875393E+02 -0.17152441904E+02  0.54765157471E+03  0.57914163157E+03  0.17251983440E+03 0.  0.
        -24    2    5    5    0    0 -0.92014833447E+02 -0.49120020145E+02  0.50797413804E+03  0.52477902541E+03  0.80472322182E+02 0.  0.
          5    1    3    3  501    0  0.45816209484E+02  0.69805896366E+02 -0.35975654426E+03  0.36934922412E+03  0.47000000000E+01 0. -1.
        -13    1    4    4    0    0  0.18624226840E+02  0.19065329451E+02 -0.99179065364E+02  0.10269778780E+03  0.00000000000E+00 0.  1.
         14    1    4    4    0    0  0.92174390688E+01 -0.71718783914E+02 -0.18297307172E+03  0.19674270031E+03  0.00000000000E+00 0. -1.
         -5    1    5    5    0  502  0.18356958055E+02  0.31967578242E+02  0.39677436668E+02  0.54362606157E+02  0.47000000000E+01 0.  1.
         11    1    6    6    0    0 -0.11830444333E+02 -0.20953835045E+02  0.26228791339E+02  0.35594551709E+02  0.00000000000E+00 0. -1.
        -12    1    6    6    0    0 -0.80184389114E+02 -0.28166185100E+02  0.48174534670E+03  0.48918447370E+03  0.00000000000E+00 0.  1.
</event>
<event>
12    1  0.8251070E-002  0.1895150E+03  0.7818608E-02  0.1160294E+00
         21   -1    0    0  501  502  0.00000000000E+00  0.00000000000E+00  0.26308854444E+03  0.26308854444E+03  0.00000000000E+00 0.  1.
         21   -1    0    0  502  503 -0.00000000000E+00 -0.00000000000E+00 -0.13292794088E+03  0.13292794088E+03  0.00000000000E+00 0.  1.
         -6    2    1    2    0  503  0.17480171635E+02  0.65691444941E+02  0.80914271375E+02  0.20606566567E+03  0.17690397654E+03 0.  0.
        -24    2    3    3    0    0  0.38901979683E+02  0.65717794957E+01 -0.14138891265E+02  0.91998920161E+02  0.81898356245E+02 0.  0.
          6    2    1    2  501    0 -0.17480171635E+02 -0.65691444941E+02  0.49246332187E+02  0.18995081966E+03  0.17039715466E+03 0.  0.
         24    2    5    5    0    0 -0.16457827251E+01 -0.11112080990E+03  0.52285181484E+02  0.14151653761E+03  0.70303963045E+02 0.  0.
          5    1    5    5  501    0 -0.15834388910E+02  0.45429364958E+02 -0.30388492977E+01  0.48434282049E+02  0.47000000000E+01 0. -1.
        -13    1    6    6    0    0  0.93357892272E+01 -0.73493528105E+01 -0.13637060248E+02  0.18086994207E+02  0.00000000000E+00 0.  1.
         14    1    6    6    0    0 -0.10981571952E+02 -0.10377145709E+03  0.65922241732E+02  0.12342954340E+03  0.00000000000E+00 0. -1.
         -5    1    3    3    0  503 -0.21421808048E+02  0.59119665445E+02  0.95053162639E+02  0.11406674551E+03  0.47000000000E+01 0.  1.
         11    1    4    4    0    0 -0.18861477736E+02 -0.78099396467E+01 -0.24164761408E+02  0.31633624414E+02  0.00000000000E+00 0. -1.
        -12    1    4    4    0    0  0.57763457419E+02  0.14381719142E+02  0.10025870143E+02  0.60365295747E+02  0.00000000000E+00 0.  1.
</event>
<event>
12    1  0.8251070E-002  0.1893000E+03  0.7818608E-02  0.1159386E+00
         21   -1    0    0  503  502  0.00000000000E+00  0.00000000000E+00  0.17551211212E+04  0.17551211212E+04  0.00000000000E+00 0. -1.
         21   -1    0    0  501  503 -0.00000000000E+00 -0.00000000000E+00 -0.25480223497E+02  0.25480223497E+02  0.00000000000E+00 0. -1.
          6    2    1    2  501    0  0.60885364717E+02 -0.51643514825E+02  0.46022991074E+03  0.49715335983E+03  0.17022283100E+03 0.  0.
         24    2    3    3    0    0  0.82050594368E+02  0.14585085581E+02  0.23805440755E+03  0.26430525768E+03  0.79008502873E+02 0.  0.
         -6    2    1    2    0  502 -0.60885364717E+02  0.51643514825E+02  0.12694109870E+04  0.12834479849E+04  0.17164030928E+03 0.  0.
        -24    2    5    5    0    0 -0.74577087262E+02  0.49953983427E+02  0.12610323441E+04  0.12666369933E+04  0.78163658216E+02 0.  0.
          5    1    3    3  501    0 -0.21165229651E+02 -0.66228600407E+02  0.22217550319E+03  0.23284810215E+03  0.47000000000E+01 0. -1.
        -11    1    4    4    0    0  0.74699118284E+02  0.38482940471E+02  0.21269813517E+03  0.22869497520E+03  0.00000000000E+00 0.  1.
         12    1    4    4    0    0  0.73514760844E+01 -0.23897854889E+02  0.25356272379E+02  0.35610282474E+02  0.00000000000E+00 0. -1.
         -5    1    5    5    0  502  0.13691722545E+02  0.16895313982E+01  0.83786429025E+01  0.16810991627E+02  0.47000000000E+01 0.  1.
         11    1    6    6    0    0 -0.22988908142E+02 -0.72114694067E+01  0.69188781759E+03  0.69230719144E+03  0.00000000000E+00 0. -1.
        -12    1    6    6    0    0 -0.51588179120E+02  0.57165452834E+02  0.56914452650E+03  0.57432980183E+03  0.00000000000E+00 0.  1.
</event>
<event>
12    1  0.8251070E-002  0.2358811E+03  0.7818608E-02  0.1122714E+00
         21   -1    0    0  503  502  0.00000000000E+00  0.00000000000E+00  0.31113788933E+03  0.31113788933E+03  0.00000000000E+00 0.  1.
         21   -1    0    0  501  503 -0.00000000000E+00 -0.00000000000E+00 -0.17839628371E+03  0.17839628371E+03  0.00000000000E+00 0.  1.
          6    2    1    2  501    0  0.10752967199E+03  0.11984625015E+03  0.75076398628E+02  0.24754059245E+03  0.17237785602E+03 0.  0.
         24    2    3    3    0    0  0.67695655242E+02  0.64993034235E+02 -0.23326831412E+02  0.12795418073E+03  0.83793407047E+02 0.  0.
         -6    2    1    2    0  502 -0.10752967199E+03 -0.11984625015E+03  0.57665206994E+02  0.24199358059E+03  0.17120123515E+03 0.  0.
        -24    2    5    5    0    0 -0.44841086511E+02 -0.14101686635E+03  0.42525672568E+02  0.17395425929E+03  0.80964015863E+02 0.  0.
          5    1    3    3  501    0  0.39834016744E+02  0.54853215911E+02  0.98403230041E+02  0.11958641172E+03  0.47000000000E+01 0. -1.
        -13    1    4    4    0    0  0.30084996824E+02  0.74274196582E+02  0.44917246049E+01  0.80261690125E+02  0.00000000000E+00 0.  1.
         14    1    4    4    0    0  0.37610658418E+02 -0.92811623468E+01 -0.27818556017E+02  0.47692490604E+02  0.00000000000E+00 0. -1.
         -5    1    5    5    0  502 -0.62688585475E+02  0.21170616202E+02  0.15139534425E+02  0.68039321292E+02  0.47000000000E+01 0.  1.
         13    1    6    6    0    0 -0.29891457882E+02 -0.34294393126E+01  0.44495583379E+01  0.30414780579E+02  0.00000000000E+00 0. -1.
        -14    1    6    6    0    0 -0.14949628630E+02 -0.13758742704E+03  0.38076114230E+02  0.14353947871E+03  0.00000000000E+00 0.  1.
</event>
<event>
12    1  0.8251070E-002  0.1888894E+03  0.7818608E-02  0.1159532E+00
         21   -1    0    0  503  502  0.00000000000E+00  0.00000000000E+00  0.65686953169E+02  0.65686953169E+02  0.00000000000E+00 0. -1.
         21   -1    0    0  501  503 -0.00000000000E+00 -0.00000000000E+00 -0.70561641081E+03  0.70561641081E+03  0.00000000000E+00 0. -1.
          6    2    1    2  501    0  0.35107688180E+02  0.68892972330E+02 -0.50528617425E+03  0.53933778998E+03  0.17202424947E+03 0.  0.
         24    2    3    3    0    0 -0.46488179073E+02  0.38626118715E+02 -0.25412152889E+03  0.27348118002E+03  0.81000472464E+02 0.  0.
         -6    2    1    2    0  502 -0.35107688180E+02 -0.68892972330E+02 -0.13464328339E+03  0.23196557400E+03  0.17233810476E+03 0.  0.
        -24    2    5    5    0    0 -0.21723025956E+02  0.15547969824E+02 -0.11812421580E+03  0.14476241185E+03  0.79304453235E+02 0.  0.
          5    1    3    3  501    0  0.81595867253E+02  0.30266853616E+02 -0.25116464536E+03  0.26585660996E+03  0.47000000000E+01 0. -1.
        -11    1    4    4    0    0 -0.19123678771E+02  0.61687720285E+02 -0.14766993983E+03  0.16117537360E+03  0.00000000000E+00 0.  1.
         12    1    4    4    0    0 -0.27364500302E+02 -0.23061601570E+02 -0.10645158906E+03  0.11230580642E+03  0.00000000000E+00 0. -1.
         -5    1    5    5    0  502 -0.13384662224E+02 -0.84440942154E+02 -0.16519067585E+02  0.87203162148E+02  0.47000000000E+01 0.  1.
         13    1    6    6    0    0 -0.10983049105E+02  0.21130080099E+02  0.21221451994E+01  0.23908390847E+02  0.00000000000E+00 0. -1.
        -14    1    6    6    0    0 -0.10739976850E+02 -0.55821102752E+01 -0.12024636100E+03  0.12085402100E+03  0.00000000000E+00 0.  1.
</event>
<event>
12    1  0.8251070E-002  0.1824152E+03  0.7818608E-02  0.1165610E+00
         21   -1    0    0  503  502  0.00000000000E+00  0.00000000000E+00  0.33331119457E+03  0.33331119457E+03  0.00000000000E+00 0. -1.
         21   -1    0    0  501  503 -0.00000000000E+00 -0.00000000000E+00 -0.22518325945E+03  0.22518325945E+03  0.00000000000E+00 0. -1.
          6    2    1    2  501    0  0.46843597741E+02 -0.37227651250E+02 -0.15448377947E+03  0.23904090613E+03  0.17232265091E+03 0.  0.
         24    2    3    3    0    0  0.39075723969E+02 -0.29426796870E+02 -0.92806903847E+01  0.93345263528E+02  0.78957953566E+02 0.  0.
         -6    2    1    2    0  502 -0.46843597741E+02  0.37227651250E+02  0.26261171460E+03  0.31945354790E+03  0.17177146432E+03 0.  0.
        -24    2    5    5    0    0 -0.77328131430E+02  0.69180305711E+02  0.16329541768E+03  0.21065972567E+03  0.83346097546E+02 0.  0.
          5    1    3    3  501    0  0.77678737725E+01 -0.78008543806E+01 -0.14520308909E+03  0.14569564260E+03  0.47000000000E+01 0. -1.
        -11    1    4    4    0    0  0.74121672352E+01 -0.52931596345E+02 -0.51882963219E+01  0.53699278705E+02  0.00000000000E+00 0.  1.
         12    1    4    4    0    0  0.31663556733E+02  0.23504799475E+02 -0.40923940628E+01  0.39645984822E+02  0.00000000000E+00 0. -1.
         -5    1    5    5    0  502  0.30484533688E+02 -0.31952654461E+02  0.99316296913E+02  0.10879382222E+03  0.47000000000E+01 0.  1.
         11    1    6    6    0    0 -0.81962252971E+02  0.20932712049E+02  0.10187198130E+03  0.13241559546E+03  0.00000000000E+00 0. -1.
        -12    1    6    6    0    0  0.46341215409E+01  0.48247593662E+02  0.61423436382E+02  0.78244130218E+02  0.00000000000E+00 0.  1.
</event>
<event>
12    1  0.8251070E-002  0.2314134E+03  0.7818608E-02  0.1126715E+00
         21   -1    0    0  501  502  0.00000000000E+00  0.00000000000E+00  0.23882154400E+04  0.23882154400E+04  0.00000000000E+00 0. -1.
         21   -1    0    0  502  503 -0.00000000000E+00 -0.00000000000E+00 -0.22489248965E+02  0.22489248965E+02  0.00000000000E+00 0. -1.
         -6    2    1    2    0  503  0.14361287863E+03 -0.19043863625E+02  0.96356362442E+03  0.98957413783E+03  0.17266959284E+03 0.  0.
        -24    2    3    3    0    0  0.57686683640E+02 -0.65096899249E+02  0.37818432728E+03  0.39611377301E+03  0.79481922545E+02 0.  0.
          6    2    1    2  501    0 -0.14361287863E+03  0.19043863625E+02  0.14021625666E+04  0.14211305511E+04  0.18045734267E+03 0.  0.
         24    2    5    5    0    0 -0.59537077391E+02  0.32975615894E+02  0.33388419115E+03  0.34944794348E+03  0.77480044375E+02 0.  0.
          5    1    5    5  501    0 -0.84075801244E+02 -0.13931752268E+02  0.10682783755E+04  0.10716826076E+04  0.47000000000E+01 0. -1.
        -13    1    6    6    0    0  0.18873463012E+02  0.26984056850E+01  0.63509621102E+02  0.66309584313E+02  0.00000000000E+00 0.  1.
         14    1    6    6    0    0 -0.78410540403E+02  0.30277210209E+02  0.27037457004E+03  0.28313835917E+03  0.00000000000E+00 0. -1.
         -5    1    3    3    0  503  0.85926194995E+02  0.46053035623E+02  0.58537929715E+03  0.59346036481E+03  0.47000000000E+01 0.  1.
         13    1    4    4    0    0  0.49800345278E+00 -0.32516683697E+02  0.39842877585E+02  0.51429929227E+02  0.00000000000E+00 0. -1.
        -14    1    4    4    0    0  0.57188680187E+02 -0.32580215552E+02  0.33834144969E+03  0.34468384379E+03  0.00000000000E+00 0.  1.
</event>
<event>
12    1  0.8251070E-002  0.1958780E+03  0.7818608E-02  0.1153811E+00
         21   -1    0    0  501  502  0.00000000000E+00  0.00000000000E+00  0.21116622347E+03  0.21116622347E+03  0.00000000000E+00 0.  1.
         21   -1    0    0  502  503 -0.00000000000E+00 -0.00000000000E+00 -0.40881383765E+03  0.40881383765E+03  0.00000000000E+00 0.  1.
         -6    2    1    2    0  503 -0.79943869104E+02 -0.37404774932E+02 -0.33132741756E+03  0.38489742659E+03  0.17486575413E+03 0.  0.
        -24    2    3    3    0    0 -0.13138481791E+02  0.42282366470E+02 -0.14274203389E+03  0.16949190852E+03  0.79948737299E+02 0.  0.
          6    2    1    2  501    0  0.79943869104E+02  0.37404774932E+02  0.13367980339E+03  0.23508263453E+03  0.17205643211E+03 0.  0.
         24    2    5    5    0    0  0.87455709567E+02  0.56067258398E+02  0.15666632042E+03  0.20417655096E+03  0.79697486846E+02 0.  0.
          5    1    5    5  501    0 -0.75118404628E+01 -0.18662483466E+02 -0.22986517035E+02  0.30906083570E+02  0.47000000000E+01 0. -1.
        -13    1    6    6    0    0  0.26537708166E+02  0.33677856563E+02  0.10345456968E+02  0.44107555557E+02  0.00000000000E+00 0.  1.
         14    1    6    6    0    0  0.60918001401E+02  0.22389401835E+02  0.14632086345E+03  0.16006899541E+03  0.00000000000E+00 0. -1.
         -5    1    3    3    0  503 -0.66805387313E+02 -0.79687141402E+02 -0.18858538367E+03  0.21540551807E+03  0.47000000000E+01 0.  1.
         11    1    4    4    0    0  0.25446207042E+02  0.84884805973E+01 -0.12658304514E+02  0.29661362559E+02  0.00000000000E+00 0. -1.
        -12    1    4    4    0    0 -0.38584688833E+02  0.33793885873E+02 -0.13008372938E+03  0.13983054596E+03  0.00000000000E+00 0.  1.
</event>
<event>
12    1  0.8251070E-002  0.1831540E+03  0.7818608E-02  0.1165006E+00
         21   -1    0    0  503  502  0.00000000000E+00  0.00000000000E+00  0.86804983816E+02  0.86804983816E+02  0.00000000000E+00 0.  1.
         21   -1    0    0  501  503 -0.00000000000E+00 -0.00000000000E+00 -0.65431430738E+03  0.65431430738E+03  0.00000000000E+00 0.  1.
          6    2    1    2  501    0 -0.51707139726E+02  0.33214340319E+02 -0.52129259438E+03  0.55222416014E+03  0.17154804977E+03 0.  0.
         24    2    3    3    0    0 -0.10206947066E+03  0.27502521490E+02 -0.38155390413E+03  0.40350300897E+03  0.77825002148E+02 0.  0.
         -6    2    1    2    0  502  0.51707139726E+02 -0.33214340319E+02 -0.46216729177E+02  0.18889513106E+03  0.17253568842E+03 0.  0.
        -24    2    5    5    0    0 -0.29630916477E+02 -0.31544487324E+02  0.57530520229E+01  0.92243095620E+02  0.81256662435E+02 0.  0.
          5    1    3    3  501    0  0.50362330936E+02  0.57118188289E+01 -0.13973869025E+03  0.14872115117E+03  0.47000000000E+01 0. -1.
        -13    1    4    4    0    0 -0.24027808890E+02 -0.10834771879E+02 -0.20512889442E+03  0.20681535535E+03  0.00000000000E+00 0.  1.
         14    1    4    4    0    0 -0.78041661772E+02  0.38337293369E+02 -0.17642500971E+03  0.19668765362E+03  0.00000000000E+00 0. -1.
         -5    1    5    5    0  502  0.81338056203E+02 -0.16698529949E+01 -0.51969781199E+02  0.96652035436E+02  0.47000000000E+01 0.  1.
         11    1    6    6    0    0 -0.44883560127E+02  0.43753037249E+01 -0.15650469852E+02  0.47734834859E+02  0.00000000000E+00 0. -1.
        -12    1    6    6    0    0  0.15252643650E+02 -0.35919791049E+02  0.21403521875E+02  0.44508260761E+02  0.00000000000E+00 0.  1.
</event>
<event>
12    1  0.8251070E-002  0.2083588E+03  0.7818608E-02  0.1142995E+00
         21   -1    0    0  501  502  0.00000000000E+00  0.00000000000E+00  0.20420087436E+03  0.20420087436E+03  0.00000000000E+00 0. -1.
         21   -1    0    0  502  503 -0.00000000000E+00 -0.00000000000E+00 -0.27546191482E+03  0.27546191482E+03  0.00000000000E+00 0.  1.
         -6    2    1    2    0  503  0.98224046867E+02  0.61822185733E+02 -0.15072763117E+03  0.25666427192E+03  0.17230143253E+03 0.  0.
        -24    2    3    3    0    0  0.74585716634E+02  0.96642411811E+02 -0.15747127553E+03  0.21378320921E+03  0.77480791402E+02 0.  0.
          6    2    1    2  501    0 -0.98224046867E+02 -0.61822185733E+02  0.79466590712E+02  0.22299851726E+03  0.17304176845E+03 0.  0.
         24    2    5    5    0    0 -0.13223053472E+03 -0.35297239774E+02  0.83541052463E+02  0.17942438258E+03  0.80518272277E+02 0.  0.
          5    1    5    5  501    0  0.34006487852E+02 -0.26524945959E+02 -0.40744617514E+01  0.43574134675E+02  0.47000000000E+01 0. -1.
        -13    1    6    6    0    0 -0.11560753326E+03  0.29167245719E+01  0.50265051540E+02  0.12609593346E+03  0.00000000000E+00 0.  1.
         14    1    6    6    0    0 -0.16623001461E+02 -0.38213964346E+02  0.33276000923E+02  0.53328449125E+02  0.00000000000E+00 0. -1.
         -5    1    3    3    0  503  0.23638330233E+02 -0.34820226079E+02  0.67436443568E+01  0.42881062715E+02  0.47000000000E+01 0.  1.
         11    1    4    4    0    0  0.50879868775E+02  0.50907488744E+02 -0.33209050002E+02  0.79266477522E+02  0.00000000000E+00 0. -1.
        -12    1    4    4    0    0  0.23705847859E+02  0.45734923067E+02 -0.12426222553E+03  0.13451673169E+03  0.00000000000E+00 0.  1.
</event>
<event>
12    1  0.8251070E-002  0.2911527E+03  0.7818608E-02  0.1089799E+00
         21   -1    0    0  501  502  0.00000000000E+00  0.00000000000E+00  0.13002453858E+04  0.13002453858E+04  0.00000000000E+00 0. -1.
         21   -1    0    0  502  503 -0.00000000000E+00 -0.00000000000E+00 -0.15977069314E+03  0.15977069314E+03  0.00000000000E+00 0.  1.
         -6    2    1    2    0  503 -0.21815698232E+03 -0.85528707884E+02  0.84814225639E+01  0.29127625137E+03  0.17280709266E+03 0.  0.
        -24    2    3    3    0    0 -0.65110231874E+02 -0.14101418950E+02  0.51603930919E+02  0.11690077673E+03  0.81022426548E+02 0.  0.
          6    2    1    2  501    0  0.21815698232E+03  0.85528707884E+02  0.11319932701E+04  0.11687398275E+04  0.17215223558E+03 0.  0.
         24    2    5    5    0    0  0.16365440960E+03  0.33593946089E+02  0.99738976812E+03  0.10144416012E+04  0.79963077179E+02 0.  0.
          5    1    5    5  501    0  0.54502572725E+02  0.51934761795E+02  0.13460350194E+03  0.15429822634E+03  0.47000000000E+01 0. -1.
        -13    1    6    6    0    0  0.13886884677E+01  0.18921279300E+02  0.17817141182E+03  0.17917866853E+03  0.00000000000E+00 0.  1.
         14    1    6    6    0    0  0.16226572113E+03  0.14672666789E+02  0.81921835630E+03  0.83526293268E+03  0.00000000000E+00 0. -1.
         -5    1    3    3    0  503 -0.15304675045E+03 -0.71427288933E+02 -0.43122508355E+02  0.17437547463E+03  0.47000000000E+01 0.  1.
         13    1    4    4    0    0 -0.17055561301E+02 -0.35494400275E+02  0.50822377689E+02  0.64293535415E+02  0.00000000000E+00 0. -1.
        -14    1    4    4    0    0 -0.48054670573E+02  0.21392981324E+02  0.78155322973E+00  0.52607241320E+02  0.00000000000E+00 0.  1.
</event>
<event>
12    1  0.8251070E-002  0.1821917E+03  0.7818608E-02  0.1165885E+00
         21   -1    0    0  501  502  0.00000000000E+00  0.00000000000E+00  0.51713635797E+02  0.51713635797E+02  0.00000000000E+00 0.  1.
         21   -1    0    0  502  503 -0.00000000000E+00 -0.00000000000E+00 -0.78445681150E+03  0.78445681150E+03  0.00000000000E+00 0.  1.
         -6    2    1    2    0  503  0.33446445751E+02 -0.47850198951E+02 -0.54568318031E+03  0.57504738313E+03  0.17175870662E+03 0.  0.
        -24    2    3    3    0    0  0.35309909780E+02 -0.97103451490E+02 -0.42566122354E+03  0.44521396874E+03  0.79700255469E+02 0.  0.
          6    2    1    2  501    0 -0.33446445751E+02  0.47850198951E+02 -0.18705999539E+03  0.26112306416E+03  0.17258478058E+03 0.  0.
         24    2    5    5    0    0 -0.87162650310E+02  0.44848768378E+02 -0.11007637669E+03  0.16708580152E+03  0.78690003997E+02 0.  0.
          5    1    5    5  501    0  0.53716204559E+02  0.30014305729E+01 -0.76983618704E+02  0.94037262649E+02  0.47000000000E+01 0. -1.
        -11    1    6    6    0    0 -0.22304439481E+01  0.22771602965E+02  0.39310484700E+01  0.23215811937E+02  0.00000000000E+00 0.  1.
         12    1    6    6    0    0 -0.84932206362E+02  0.22077165413E+02 -0.11400742516E+03  0.14386998958E+03  0.00000000000E+00 0. -1.
         -5    1    3    3    0  503 -0.18634640292E+01  0.49253252539E+02 -0.12002195677E+03  0.12983341439E+03  0.47000000000E+01 0.  1.
         13    1    4    4    0    0  0.97515217775E+01  0.13454694744E+02 -0.67021553537E+02  0.69050775710E+02  0.00000000000E+00 0. -1.
        -14    1    4    4    0    0  0.25558388002E+02 -0.11055814623E+03 -0.35863967000E+03  0.37616319303E+03  0.00000000000E+00 0.  1.
</event>
<event>
12    1  0.8251070E-002  0.1730976E+03  0.7818608E-02  0.1174713E+00
         21   -1    0    0  501  502  0.00000000000E+00  0.00000000000E+00  0.33565108351E+03  0.33565108351E+03  0.00000000000E+00 0. -1.
         21   -1    0    0  502  503 -0.00000000000E+00 -0.00000000000E+00 -0.22161739548E+03  0.22161739548E+03  0.00000000000E+00 0. -1.
         -6    2    1    2    0  503 -0.32806422346E+01  0.22254902405E+02 -0.15838812815E+03  0.23462648103E+03  0.17162966867E+03 0.  0.
        -24    2    3    3    0    0 -0.60838772466E+02  0.28374404181E+02 -0.68781961545E+02  0.12784754232E+03  0.84306422033E+02 0.  0.
          6    2    1    2  501    0  0.32806422346E+01 -0.22254902405E+02  0.27242181618E+03  0.32264199797E+03  0.17140061152E+03 0.  0.
         24    2    5    5    0    0  0.12974719888E+02 -0.73829242141E+02  0.12782938209E+03  0.16874934169E+03  0.80727250942E+02 0.  0.
          5    1    5    5  501    0 -0.96940776532E+01  0.51574339735E+02  0.14459243408E+03  0.15389265627E+03  0.47000000000E+01 0. -1.
        -11    1    6    6    0    0  0.29940492677E+02  0.11878314770E+01  0.55998171449E+02  0.63510938042E+02  0.00000000000E+00 0.  1.
         12    1    6    6    0    0 -0.16965772790E+02 -0.75017073618E+02  0.71831210643E+02  0.10523840365E+03  0.00000000000E+00 0. -1.
         -5    1    3    3    0  503  0.57558130231E+02 -0.61195017760E+01 -0.89606166603E+02  0.10677893870E+03  0.47000000000E+01 0.  1.
         11    1    4    4    0    0 -0.38704483301E+02  0.31366675807E+02 -0.86174625985E+02  0.99538794158E+02  0.00000000000E+00 0. -1.
        -12    1    4    4    0    0 -0.22134289164E+02 -0.29922716252E+01  0.17392664440E+02  0.28308748164E+02  0.00000000000E+00 0.  1.
</event>
<event>
12    1  0.8251070E-002  0.1820459E+03  0.7818608E-02  0.1167257E+00
         21   -1    0    0  503  502  0.00000000000E+00  0.00000000000E+00  0.32076494227E+03  0.32076494227E+03  0.00000000000E+00 0.  1.
         21   -1    0    0  501  503 -0.00000000000E+00 -0.00000000000E+00 -0.10286288195E+03  0.10286288195E+03  0.00000000000E+00 0.  1.
          6    2    1    2  501    0  0.48325152844E+01  0.53906675823E+02  0.75492878155E+02  0.19707836725E+03  0.17381434142E+03 0.  0.
         24    2    3    3    0    0 -0.43180155466E+02  0.84071115791E+02  0.42363688561E+02  0.13123960060E+03  0.80601937448E+02 0.  0.
         -6    2    1    2    0  502 -0.48325152844E+01 -0.53906675823E+02  0.14240918216E+03  0.22654945697E+03  0.16767527661E+03 0.  0.
        -24    2    5    5    0    0  0.20718119404E+02  0.11321415558E+02  0.12755325718E+03  0.15478367581E+03  0.84443696965E+02 0.  0.
          5    1    3    3  501    0  0.48012670751E+02 -0.30164439969E+02  0.33129189594E+02  0.65838766653E+02  0.47000000000E+01 0. -1.
        -13    1    4    4    0    0 -0.25896572690E+02  0.96368105914E+02  0.22745467303E+02  0.10234647330E+03  0.00000000000E+00 0.  1.
         14    1    4    4    0    0 -0.17283582777E+02 -0.12296990123E+02  0.19618221258E+02  0.28893127297E+02  0.00000000000E+00 0. -1.
         -5    1    5    5    0  502 -0.25550634688E+02 -0.65228091381E+02  0.14855924982E+02  0.71765781158E+02  0.47000000000E+01 0.  1.
         11    1    6    6    0    0 -0.19666336499E+02  0.35377037702E+02  0.64248105911E+02  0.75934963627E+02  0.00000000000E+00 0. -1.
        -12    1    6    6    0    0  0.40384455903E+02 -0.24055622144E+02  0.63305151269E+02  0.78848712180E+02  0.00000000000E+00 0.  1.
</event>
<event>
12    1  0.8251070E-002  0.2219135E+03  0.7818608E-02  0.1132845E+00
         21   -1    0    0  501  502  0.00000000000E+00  0.00000000000E+00  0.19804691903E+03  0.19804691903E+03  0.00000000000E+00 0. -1.
         21   -1    0    0  502  503 -0.00000000000E+00 -0.00000000000E+00 -0.65651989527E+03  0.65651989527E+03  0.00000000000E+00 0.  1.
         -6    2    1    2    0  503 -0.10498148695E+03 -0.89237081138E+02 -0.56656491929E+03  0.60772784871E+03  0.17132705879E+03 0.  0.
        -24    2    3    3    0    0 -0.35320613050E+02 -0.85251115848E+02 -0.19841215598E+03  0.23299184510E+03  0.80015734584E+02 0.  0.
          6    2    1    2  501    0  0.10498148695E+03  0.89237081138E+02  0.10809194306E+03  0.24683896559E+03  0.17395757393E+03 0.  0.
         24    2    5    5    0    0  0.55672405225E+01  0.24843319680E+02 -0.53672709325E+01  0.82751086250E+02  0.78554121334E+02 0.  0.
          5    1    5    5  501    0  0.99414246432E+02  0.64393761458E+02  0.11345921399E+03  0.16408787934E+03  0.47000000000E+01 0. -1.
        -11    1    6    6    0    0 -0.56127596851E+01  0.23488699936E+02  0.34056659584E+02  0.41750187520E+02  0.00000000000E+00 0.  1.
         12    1    6    6    0    0  0.11180000208E+02  0.13546197441E+01 -0.39423930516E+02  0.41000898730E+02  0.00000000000E+00 0. -1.
         -5    1    3    3    0  503 -0.69660873905E+02 -0.39859652899E+01 -0.36815276330E+03  0.37473600361E+03  0.47000000000E+01 0.  1.
         11    1    4    4    0    0 -0.58629194895E+02 -0.54415676381E+02 -0.15785489827E+03  0.17696501699E+03  0.00000000000E+00 0. -1.
        -12    1    4    4    0    0  0.23308581846E+02 -0.30835439467E+02 -0.40557257713E+02  0.56026828109E+02  0.00000000000E+00 0.  1.
</event>
<event>
12    1  0.8251070E-002  0.2081318E+03  0.7818608E-02  0.1144129E+00
         21   -1    0    0  503  502  0.00000000000E+00  0.00000000000E+00  0.18005674826E+03  0.18005674826E+03  0.00000000000E+00 0.  1.
         21   -1    0    0  501  503 -0.00000000000E+00 -0.00000000000E+00 -0.31992630110E+03  0.31992630110E+03  0.00000000000E+00 0.  1.
          6    2    1    2  501    0 -0.62439111700E+02 -0.97149465133E+02 -0.19976586722E+03  0.28848788807E+03  0.17315368495E+03 0.  0.
         24    2    3    3    0    0 -0.91288121429E+02 -0.10716462250E+03 -0.12662253089E+03  0.20908633652E+03  0.88690773829E+02 0.  0.
         -6    2    1    2    0  502  0.62439111700E+02  0.97149465133E+02  0.59896314378E+02  0.21149516128E+03  0.16675123245E+03 0.  0.
        -24    2    5    5    0    0  0.65190635690E+02  0.41637220778E+02  0.94474875997E+02  0.14586782642E+03  0.79802527860E+02 0.  0.
          5    1    3    3  501    0  0.28849009728E+02  0.10015157365E+02 -0.73143336326E+02  0.79401551548E+02  0.47000000000E+01 0. -1.
        -13    1    4    4    0    0 -0.40847330680E+02 -0.43562434102E+02 -0.11154149007E+03  0.12652151634E+03  0.00000000000E+00 0.  1.
         14    1    4    4    0    0 -0.50440790749E+02 -0.63602188396E+02 -0.15081040818E+02  0.82564820186E+02  0.00000000000E+00 0. -1.
         -5    1    5    5    0  502 -0.27515239901E+01  0.55512244356E+02 -0.34578561619E+02  0.65627334863E+02  0.47000000000E+01 0.  1.
         11    1    6    6    0    0  0.30380952089E+02 -0.17732522879E+02  0.93433414004E+01  0.36397014246E+02  0.00000000000E+00 0. -1.
        -12    1    6    6    0    0  0.34809683601E+02  0.59369743657E+02  0.85131534597E+02  0.10947081217E+03  0.00000000000E+00 0.  1.
</event>
<event>
12    1  0.8251070E-002  0.2510819E+03  0.7818608E-02  0.1112843E+00
         21   -1    0    0  501  502  0.00000000000E+00  0.00000000000E+00  0.14709942615E+03  0.14709942615E+03  0.00000000000E+00 0.  1.
         21   -1    0    0  502  503 -0.00000000000E+00 -0.00000000000E+00 -0.45643911350E+03  0.45643911350E+03  0.00000000000E+00 0.  1.
         -6    2    1    2    0  503  0.15778028502E+03 -0.90574354219E+02 -0.76586032370E+02  0.26116974569E+03  0.17101427931E+03 0.  0.
        -24    2    3    3    0    0  0.30552481305E+02 -0.13574130493E+02 -0.64465293266E+02  0.11188829738E+03  0.85120537611E+02 0.  0.
          6    2    1    2  501    0 -0.15778028502E+03  0.90574354219E+02 -0.23275365498E+03  0.34236879395E+03  0.17304275535E+03 0.  0.
         24    2    5    5    0    0 -0.16041478568E+03  0.94650743160E+02 -0.25106655279E+03  0.32284932247E+03  0.80657327296E+02 0.  0.
          5    1    5    5  501    0  0.26345006520E+01 -0.40763889413E+01  0.18312897810E+02  0.19519471476E+02  0.47000000000E+01 0. -1.
        -11    1    6    6    0    0 -0.40378740143E+01  0.19962526889E+02 -0.67055917414E+02  0.70080688971E+02  0.00000000000E+00 0.  1.
         12    1    6    6    0    0 -0.15637691166E+03  0.74688216271E+02 -0.18401063538E+03  0.25276863350E+03  0.00000000000E+00 0. -1.
         -5    1    3    3    0  503  0.12722780372E+03 -0.77000223726E+02 -0.12120739104E+02  0.14928144831E+03  0.47000000000E+01 0.  1.
         11    1    4    4    0    0  0.57096943821E+02 -0.72638328191E+01 -0.61835670040E+02  0.84477655923E+02  0.00000000000E+00 0. -1.
        -12    1    4    4    0    0 -0.26544462516E+02 -0.63102976735E+01 -0.26296232256E+01  0.27410641461E+02  0.00000000000E+00 0.  1.
</event>
<event>
12    1  0.8251070E-002  0.3484415E+03  0.7818608E-02  0.1063349E+00
         21   -1    0    0  501  502  0.00000000000E+00  0.00000000000E+00  0.84433060679E+03  0.84433060679E+03  0.00000000000E+00 0. -1.
         21   -1    0    0  502  503 -0.00000000000E+00 -0.00000000000E+00 -0.14913288823E+03  0.14913288823E+03  0.00000000000E+00 0.  1.
         -6    2    1    2    0  503 -0.23398109514E+03  0.19169795443E+03  0.44432086430E+03  0.56410271662E+03  0.17115953328E+03 0.  0.
        -24    2    3    3    0    0 -0.97140817345E+02  0.14758651891E+03  0.18588562054E+03  0.26832924657E+03  0.78924024742E+02 0.  0.
          6    2    1    2  501    0  0.23398109514E+03 -0.19169795443E+03  0.25087685425E+03  0.42936077840E+03  0.17296306950E+03 0.  0.
         24    2    5    5    0    0  0.19136846250E+03 -0.21472288750E+03  0.20355754776E+03  0.36148448821E+03  0.80669406261E+02 0.  0.
          5    1    5    5  501    0  0.42612632644E+02  0.23024933069E+02  0.47319306490E+02  0.67876290193E+02  0.47000000000E+01 0. -1.
        -13    1    6    6    0    0  0.43583069772E+02 -0.10234187902E+03  0.95902413462E+02  0.14686938783E+03  0.00000000000E+00 0.  1.
         14    1    6    6    0    0  0.14778539272E+03 -0.11238100848E+03  0.10765513430E+03  0.21461510038E+03  0.00000000000E+00 0. -1.
         -5    1    3    3    0  503 -0.13684027779E+03  0.44111435520E+02  0.25843524376E+03  0.29577347005E+03  0.47000000000E+01 0.  1.
         13    1    4    4    0    0  0.85456728341E+01  0.52937045781E+01 -0.17603902033E+01  0.10205430222E+02  0.00000000000E+00 0. -1.
        -14    1    4    4    0    0 -0.10568649018E+03  0.14229281434E+03  0.18764601075E+03  0.25812381635E+03  0.00000000000E+00 0.  1.
</event>
<event>
12    1  0.8251070E-002  0.2450290E+03  0.7818608E-02  0.1116902E+00
         21   -1    0    0  503  502  0.00000000000E+00  0.00000000000E+00  0.60928443100E+03  0.60928443100E+03  0.00000000000E+00 0. -1.
         21   -1    0    0  501  503 -0.00000000000E+00 -0.00000000000E+00 -0.98128659648E+02  0.98128659648E+02  0.00000000000E+00 0.  1.
          6    2    1    2  501    0  0.65370379736E+01 -0.17247250145E+03  0.22902892162E+03  0.33540042423E+03  0.17392441178E+03 0.  0.
         24    2    3    3    0    0 -0.56792962977E+02 -0.10587006360E+03  0.19104839623E+03  0.23584549438E+03  0.68481358822E+02 0.  0.
         -6    2    1    2    0  502 -0.65370379736E+01  0.17247250145E+03  0.28212684974E+03  0.37201266642E+03  0.17031843122E+03 0.  0.
        -24    2    5    5    0    0  0.89208121652E+01  0.50666730929E+02  0.45617993909E+02  0.10549039765E+03  0.80003275660E+02 0.  0.
          5    1    3    3  501    0  0.63330000950E+02 -0.66602437854E+02  0.37980525382E+02  0.99554929846E+02  0.47000000000E+01 0. -1.
        -13    1    4    4    0    0 -0.53798923985E+01  0.10093076844E+02  0.16097919783E+02  0.19747315355E+02  0.00000000000E+00 0.  1.
         14    1    4    4    0    0 -0.51413070578E+02 -0.11596314044E+03  0.17495047645E+03  0.21609817902E+03  0.00000000000E+00 0. -1.
         -5    1    5    5    0  502 -0.15457850139E+02  0.12180577052E+03  0.23650885583E+03  0.26652226877E+03  0.47000000000E+01 0.  1.
         11    1    6    6    0    0 -0.10709028522E+02  0.35995787972E+02  0.64443518118E+02  0.74587848012E+02  0.00000000000E+00 0. -1.
        -12    1    6    6    0    0  0.19629840687E+02  0.14670942957E+02 -0.18825524210E+02  0.30902549642E+02  0.00000000000E+00 0.  1.
</event>
<event>
12    1  0.8251070E-002  0.2021303E+03  0.7818608E-02  0.1148187E+00
         21   -1    0    0  503  502  0.00000000000E+00  0.00000000000E+00  0.47709840228E+02  0.47709840228E+02  0.00000000000E+00 0. -1.
         21   -1    0    0  501  503 -0.00000000000E+00 -0.00000000000E+00 -0.87492020603E+03  0.87492020603E+03  0.00000000000E+00 0.  1.
          6    2    1    2  501    0  0.95861129613E+02  0.43598616267E+02 -0.48775944111E+03  0.52755590356E+03  0.17121846708E+03 0.  0.
         24    2    3    3    0    0  0.77318634924E+02  0.51278956483E+02 -0.49149769751E+03  0.50660652896E+03  0.80451760987E+02 0.  0.
         -6    2    1    2    0  502 -0.95861129613E+02 -0.43598616267E+02 -0.33945092469E+03  0.39507414270E+03  0.17252956978E+03 0.  0.
        -24    2    5    5    0    0 -0.71544323709E+02  0.21745481970E+02 -0.28760581391E+03  0.30806170833E+03  0.81200096692E+02 0.  0.
          5    1    3    3  501    0  0.18542494690E+02 -0.76803402155E+01  0.37382563923E+01  0.20949374597E+02  0.47000000000E+01 0. -1.
        -11    1    4    4    0    0  0.20435940752E+02 -0.21974392188E+02 -0.12632052392E+03  0.12983595939E+03  0.00000000000E+00 0.  1.
         12    1    4    4    0    0  0.56882694172E+02  0.73253348671E+02 -0.36517717358E+03  0.37677056957E+03  0.00000000000E+00 0. -1.
         -5    1    5    5    0  502 -0.24316805904E+02 -0.65344098238E+02 -0.51845110780E+02  0.87012434374E+02  0.47000000000E+01 0.  1.
         13    1    6    6    0    0 -0.76915119686E+02  0.33183753305E+02 -0.16735845320E+03  0.18715220805E+03  0.00000000000E+00 0. -1.
        -14    1    6    6    0    0  0.53707959769E+01 -0.11438271335E+02 -0.12024736071E+03  0.12090950028E+03  0.00000000000E+00 0.  1.
</event>
<event>
12    1  0.8251070E-002  0.1784618E+03  0.7818608E-02  0.1169722E+00
         21   -1    0    0  501  502  0.00000000000E+00  0.00000000000E+00  0.37422786245E+03  0.37422786245E+03  0.00000000000E+00 0. -1.
         21   -1    0    0  502  503 -0.00000000000E+00 -0.00000000000E+00 -0.96628733940E+02  0.96628733940E+02  0.00000000000E+00 0. -1.
         -6    2    1    2    0  503  0.33134339783E+02 -0.34520047026E+02  0.55254806864E+02  0.18681997027E+03  0.17192757048E+03 0.  0.
        -24    2    3    3    0    0  0.52198619771E+02  0.37014725545E+02  0.45996933486E+02  0.11206390913E+03  0.79673182605E+02 0.  0.
          6    2    1    2  501    0 -0.33134339783E+02  0.34520047026E+02  0.22234432165E+03  0.28403662612E+03  0.17014784597E+03 0.  0.
         24    2    5    5    0    0  0.46290935207E+01  0.82769888653E+02  0.14036616506E+03  0.18158355262E+03  0.79985269349E+02 0.  0.
          5    1    5    5  501    0 -0.37763433304E+02 -0.48249841628E+02  0.81978156584E+02  0.10245307350E+03  0.47000000000E+01 0. -1.
        -11    1    6    6    0    0  0.39954132125E+01  0.78183240730E+01  0.91914205028E+02  0.92332608563E+02  0.00000000000E+00 0.  1.
         12    1    6    6    0    0  0.63368030820E+00  0.74951564580E+02  0.48451960035E+02  0.89250944057E+02  0.00000000000E+00 0. -1.
         -5    1    3    3    0  503 -0.19064279988E+02 -0.71534772571E+02  0.92578733785E+01  0.74756061143E+02  0.47000000000E+01 0.  1.
         13    1    4    4    0    0  0.64634911220E+02  0.21612880502E+01  0.23799275391E+02  0.68911163273E+02  0.00000000000E+00 0. -1.
        -14    1    4    4    0    0 -0.12436291449E+02  0.34853437495E+02  0.22197658095E+02  0.43152745858E+02  0.00000000000E+00 0.  1.
</event>
<event>
12    1  0.8251070E-002  0.1761083E+03  0.7818608E-02  0.1171626E+00
         21   -1    0    0  503  502  0.00000000000E+00  0.00000000000E+00  0.23904452686E+02  0.23904452686E+02  0.00000000000E+00 0.  1.
         21   -1    0    0  501  503 -0.00000000000E+00 -0.00000000000E+00 -0.14580550808E+04  0.14580550808E+04  0.00000000000E+00 0.  1.
          6    2    1    2  501    0  0.34950444642E+02 -0.17817801541E+02 -0.96310130367E+03  0.97907009392E+03  0.17168319675E+03 0.  0.
         24    2    3    3    0    0  0.15273989444E+02 -0.71234071253E+02 -0.77343180885E+03  0.78098660641E+03  0.80222994137E+02 0.  0.
         -6    2    1    2    0  502 -0.34950444642E+02  0.17817801541E+02 -0.47104932449E+03  0.50288943961E+03  0.17167211404E+03 0.  0.
        -24    2    5    5    0    0 -0.39926348077E+02 -0.22210237116E+02 -0.11820135173E+03  0.14771232129E+03  0.75894416187E+02 0.  0.
          5    1    3    3  501    0  0.19676455199E+02  0.53416269712E+02 -0.18966949482E+03  0.19808348751E+03  0.47000000000E+01 0. -1.
        -13    1    4    4    0    0  0.19856890538E+02 -0.18669288727E+02 -0.57542617648E+03  0.57607128293E+03  0.00000000000E+00 0.  1.
         14    1    4    4    0    0 -0.45829010940E+01 -0.52564782526E+02 -0.19800563238E+03  0.20491532348E+03  0.00000000000E+00 0. -1.
         -5    1    5    5    0  502  0.49759034344E+01  0.40028038657E+02 -0.35284797276E+03  0.35517711831E+03  0.47000000000E+01 0.  1.
         13    1    6    6    0    0 -0.15488307119E+02  0.17108504480E+02 -0.91295030443E+02  0.94166720059E+02  0.00000000000E+00 0. -1.
        -14    1    6    6    0    0 -0.24438040958E+02 -0.39318741596E+02 -0.26906321283E+02  0.53545601234E+02  0.00000000000E+00 0.  1.
</event>
<event>
12    1  0.8251070E-002  0.2714915E+03  0.7818608E-02  0.1100648E+00
         21   -1    0    0  503  502  0.00000000000E+00  0.00000000000E+00  0.65567136745E+02  0.65567136745E+02  0.00000000000E+00 0. -1.
         21   -1    0    0  501  503 -0.00000000000E+00 -0.00000000000E+00 -0.12020061426E+04  0.12020061426E+04  0.00000000000E+00 0. -1.
          6    2    1    2  501    0  0.91722236657E+02 -0.19079829395E+03 -0.73746874241E+03  0.78585482459E+03  0.16997264964E+03 0.  0.
         24    2    3    3    0    0  0.61946285796E+02 -0.50254998032E+02 -0.19934817369E+03  0.22886751615E+03  0.79232180620E+02 0.  0.
         -6    2    1    2    0  502 -0.91722236657E+02  0.19079829395E+03 -0.39897026343E+03  0.48171845474E+03  0.16750653976E+03 0.  0.
        -24    2    5    5    0    0 -0.13205892833E+02  0.15443073858E+03 -0.20358338913E+03  0.26797670406E+03  0.79637107996E+02 0.  0.
          5    1    3    3  501    0  0.29775950861E+02 -0.14054329592E+03 -0.53812056872E+03  0.55698730844E+03  0.47000000000E+01 0. -1.
        -11    1    4    4    0    0  0.38966844483E+02  0.66124751209E+00 -0.14781472123E+03  0.15286609836E+03  0.00000000000E+00 0.  1.
         12    1    4    4    0    0  0.22979441313E+02 -0.50916245544E+02 -0.51533452458E+02  0.76001417787E+02  0.00000000000E+00 0. -1.
         -5    1    5    5    0  502 -0.78516343824E+02  0.36367555377E+02 -0.19538687431E+03  0.21374175068E+03  0.47000000000E+01 0.  1.
         11    1    6    6    0    0  0.10844870306E+02  0.47984252238E+02 -0.17425288276E+02  0.52189465856E+02  0.00000000000E+00 0. -1.
        -12    1    6    6    0    0 -0.24050763139E+02  0.10644648634E+03 -0.18615810085E+03  0.21578723821E+03  0.00000000000E+00 0.  1.
</event>
<event>
12    1  0.8251070E-002  0.1839645E+03  0.7818608E-02  0.1164571E+00
         21   -1    0    0  503  502  0.00000000000E+00  0.00000000000E+00  0.17374833392E+03  0.17374833392E+03  0.00000000000E+00 0. -1.
         21   -1    0    0  501  503 -0.00000000000E+00 -0.00000000000E+00 -0.22398803420E+03  0.22398803420E+03  0.00000000000E+00 0.  1.
          6    2    1    2  501    0 -0.63080930823E+02  0.11217320649E+02 -0.99747087481E+02  0.20722678070E+03  0.16996595266E+03 0.  0.
         24    2    3    3    0    0 -0.59486502606E+02 -0.20979411181E+02 -0.12819261460E+03  0.16385873408E+03  0.80234397917E+02 0.  0.
         -6    2    1    2    0  502  0.63080930823E+02 -0.11217320649E+02  0.49507387197E+02  0.19050958742E+03  0.17244677265E+03 0.  0.
        -24    2    5    5    0    0  0.13382368309E+01 -0.32313664516E+02 -0.26528735053E+02  0.90206058708E+02  0.79921182748E+02 0.  0.
          5    1    3    3  501    0 -0.35944282164E+01  0.32196731830E+02  0.28445527121E+02  0.43368046623E+02  0.47000000000E+01 0. -1.
        -11    1    4    4    0    0 -0.14365236322E+02  0.26096509968E+02 -0.15303831143E+02  0.33490223868E+02  0.00000000000E+00 0.  1.
         12    1    4    4    0    0 -0.45121266284E+02 -0.47075921149E+02 -0.11288878346E+03  0.13036851021E+03  0.00000000000E+00 0. -1.
         -5    1    5    5    0  502  0.61742693992E+02  0.21096343867E+02  0.76036122250E+02  0.10030352872E+03  0.47000000000E+01 0.  1.
         13    1    6    6    0    0  0.21660117411E+01  0.14485976331E+02  0.19613705375E+02  0.24479227023E+02  0.00000000000E+00 0. -1.
        -14    1    6    6    0    0 -0.82777491013E+00 -0.46799640846E+02 -0.46142440428E+02  0.65726831685E+02  0.00000000000E+00 0.  1.
</event>
<event>
12    1  0.8251070E-002  0.4715293E+03  0.7818608E-02  0.1021494E+00
         21   -1    0    0  501  502  0.00000000000E+00  0.00000000000E+00  0.66235647057E+03  0.66235647057E+03  0.00000000000E+00 0. -1.
         21   -1    0    0  502  503 -0.00000000000E+00 -0.00000000000E+00 -0.48313332527E+03  0.48313332527E+03  0.00000000000E+00 0.  1.
         -6    2    1    2    0  503 -0.43855894715E+03 -0.15784097696E+02 -0.22685755744E+03  0.52320253771E+03  0.17231789296E+03 0.  0.
        -24    2    3    3    0    0 -0.21733454949E+03 -0.71454037358E+02 -0.10027580496E+03  0.26227264988E+03  0.79948232995E+02 0.  0.
          6    2    1    2  501    0  0.43855894715E+03  0.15784097696E+02  0.40608070274E+03  0.62228725814E+03  0.17250161345E+03 0.  0.
         24    2    5    5    0    0  0.10293126094E+03 -0.27309023882E+02  0.10120573512E+03  0.16679434188E+03  0.78975467076E+02 0.  0.
          5    1    5    5  501    0  0.33562768621E+03  0.43093121578E+02  0.30487496762E+03  0.45549291625E+03  0.47000000000E+01 0. -1.
        -13    1    6    6    0    0  0.73959177440E+02 -0.33516647455E+02  0.10922299459E+03  0.13609918490E+03  0.00000000000E+00 0.  1.
         14    1    6    6    0    0  0.28972083500E+02  0.62076235725E+01 -0.80172594704E+01  0.30695156983E+02  0.00000000000E+00 0. -1.
         -5    1    3    3    0  503 -0.22122439766E+03  0.55669939662E+02 -0.12658175248E+03  0.26092988783E+03  0.47000000000E+01 0.  1.
         13    1    4    4    0    0 -0.61210857243E+02 -0.46700461590E+02 -0.63930983881E+02  0.10007433666E+03  0.00000000000E+00 0. -1.
        -14    1    4    4    0    0 -0.15612369224E+03 -0.24753575768E+02 -0.36344821075E+02  0.16219831322E+03  0.00000000000E+00 0.  1.
</event>
<event>
12    1  0.8251070E-002  0.2873949E+03  0.7818608E-02  0.1092004E+00
         21   -1    0    0  503  502  0.00000000000E+00  0.00000000000E+00  0.15937235958E+03  0.15937235958E+03  0.00000000000E+00 0. -1.
         21   -1    0    0  501  503 -0.00000000000E+00 -0.00000000000E+00 -0.56592008399E+03  0.56592008399E+03  0.00000000000E+00 0.  1.
          6    2    1    2  501    0 -0.15445392976E+03  0.17022782595E+03 -0.31343556911E+03  0.42525015580E+03  0.17251756397E+03 0.  0.
         24    2    3    3    0    0 -0.32326257296E+02  0.37205101229E+02 -0.51555676321E+02  0.10710964923E+03  0.79907964113E+02 0.  0.
         -6    2    1    2    0  502  0.15445392976E+03 -0.17022782595E+03 -0.93112155302E+02  0.30004228776E+03  0.16888449258E+03 0.  0.
        -24    2    5    5    0    0  0.73178124811E+02 -0.16091381057E+03 -0.91881988968E+02  0.21809040760E+03  0.88728989660E+02 0.  0.
          5    1    3    3  501    0 -0.12212767247E+03  0.13302272473E+03 -0.26187989279E+03  0.31814050657E+03  0.47000000000E+01 0. -1.
        -11    1    4    4    0    0 -0.20763972191E+02  0.22429400406E+02 -0.72686579907E+02  0.78851502474E+02  0.00000000000E+00 0.  1.
         12    1    4    4    0    0 -0.11562285104E+02  0.14775700823E+02  0.21130903586E+02  0.28258146755E+02  0.00000000000E+00 0. -1.
         -5    1    5    5    0  502  0.81275804951E+02 -0.93140153805E+01 -0.12301663346E+01  0.81951880163E+02  0.47000000000E+01 0.  1.
         11    1    6    6    0    0  0.52480013096E+02 -0.25672112175E+02 -0.11938390778E+02  0.59629978135E+02  0.00000000000E+00 0. -1.
        -12    1    6    6    0    0  0.20698111715E+02 -0.13524169840E+03 -0.79943598190E+02  0.15846042946E+03  0.00000000000E+00 0.  1.
</event>
<event>
12    1  0.8251070E-002  0.1821941E+03  0.7818608E-02  0.1166463E+00
         21   -1    0    0  503  502  0.00000000000E+00  0.00000000000E+00  0.83223858017E+02  0.83223858017E+02  0.00000000000E+00 0. -1.
         21   -1    0    0  501  503 -0.00000000000E+00 -0.00000000000E+00 -0.51120226231E+03  0.51120226231E+03  0.00000000000E+00 0. -1.
          6    2    1    2  501    0  0.42151037463E+02  0.43145536244E+02 -0.35611229444E+03  0.39857050279E+03  0.16853555169E+03 0.  0.
         24    2    3    3    0    0 -0.22138262331E+02 -0.18237516489E+02 -0.13576181584E+03  0.16092072549E+03  0.81495396096E+02 0.  0.
         -6    2    1    2    0  502 -0.42151037463E+02 -0.43145536244E+02 -0.71866109850E+02  0.19585561754E+03  0.17191985900E+03 0.  0.
        -24    2    5    5    0    0 -0.18162704970E+02  0.36459714881E+02 -0.64507023783E+02  0.11225727874E+03  0.82348927441E+02 0.  0.
          5    1    3    3  501    0  0.64289299794E+02  0.61383052734E+02 -0.22035047860E+03  0.23764977730E+03  0.47000000000E+01 0. -1.
        -11    1    4    4    0    0  0.13944235729E+02 -0.25261654973E+02 -0.11528754754E+03  0.11884364325E+03  0.00000000000E+00 0.  1.
         12    1    4    4    0    0 -0.36082498060E+02  0.70241384833E+01 -0.20474268301E+02  0.42077082244E+02  0.00000000000E+00 0. -1.
         -5    1    5    5    0  502 -0.23988332493E+02 -0.79605251126E+02 -0.73590860670E+01  0.83598338801E+02  0.47000000000E+01 0.  1.
         13    1    6    6    0    0 -0.16689972193E+02  0.14768189693E+02  0.16917831261E+02  0.27979771500E+02  0.00000000000E+00 0. -1.
        -14    1    6    6    0    0 -0.14727327772E+01  0.21691525188E+02 -0.81424855044E+02  0.84277507235E+02  0.00000000000E+00 0.  1.
</event>
<event>
12    1  0.8251070E-002  0.1775616E+03  0.7818608E-02  0.1170189E+00
         21   -1    0    0  501  502  0.00000000000E+00  0.00000000000E+00  0.12674172077E+04  0.12674172077E+04  0.00000000000E+00 0.  1.
         21   -1    0    0  502  503 -0.00000000000E+00 -0.00000000000E+00 -0.31029901661E+02  0.31029901661E+02  0.00000000000E+00 0.  1.
         -6    2    1    2    0  503 -0.33481535150E+02  0.31130073195E+02  0.32903298873E+03  0.37388611417E+03  0.17157512654E+03 0.  0.
        -24    2    3    3    0    0  0.41702391615E+02  0.40873474749E+02  0.14598296034E+03  0.17570195837E+03  0.78424633005E+02 0.  0.
          6    2    1    2  501    0  0.33481535150E+02 -0.31130073195E+02  0.90735431728E+03  0.92456099516E+03  0.17155489508E+03 0.  0.
         24    2    5    5    0    0  0.42186328944E+02 -0.84135472735E+00  0.87328722087E+03  0.87791512761E+03  0.79523624930E+02 0.  0.
          5    1    5    5  501    0 -0.87047937942E+01 -0.30288718468E+02  0.34067096409E+02  0.46645867546E+02  0.47000000000E+01 0. -1.
        -13    1    6    6    0    0  0.16942291845E+02  0.37675365576E+02  0.30849572273E+03  0.31124923352E+03  0.00000000000E+00 0.  1.
         14    1    6    6    0    0  0.25244037099E+02 -0.38516720303E+02  0.56479149815E+03  0.56666589410E+03  0.00000000000E+00 0. -1.
         -5    1    3    3    0  503 -0.75183926765E+02 -0.97434015538E+01  0.18305002839E+03  0.19818415580E+03  0.47000000000E+01 0.  1.
         11    1    4    4    0    0 -0.23451576249E+01  0.51339029731E+02  0.90679685243E+02  0.10423051882E+03  0.00000000000E+00 0. -1.
        -12    1    4    4    0    0  0.44047549240E+02 -0.10465554982E+02  0.55303275095E+02  0.71471439550E+02  0.00000000000E+00 0.  1.
</event>
<event>
12    1  0.8251070E-002  0.1967870E+03  0.7818608E-02  0.1152815E+00
         21   -1    0    0  503  502  0.00000000000E+00  0.00000000000E+00  0.75075762725E+02  0.75075762725E+02  0.00000000000E+00 0. -1.
         21   -1    0    0  501  503 -0.00000000000E+00 -0.00000000000E+00 -0.12052989134E+04  0.12052989134E+04  0.00000000000E+00 0. -1.
          6    2    1    2  501    0 -0.13069659805E+02  0.95503512491E+02 -0.10516891390E+04  0.10699416591E+04  0.17156156922E+03 0.  0.
         24    2    3    3    0    0 -0.34975618084E+02  0.79036927843E+01 -0.74822284354E+03  0.75329124957E+03  0.79526856227E+02 0.  0.
         -6    2    1    2    0  502  0.13069659805E+02 -0.95503512491E+02 -0.78534011686E+02  0.21043301697E+03  0.16977257356E+03 0.  0.
        -24    2    5    5    0    0  0.44391216805E+02 -0.65751738619E+02 -0.10931378963E+03  0.15718179433E+03  0.80391172431E+02 0.  0.
          5    1    3    3  501    0  0.21905958279E+02  0.87599819707E+02 -0.30346629542E+03  0.31665040957E+03  0.47000000000E+01 0. -1.
        -11    1    4    4    0    0 -0.39212886585E+02  0.20088154238E+02 -0.19489404402E+03  0.19981209375E+03  0.00000000000E+00 0.  1.
         12    1    4    4    0    0  0.42372685006E+01 -0.12184461453E+02 -0.55332879953E+03  0.55347915582E+03  0.00000000000E+00 0. -1.
         -5    1    5    5    0  502 -0.31321557000E+02 -0.29751773872E+02  0.30779777947E+02  0.53251222633E+02  0.47000000000E+01 0.  1.
         11    1    6    6    0    0  0.56174578490E+02 -0.64372264602E+02 -0.55049439866E+02  0.10163568541E+03  0.00000000000E+00 0. -1.
        -12    1    6    6    0    0 -0.11783361685E+02 -0.13794740166E+01 -0.54264349766E+02  0.55546108925E+02  0.00000000000E+00 0.  1.
</event>
<event>
12    1  0.8251070E-002  0.2123659E+03  0.7818608E-02  0.1139922E+00
         21   -1    0    0  501  502  0.00000000000E+00  0.00000000000E+00  0.29204272794E+03  0.29204272794E+03  0.00000000000E+00 0. -1.
         21   -1    0    0  502  503 -0.00000000000E+00 -0.00000000000E+00 -0.23545576323E+03  0.23545576323E+03  0.00000000000E+00 0. -1.
         -6    2    1    2    0  503 -0.54977821520E+02  0.11276796300E+03 -0.12724221306E+03  0.24662054129E+03  0.16997628147E+03 0.  0.
        -24    2    3    3    0    0 -0.90407537557E+02  0.29511611358E+02 -0.85515576046E+02  0.14687041796E+03  0.72204902008E+02 0.  0.
          6    2    1    2  501    0  0.54977821520E+02 -0.11276796300E+03  0.18382917777E+03  0.28087794989E+03  0.17134783861E+03 0.  0.
         24    2    5    5    0    0  0.41623170541E+02 -0.61751030299E+02  0.24556044956E+02  0.11303547922E+03  0.81414631048E+02 0.  0.
          5    1    5    5  501    0  0.13354650978E+02 -0.51016932699E+02  0.15927313281E+03  0.16784247067E+03  0.47000000000E+01 0. -1.
        -13    1    6    6    0    0 -0.49374595776E+01 -0.63315992207E+02  0.17844697976E+02  0.65967617981E+02  0.00000000000E+00 0.  1.
         14    1    6    6    0    0  0.46560630119E+02  0.15649619083E+01  0.67113469802E+01  0.47067861234E+02  0.00000000000E+00 0. -1.
         -5    1    3    3    0  503  0.35429716037E+02  0.83256351640E+02 -0.41726637015E+02  0.99750123326E+02  0.47000000000E+01 0.  1.
         13    1    4    4    0    0 -0.36192056506E+02  0.39517867977E+02 -0.72620788680E+02  0.90251347868E+02  0.00000000000E+00 0. -1.
        -14    1    4    4    0    0 -0.54215481051E+02 -0.10006256619E+02 -0.12894787366E+02  0.56619070094E+02  0.00000000000E+00 0.  1.
</event>
<event>
12    1  0.8251070E-002  0.2525329E+03  0.7818608E-02  0.1111719E+00
         21   -1    0    0  501  502  0.00000000000E+00  0.00000000000E+00  0.80766314744E+03  0.80766314744E+03  0.00000000000E+00 0. -1.
         21   -1    0    0  502  503 -0.00000000000E+00 -0.00000000000E+00 -0.13305595791E+03  0.13305595791E+03  0.00000000000E+00 0.  1.
         -6    2    1    2    0  503 -0.17863395261E+03  0.46968655434E+02  0.37349690876E+02  0.25524848312E+03  0.17216458726E+03 0.  0.
        -24    2    3    3    0    0 -0.91216076469E+02  0.14014698001E+02  0.87649268230E+02  0.14904120530E+03  0.77550643385E+02 0.  0.
          6    2    1    2  501    0  0.17863395261E+03 -0.46968655434E+02  0.63725749865E+03  0.68547062223E+03  0.17221123869E+03 0.  0.
         24    2    5    5    0    0  0.19633540628E+03 -0.40968789517E+02  0.62790400942E+03  0.66404825976E+03  0.80440119141E+02 0.  0.
          5    1    5    5  501    0 -0.17701453667E+02 -0.59998659169E+01  0.93534892300E+01  0.21422362468E+02  0.47000000000E+01 0. -1.
        -13    1    6    6    0    0  0.47640622019E+02  0.19923373621E+02  0.10495027806E+03  0.11696636503E+03  0.00000000000E+00 0.  1.
         14    1    6    6    0    0  0.14869478426E+03 -0.60892163138E+02  0.52295373136E+03  0.54708189473E+03  0.00000000000E+00 0. -1.
         -5    1    3    3    0  503 -0.87417876141E+02  0.32953957433E+02 -0.50299577355E+02  0.10620727782E+03  0.47000000000E+01 0.  1.
         11    1    4    4    0    0 -0.96559888629E+02  0.24812039230E+02  0.54175675950E+02  0.11346564787E+03  0.00000000000E+00 0. -1.
        -12    1    4    4    0    0  0.53438121598E+01 -0.10797341229E+02  0.33473592281E+02  0.35575557426E+02  0.00000000000E+00 0.  1.
</event>
<event>
12    1  0.8251070E-002  0.2241626E+03  0.7818608E-02  0.1130838E+00
         21   -1    0    0  503  502  0.00000000000E+00  0.00000000000E+00  0.15143206465E+03  0.15143206465E+03  0.00000000000E+00 0.  1.
         21   -1    0    0  501  503 -0.00000000000E+00 -0.00000000000E+00 -0.33532584948E+03  0.33532584948E+03  0.00000000000E+00 0. -1.
          6    2    1    2  501    0  0.14181244127E+03 -0.24026856449E+02 -0.11743094141E+03  0.25305910953E+03  0.17193262805E+03 0.  0.
         24    2    3    3    0    0  0.14580243463E+03 -0.60572894107E+02 -0.12306536895E+03  0.21557084885E+03  0.79989251747E+02 0.  0.
         -6    2    1    2    0  502 -0.14181244127E+03  0.24026856449E+02 -0.66462843417E+02  0.23369880460E+03  0.17178406034E+03 0.  0.
        -24    2    5    5    0    0 -0.98652029053E+02 -0.47952966362E+02 -0.14663497450E+02  0.13496087715E+03  0.77250957170E+02 0.  0.
          5    1    3    3  501    0 -0.39899933572E+01  0.36546037659E+02  0.56344275398E+01  0.37488260686E+02  0.47000000000E+01 0. -1.
        -11    1    4    4    0    0  0.21907818806E+02 -0.36727316277E+02 -0.54992873429E+01  0.43117171139E+02  0.00000000000E+00 0.  1.
         12    1    4    4    0    0  0.12389461582E+03 -0.23845577830E+02 -0.11756608160E+03  0.17245367771E+03  0.00000000000E+00 0. -1.
         -5    1    5    5    0  502 -0.43160412217E+02  0.71979822811E+02 -0.51799345967E+02  0.98737927451E+02  0.47000000000E+01 0.  1.
         13    1    6    6    0    0 -0.11945795724E+02 -0.43549887635E+02 -0.16622809763E+02  0.48120812055E+02  0.00000000000E+00 0. -1.
        -14    1    6    6    0    0 -0.86706233330E+02 -0.44030787278E+01  0.19593123134E+01  0.86840065092E+02  0.00000000000E+00 0.  1.
</event>
<event>
12    1  0.8251070E-002  0.2283810E+03  0.7818608E-02  0.1127990E+00
         21   -1    0    0  501  502  0.00000000000E+00  0.00000000000E+00  0.14429634423E+04  0.14429634423E+04  0.00000000000E+00 0. -1.
         21   -1    0    0  502  503 -0.00000000000E+00 -0.00000000000E+00 -0.44270685904E+02  0.44270685904E+02  0.00000000000E+00 0.  1.
         -6    2    1    2    0  503 -0.92636650398E+02 -0.11761073839E+03  0.37578605065E+03  0.43914251785E+03  0.17093027917E+03 0.  0.
        -24    2    3    3    0    0  0.12358136672E+01 -0.27186921333E+02  0.77807797675E+02  0.11387088452E+03  0.78561243855E+02 0.  0.
          6    2    1    2  501    0  0.92636650398E+02  0.11761073839E+03  0.10229067057E+04  0.10480916103E+04  0.17246466377E+03 0.  0.
         24    2    5    5    0    0  0.12332552208E+03  0.10821634407E+03  0.96106796416E+03  0.97826195010E+03  0.80155160520E+02 0.  0.
          5    1    5    5  501    0 -0.30688871681E+02  0.93943943211E+01  0.61838741549E+02  0.69829660218E+02  0.47000000000E+01 0. -1.
        -11    1    6    6    0    0  0.33321565611E+02  0.48161922707E+02  0.16948395160E+03  0.17931733709E+03  0.00000000000E+00 0.  1.
         12    1    6    6    0    0  0.90003956468E+02  0.60054421365E+02  0.79158401257E+03  0.79894461301E+03  0.00000000000E+00 0. -1.
         -5    1    3    3    0  503 -0.93872464065E+02 -0.90423817060E+02  0.29797825297E+03  0.32527163332E+03  0.47000000000E+01 0.  1.
         11    1    4    4    0    0 -0.23273222811E+02 -0.16450487292E+02  0.81977547680E+02  0.86790435854E+02  0.00000000000E+00 0. -1.
        -12    1    4    4    0    0  0.24509036479E+02 -0.10736434041E+02 -0.41697500042E+01  0.27080448669E+02  0.00000000000E+00 0.  1.
</event>
<event>
12    1  0.8251070E-002  0.1945264E+03  0.7818608E-02  0.1154738E+00
         21   -1    0    0  501  502  0.00000000000E+00  0.00000000000E+00  0.10558988329E+03  0.10558988329E+03  0.00000000000E+00 0. -1.
         21   -1    0    0  502  503 -0.00000000000E+00 -0.00000000000E+00 -0.63394980475E+03  0.63394980475E+03  0.00000000000E+00 0. -1.
         -6    2    1    2    0  503 -0.26432272788E+02 -0.86177868864E+02 -0.50959038274E+03  0.54545658025E+03  0.17238106806E+03 0.  0.
        -24    2    3    3    0    0 -0.35568709281E+02 -0.99225187932E+02 -0.22398474695E+03  0.25936852352E+03  0.77408611446E+02 0.  0.
          6    2    1    2  501    0  0.26432272788E+02  0.86177868864E+02 -0.18769538716E+02  0.19408310780E+03  0.17085276416E+03 0.  0.
         24    2    5    5    0    0 -0.27170661620E+02  0.27214260889E+02 -0.58341432878E+02  0.10498761717E+03  0.78356978756E+02 0.  0.
          5    1    5    5  501    0  0.53602934408E+02  0.58963607976E+02  0.39571894162E+02  0.89095490628E+02  0.47000000000E+01 0. -1.
        -11    1    6    6    0    0 -0.66922210939E+01 -0.12863460944E+02 -0.58201777877E+02  0.59980841931E+02  0.00000000000E+00 0.  1.
         12    1    6    6    0    0 -0.20478440526E+02  0.40077721833E+02 -0.13965500065E+00  0.45006775237E+02  0.00000000000E+00 0. -1.
         -5    1    3    3    0  503  0.91364364932E+01  0.13047319067E+02 -0.28560563579E+03  0.28608805673E+03  0.47000000000E+01 0.  1.
         13    1    4    4    0    0 -0.46948263132E+02 -0.58379722591E+02 -0.19247768120E+03  0.20654294754E+03  0.00000000000E+00 0. -1.
        -14    1    4    4    0    0  0.11379553851E+02 -0.40845465341E+02 -0.31507065754E+02  0.52825575976E+02  0.00000000000E+00 0.  1.
</event>
<event>
12    1  0.8251070E-002  0.1738040E+03  0.7818608E-02  0.1174281E+00
         21   -1    0    0  501  502  0.00000000000E+00  0.00000000000E+00  0.17682038378E+02  0.17682038378E+02  0.00000000000E+00 0. -1.
         21   -1    0    0  502  503 -0.00000000000E+00 -0.00000000000E+00 -0.19057523542E+04  0.19057523542E+04  0.00000000000E+00 0. -1.
         -6    2    1    2    0  503 -0.15313739692E+01 -0.18894727652E+02 -0.12670181892E+04  0.12788834725E+04  0.17276715173E+03 0.  0.
        -24    2    3    3    0    0  0.28686544896E+02 -0.46670544480E+02 -0.11636309673E+04  0.11675478256E+04  0.78293291393E+02 0.  0.
          6    2    1    2  501    0  0.15313739692E+01  0.18894727652E+02 -0.62105212667E+03  0.64455092009E+03  0.17140825159E+03 0.  0.
         24    2    5    5    0    0  0.30217175108E+02  0.11520887086E+02 -0.16130691647E+03  0.18382866427E+03  0.82019802453E+02 0.  0.
          5    1    5    5  501    0 -0.28685801139E+02  0.73738405666E+01 -0.45974521019E+03  0.46072225582E+03  0.47000000000E+01 0. -1.
        -11    1    6    6    0    0  0.26535409262E+02  0.36245890469E+02 -0.14965009234E+03  0.15624673648E+03  0.00000000000E+00 0.  1.
         12    1    6    6    0    0  0.36817658456E+01 -0.24725003384E+02 -0.11656824129E+02  0.27581927794E+02  0.00000000000E+00 0. -1.
         -5    1    3    3    0  503 -0.30217918865E+02  0.27775816828E+02 -0.10338722191E+03  0.11133564692E+03  0.47000000000E+01 0.  1.
         11    1    4    4    0    0 -0.24757809822E+02 -0.23946658333E+02 -0.58397847628E+03  0.58499337804E+03  0.00000000000E+00 0. -1.
        -12    1    4    4    0    0  0.53444354718E+02 -0.22723886147E+02 -0.57965249100E+03  0.58255444756E+03  0.00000000000E+00 0.  1.
</event>
<event>
12    1  0.8251070E-002  0.3101311E+03  0.7818608E-02  0.1080330E+00
         21   -1    0    0  503  502  0.00000000000E+00  0.00000000000E+00  0.44770245041E+02  0.44770245041E+02  0.00000000000E+00 0. -1.
         21   -1    0    0  501  503 -0.00000000000E+00 -0.00000000000E+00 -0.21794836974E+04  0.21794836974E+04  0.00000000000E+00 0. -1.
          6    2    1    2  501    0  0.52051480140E+02  0.25201916163E+03 -0.92810614975E+03  0.97842792392E+03  0.17238666619E+03 0.  0.
         24    2    3    3    0    0  0.69682275522E+02  0.15519440276E+03 -0.41180715154E+03  0.45281150063E+03  0.80698220997E+02 0.  0.
         -6    2    1    2    0  502 -0.52051480140E+02 -0.25201916163E+03 -0.12066073026E+04  0.12458260185E+04  0.17308457848E+03 0.  0.
        -24    2    5    5    0    0 -0.42164807317E+02 -0.13480601155E+03 -0.94658738694E+03  0.96039806720E+03  0.79913920193E+02 0.  0.
          5    1    3    3  501    0 -0.17630795382E+02  0.96824758870E+02 -0.51629899821E+03  0.52561642329E+03  0.47000000000E+01 0. -1.
        -11    1    4    4    0    0  0.45347429716E+02  0.34220841232E+02 -0.19759581063E+03  0.20560048574E+03  0.00000000000E+00 0.  1.
         12    1    4    4    0    0  0.24334845806E+02  0.12097356153E+03 -0.21421134091E+03  0.24721101489E+03  0.00000000000E+00 0. -1.
         -5    1    5    5    0  502 -0.98866728231E+01 -0.11721315008E+03 -0.26001991563E+03  0.28542795129E+03  0.47000000000E+01 0.  1.
         13    1    6    6    0    0 -0.17582158169E+02 -0.21563750528E+02 -0.43331578386E+03  0.43420812540E+03  0.00000000000E+00 0. -1.
        -14    1    6    6    0    0 -0.24582649148E+02 -0.11324226103E+03 -0.51327160308E+03  0.52618994180E+03  0.00000000000E+00 0.  1.
</event>
<event>
12    1  0.8251070E-002  0.2063637E+03  0.7818608E-02  0.1144864E+00
         21   -1    0    0  503  502  0.00000000000E+00  0.00000000000E+00  0.13622930842E+03  0.13622930842E+03  0.00000000000E+00 0. -1.
         21   -1    0    0  501  503 -0.00000000000E+00 -0.00000000000E+00 -0.30984993012E+03  0.30984993012E+03  0.00000000000E+00 0. -1.
          6    2    1    2  501    0  0.11097939019E+03  0.24341907699E+02 -0.91347657956E+02  0.22567759592E+03  0.17227022136E+03 0.  0.
         24    2    3    3    0    0  0.14359579343E+03  0.44490092763E+02 -0.98120402287E+02  0.18646357818E+03  0.50417580251E+02 0.  0.
         -6    2    1    2    0  502 -0.11097939019E+03 -0.24341907699E+02 -0.82272963748E+02  0.22040164263E+03  0.16999732349E+03 0.  0.
        -24    2    5    5    0    0 -0.12081241784E+03 -0.41001889099E+02 -0.10937056518E+03  0.18677704722E+03  0.81528826965E+02 0.  0.
          5    1    3    3  501    0 -0.32616403235E+02 -0.20148185063E+02  0.67727443310E+01  0.39214017737E+02  0.47000000000E+01 0. -1.
        -11    1    4    4    0    0  0.66998910553E+02  0.44182350567E+02 -0.36542391672E+02  0.88183221227E+02  0.00000000000E+00 0.  1.
         12    1    4    4    0    0  0.76596882873E+02  0.30774219600E+00 -0.61578010614E+02  0.98280356951E+02  0.00000000000E+00 0. -1.
         -5    1    5    5    0  502  0.98330276454E+01  0.16659981400E+02  0.27097601436E+02  0.33624595410E+02  0.47000000000E+01 0.  1.
         11    1    6    6    0    0 -0.61413060904E+02 -0.58258323952E+02 -0.85951521416E+02  0.12063689483E+03  0.00000000000E+00 0. -1.
        -12    1    6    6    0    0 -0.59399356933E+02  0.17256434853E+02 -0.23419043768E+02  0.66140152395E+02  0.00000000000E+00 0.  1.
</event>
<event>
12    1  0.8251070E-002  0.1947461E+03  0.7818608E-02  0.1154579E+00
         21   -1    0    0  501  502  0.00000000000E+00  0.00000000000E+00  0.61483860426E+03  0.61483860426E+03  0.00000000000E+00 0.  1.
         21   -1    0    0  502  503 -0.00000000000E+00 -0.00000000000E+00 -0.69478390830E+02  0.69478390830E+02  0.00000000000E+00 0.  1.
         -6    2    1    2    0  503  0.63799884947E+02  0.63122570666E+02  0.39165168940E+03  0.43739809817E+03  0.17283276954E+03 0.  0.
        -24    2    3    3    0    0  0.61223178336E+02  0.42396932505E+02  0.40018673512E+03  0.41435187289E+03  0.77409780730E+02 0.  0.
          6    2    1    2  501    0 -0.63799884947E+02 -0.63122570666E+02  0.15370852404E+03  0.24691889693E+03  0.17113663269E+03 0.  0.
         24    2    5    5    0    0 -0.83199192238E+02 -0.51769931748E+02  0.38616226022E+02  0.12955815989E+03  0.75444499208E+02 0.  0.
          5    1    5    5  501    0  0.19399307291E+02 -0.11352638918E+02  0.11509229802E+03  0.11736073703E+03  0.47000000000E+01 0. -1.
        -13    1    6    6    0    0 -0.63293364037E+02  0.32232350026E+00  0.37927613512E+02  0.73787923742E+02  0.00000000000E+00 0.  1.
         14    1    6    6    0    0 -0.19905828201E+02 -0.52092255248E+02  0.68861251027E+00  0.55770236151E+02  0.00000000000E+00 0. -1.
         -5    1    3    3    0  503  0.25767066110E+01  0.20725638160E+02 -0.85350457213E+01  0.23046225278E+02  0.47000000000E+01 0.  1.
         13    1    4    4    0    0 -0.19337336284E+01  0.41814164849E+02  0.11864221861E+03  0.12580993500E+03  0.00000000000E+00 0. -1.
        -14    1    4    4    0    0  0.63156911964E+02  0.58276765643E+00  0.28154451650E+03  0.28854193789E+03  0.00000000000E+00 0.  1.
</event>
<event>
12    1  0.8251070E-002  0.1949656E+03  0.7818608E-02  0.1154332E+00
         21   -1    0    0  501  502  0.00000000000E+00  0.00000000000E+00  0.98985701465E+03  0.98985701465E+03  0.00000000000E+00 0.  1.
         21   -1    0    0  502  503 -0.00000000000E+00 -0.00000000000E+00 -0.46764402729E+02  0.46764402729E+02  0.00000000000E+00 0. -1.
         -6    2    1    2    0  503  0.49884731060E+02  0.79386609419E+02  0.24789639383E+03  0.31460384011E+03  0.16950585237E+03 0.  0.
        -24    2    3    3    0    0  0.31305160943E+02  0.14162820553E+02  0.22830154001E+03  0.24385504962E+03  0.78505372195E+02 0.  0.
          6    2    1    2  501    0 -0.49884731060E+02 -0.79386609419E+02  0.69519621809E+03  0.72201757727E+03  0.17094115974E+03 0.  0.
         24    2    5    5    0    0 -0.86995109776E+02 -0.26620112021E+02  0.34237635318E+03  0.36331793895E+03  0.80632363579E+02 0.  0.
          5    1    5    5  501    0  0.37110378717E+02 -0.52766497399E+02  0.35281986492E+03  0.35869963833E+03  0.47000000000E+01 0. -1.
        -13    1    6    6    0    0 -0.31499982396E+02 -0.26715665857E+02  0.26441853586E+03  0.26762499472E+03  0.00000000000E+00 0.  1.
         14    1    6    6    0    0 -0.55495127381E+02  0.95553836658E-01  0.77957817313E+02  0.95692944222E+02  0.00000000000E+00 0. -1.
         -5    1    3    3    0  503  0.18579570117E+02  0.65223788866E+02  0.19594853814E+02  0.70748790490E+02  0.47000000000E+01 0.  1.
         11    1    4    4    0    0 -0.45589111495E+01 -0.27495926957E+02  0.10886074238E+03  0.11237202010E+03  0.00000000000E+00 0. -1.
        -12    1    4    4    0    0  0.35864072092E+02  0.41658747511E+02  0.11944079763E+03  0.13148302951E+03  0.00000000000E+00 0.  1.
</event>
<event>
12    1  0.8251070E-002  0.2889107E+03  0.7818608E-02  0.1091134E+00
         21   -1    0    0  503  502  0.00000000000E+00  0.00000000000E+00  0.89791895123E+03  0.89791895123E+03  0.00000000000E+00 0.  1.
         21   -1    0    0  501  503 -0.00000000000E+00 -0.00000000000E+00 -0.12660664674E+03  0.12660664674E+03  0.00000000000E+00 0.  1.
          6    2    1    2  501    0 -0.20332547806E+03  0.10810285560E+03  0.11872080095E+03  0.31084144530E+03  0.17175650824E+03 0.  0.
         24    2    3    3    0    0 -0.19904933851E+03  0.88398007458E+02  0.47779973460E+02  0.23694112450E+03  0.80145640736E+02 0.  0.
         -6    2    1    2    0  502  0.20332547806E+03 -0.10810285560E+03  0.65259150354E+03  0.71368415266E+03  0.17447613548E+03 0.  0.
        -24    2    5    5    0    0  0.58547248286E+02 -0.13615134404E+02  0.36136720551E+03  0.37497727787E+03  0.80053416725E+02 0.  0.
          5    1    3    3  501    0 -0.42761395424E+01  0.19704848144E+02  0.70940827494E+02  0.73900320807E+02  0.47000000000E+01 0. -1.
        -13    1    4    4    0    0 -0.11798074473E+03  0.72788032365E+02  0.64191172429E+02  0.15276799534E+03  0.00000000000E+00 0.  1.
         14    1    4    4    0    0 -0.81068593784E+02  0.15609975093E+02 -0.16411198969E+02  0.84173129157E+02  0.00000000000E+00 0. -1.
         -5    1    5    5    0  502  0.14477822977E+03 -0.94487721198E+02  0.29122429802E+03  0.33870687479E+03  0.47000000000E+01 0.  1.
         11    1    6    6    0    0  0.75393096056E+02 -0.16501672888E+02  0.33327374525E+03  0.34209328174E+03  0.00000000000E+00 0. -1.
        -12    1    6    6    0    0 -0.16845847770E+02  0.28865384842E+01  0.28093460266E+02  0.32883996127E+02  0.00000000000E+00 0.  1.
</event>
<event>
12    1  0.8251070E-002  0.1975645E+03  0.7818608E-02  0.1151871E+00
         21   -1    0    0  503  502  0.00000000000E+00  0.00000000000E+00  0.30070138618E+03  0.30070138618E+03  0.00000000000E+00 0.  1.
         21   -1    0    0  501  503 -0.00000000000E+00 -0.00000000000E+00 -0.12976106196E+03  0.12976106196E+03  0.00000000000E+00 0.  1.
          6    2    1    2  501    0 -0.38635389327E+02 -0.87884469466E+02  0.78319347511E+02  0.21252214150E+03  0.17267126904E+03 0.  0.
         24    2    3    3    0    0 -0.62031804790E+02 -0.44508903482E+02 -0.62742600093E+01  0.11450683446E+03  0.85108527808E+02 0.  0.
         -6    2    1    2    0  502  0.38635389327E+02  0.87884469466E+02  0.92620976715E+02  0.21794030664E+03  0.17234546309E+03 0.  0.
        -24    2    5    5    0    0  0.47168509595E+02 -0.10530853503E+02  0.67508780908E+02  0.11590549731E+03  0.80875717204E+02 0.  0.
          5    1    3    3  501    0  0.23396415462E+02 -0.43375565984E+02  0.84593607520E+02  0.98015307040E+02  0.47000000000E+01 0. -1.
        -13    1    4    4    0    0  0.82563537217E+00 -0.39978524228E+02  0.21768920141E+02  0.45528561995E+02  0.00000000000E+00 0.  1.
         14    1    4    4    0    0 -0.62857440162E+02 -0.45303792537E+01 -0.28043180150E+02  0.68978272469E+02  0.00000000000E+00 0. -1.
         -5    1    5    5    0  502 -0.85331202677E+01  0.98415322970E+02  0.25112195807E+02  0.10203480933E+03  0.47000000000E+01 0.  1.
         11    1    6    6    0    0 -0.52472194447E+01 -0.11256271703E+02  0.61959430897E+02  0.63191835245E+02  0.00000000000E+00 0. -1.
        -12    1    6    6    0    0  0.52415729040E+02  0.72541820019E+00  0.55493500104E+01  0.52713662061E+02  0.00000000000E+00 0.  1.
</event>
<event>
12    1  0.8251070E-002  0.1822902E+03  0.7818608E-02  0.1166023E+00
         21   -1    0    0  503  502  0.00000000000E+00  0.00000000000E+00  0.15005241790E+03  0.15005241790E+03  0.00000000000E+00 0.  1.
         21   -1    0    0  501  503 -0.00000000000E+00 -0.00000000000E+00 -0.24695797724E+03  0.24695797724E+03  0.00000000000E+00 0.  1.
          6    2    1    2  501    0 -0.47220753186E+02  0.26967821074E+02 -0.11504924314E+03  0.21555983391E+03  0.17399037543E+03 0.  0.
         24    2    3    3    0    0 -0.37541719747E+02  0.55947178513E+01 -0.14925432010E+03  0.17381572630E+03  0.80587673069E+02 0.  0.
         -6    2    1    2    0  502  0.47220753186E+02 -0.26967821074E+02  0.18143683792E+02  0.18145056124E+03  0.17215705041E+03 0.  0.
        -24    2    5    5    0    0  0.26278486952E+00 -0.60094054310E+02  0.52873059524E+02  0.11414069825E+03  0.81370597599E+02 0.  0.
          5    1    3    3  501    0 -0.96790334385E+01  0.21373103222E+02  0.34205076964E+02  0.41744107605E+02  0.47000000000E+01 0. -1.
        -13    1    4    4    0    0  0.24158660762E+01 -0.15941407241E+02 -0.11706209968E+03  0.11816725458E+03  0.00000000000E+00 0.  1.
         14    1    4    4    0    0 -0.39957585823E+02  0.21536125092E+02 -0.32192220419E+02  0.55648471716E+02  0.00000000000E+00 0. -1.
         -5    1    5    5    0  502  0.46957968316E+02  0.33126233237E+02 -0.34729375732E+02  0.67309862989E+02  0.47000000000E+01 0.  1.
         13    1    6    6    0    0  0.35125816289E+02 -0.43957898221E+01  0.20174862852E+02  0.40745196394E+02  0.00000000000E+00 0. -1.
        -14    1    6    6    0    0 -0.34863031419E+02 -0.55698264488E+02  0.32698196672E+02  0.73395501853E+02  0.00000000000E+00 0.  1.
</event>
<event>
12    1  0.8251070E-002  0.2186422E+03  0.7818608E-02  0.1135134E+00
         21   -1    0    0  503  502  0.00000000000E+00  0.00000000000E+00  0.67792204298E+03  0.67792204298E+03  0.00000000000E+00 0.  1.
         21   -1    0    0  501  503 -0.00000000000E+00 -0.00000000000E+00 -0.98795149529E+02  0.98795149529E+02  0.00000000000E+00 0.  1.
          6    2    1    2  501    0  0.11675834778E+03  0.68020305282E+02  0.49939770391E+03  0.54516278342E+03  0.17188693973E+03 0.  0.
         24    2    3    3    0    0  0.41534077837E+02 -0.10003890710E+02  0.34591798911E+03  0.35721444263E+03  0.78216017450E+02 0.  0.
         -6    2    1    2    0  502 -0.11675834778E+03 -0.68020305282E+02  0.79729189542E+02  0.23155440909E+03  0.17029805341E+03 0.  0.
        -24    2    5    5    0    0 -0.13325858230E+03 -0.15136236230E+02  0.59247370264E+02  0.17230428319E+03  0.90507235719E+02 0.  0.
          5    1    3    3  501    0  0.75224269947E+02  0.78024195992E+02  0.15347971480E+03  0.18794834079E+03  0.47000000000E+01 0. -1.
        -11    1    4    4    0    0  0.53228515624E+02  0.92949140648E+01  0.31086519027E+03  0.31552628548E+03  0.00000000000E+00 0.  1.
         12    1    4    4    0    0 -0.11694437787E+02 -0.19298804775E+02  0.35052798832E+02  0.41688157154E+02  0.00000000000E+00 0. -1.
         -5    1    5    5    0  502  0.16500234515E+02 -0.52884069052E+02  0.20481819278E+02  0.59250125903E+02  0.47000000000E+01 0.  1.
         11    1    6    6    0    0 -0.48082684449E+02  0.34272004675E+02  0.35006762749E+01  0.59150397992E+02  0.00000000000E+00 0. -1.
        -12    1    6    6    0    0 -0.85175897849E+02 -0.49408240904E+02  0.55746693989E+02  0.11315388519E+03  0.00000000000E+00 0.  1.
</event>
<event>
12    1  0.8251070E-002  0.1892997E+03  0.7818608E-02  0.1159095E+00
         21   -1    0    0  503  502  0.00000000000E+00  0.00000000000E+00  0.14054848201E+04  0.14054848201E+04  0.00000000000E+00 0.  1.
         21   -1    0    0  501  503 -0.00000000000E+00 -0.00000000000E+00 -0.81158679057E+02  0.81158679057E+02  0.00000000000E+00 0.  1.
          6    2    1    2  501    0  0.25708032838E+01 -0.79072389430E+02  0.46569651595E+02  0.19494073405E+03  0.17197123464E+03 0.  0.
         24    2    3    3    0    0  0.35927508450E+02 -0.85095503262E+02  0.81442513217E+02  0.14608222243E+03  0.78581818587E+02 0.  0.
         -6    2    1    2    0  502 -0.25708032838E+01  0.79072389430E+02  0.12777564895E+04  0.12917027652E+04  0.17197480996E+03 0.  0.
        -24    2    5    5    0    0 -0.67070614888E+02  0.32704740188E+02  0.79614723088E+03  0.80356369422E+03  0.79348156954E+02 0.  0.
          5    1    3    3  501    0 -0.33356705166E+02  0.60231138314E+01 -0.34872861622E+02  0.48858511617E+02  0.47000000000E+01 0. -1.
        -13    1    4    4    0    0  0.14369346051E+02 -0.88855310315E+02  0.38525415635E+02  0.97907874693E+02  0.00000000000E+00 0.  1.
         14    1    4    4    0    0  0.21558162399E+02  0.37598070531E+01  0.42917097582E+02  0.48174347738E+02  0.00000000000E+00 0. -1.
         -5    1    5    5    0  502  0.64499811605E+02  0.46367649243E+02  0.48160925862E+03  0.48813907094E+03  0.47000000000E+01 0.  1.
         11    1    6    6    0    0  0.67303240208E+01  0.97820198088E+01  0.38700985011E+03  0.38719195401E+03  0.00000000000E+00 0. -1.
        -12    1    6    6    0    0 -0.73800938909E+02  0.22922720379E+02  0.40913738077E+03  0.41637174020E+03  0.00000000000E+00 0.  1.
</event>
<event>
12    1  0.8251070E-002  0.1832598E+03  0.7818608E-02  0.1164809E+00
         21   -1    0    0  501  502  0.00000000000E+00  0.00000000000E+00  0.44817617170E+03  0.44817617170E+03  0.00000000000E+00 0.  1.
         21   -1    0    0  502  503 -0.00000000000E+00 -0.00000000000E+00 -0.10328862458E+03  0.10328862458E+03  0.00000000000E+00 0.  1.
         -6    2    1    2    0  503 -0.75849573235E+01  0.63564268715E+02  0.27613343860E+02  0.18532851810E+03  0.17171550607E+03 0.  0.
        -24    2    3    3    0    0 -0.25397495325E+02 -0.27300330611E+02 -0.38904896533E+01  0.87408941673E+02  0.78961043271E+02 0.  0.
          6    2    1    2  501    0  0.75849573235E+01 -0.63564268715E+02  0.31727420326E+03  0.36613627818E+03  0.17115754822E+03 0.  0.
         24    2    5    5    0    0 -0.34878337730E+02 -0.95800446933E+02  0.19155903153E+03  0.22950283786E+03  0.74715901563E+02 0.  0.
          5    1    5    5  501    0  0.42463295054E+02  0.32236178218E+02  0.12571517173E+03  0.13663344032E+03  0.47000000000E+01 0. -1.
        -13    1    6    6    0    0 -0.12251231049E+02  0.11273426491E+02  0.20173263816E+02  0.26156134654E+02  0.00000000000E+00 0.  1.
         14    1    6    6    0    0 -0.22627106681E+02 -0.10707387342E+03  0.17138576772E+03  0.20334670320E+03  0.00000000000E+00 0. -1.
         -5    1    3    3    0  503  0.17812538001E+02  0.90864599327E+02  0.31503833514E+02  0.97919576423E+02  0.47000000000E+01 0.  1.
         13    1    4    4    0    0  0.15528599567E+02 -0.36240325614E+02  0.14025402509E+02  0.41847467315E+02  0.00000000000E+00 0. -1.
        -14    1    4    4    0    0 -0.40926094892E+02  0.89399950023E+01 -0.17915892162E+02  0.45561474358E+02  0.00000000000E+00 0.  1.
</event>
<event>
12    1  0.8251070E-002  0.1723261E+03  0.7818608E-02  0.1177726E+00
         21   -1    0    0  501  502  0.00000000000E+00  0.00000000000E+00  0.17612630691E+03  0.17612630691E+03  0.00000000000E+00 0.  1.
         21   -1    0    0  502  503 -0.00000000000E+00 -0.00000000000E+00 -0.18906286433E+03  0.18906286433E+03  0.00000000000E+00 0.  1.
         -6    2    1    2    0  503 -0.98674434285E+01  0.21963849394E+01 -0.77611068283E+02  0.18112645762E+03  0.16334358017E+03 0.  0.
        -24    2    3    3    0    0 -0.52194305217E+02 -0.82206898860E+01 -0.93474457495E+02  0.13450226010E+03  0.81003447635E+02 0.  0.
          6    2    1    2  501    0  0.98674434285E+01 -0.21963849394E+01  0.64674510865E+02  0.18406271362E+03  0.17202935693E+03 0.  0.
         24    2    5    5    0    0 -0.33459017824E+02 -0.17266484511E+02  0.93978174869E+02  0.12942678341E+03  0.80633476621E+02 0.  0.
          5    1    5    5  501    0  0.43326461253E+02  0.15070099571E+02 -0.29303664005E+02  0.54635930209E+02  0.47000000000E+01 0. -1.
        -11    1    6    6    0    0 -0.16067534735E+02 -0.39740532548E+02  0.14873833579E+02  0.45372971304E+02  0.00000000000E+00 0.  1.
         12    1    6    6    0    0 -0.17391483089E+02  0.22474048037E+02  0.79104341290E+02  0.84053812110E+02  0.00000000000E+00 0. -1.
         -5    1    3    3    0  503  0.42326861789E+02  0.10417074825E+02  0.15863389212E+02  0.46624197517E+02  0.47000000000E+01 0.  1.
         13    1    4    4    0    0 -0.45101545472E+02 -0.17184549755E+01 -0.10801541178E+03  0.11706592875E+03  0.00000000000E+00 0. -1.
        -14    1    4    4    0    0 -0.70927597449E+01 -0.65022349105E+01  0.14540954283E+02  0.17436331354E+02  0.00000000000E+00 0.  1.
</event>
<event>
12    1  0.8251070E-002  0.1759234E+03  0.7818608E-02  0.1171836E+00
         21   -1    0    0  501  502  0.00000000000E+00  0.00000000000E+00  0.36728227490E+03  0.36728227490E+03  0.00000000000E+00 0.  1.
         21   -1    0    0  502  503 -0.00000000000E+00 -0.00000000000E+00 -0.85370512384E+02  0.85370512384E+02  0.00000000000E+00 0.  1.
         -6    2    1    2    0  503 -0.34627398019E+02  0.32889493207E+01  0.11452696322E+03  0.20982217800E+03  0.17233411501E+03 0.  0.
        -24    2    3    3    0    0 -0.18661428932E+02 -0.43725096572E+02  0.88644160209E+01  0.92980847301E+02  0.79414904731E+02 0.  0.
          6    2    1    2  501    0  0.34627398019E+02 -0.32889493207E+01  0.16738479930E+03  0.24283060929E+03  0.17245045633E+03 0.  0.
         24    2    5    5    0    0  0.24245544558E+02 -0.30901398724E+02  0.19121347856E+02  0.91587853168E+02  0.80498236192E+02 0.  0.
          5    1    5    5  501    0  0.10381853461E+02  0.27612449404E+02  0.14826345145E+03  0.15124275612E+03  0.47000000000E+01 0. -1.
        -13    1    6    6    0    0  0.58289787916E+00 -0.48211013800E+02  0.33720251223E+02  0.58836187539E+02  0.00000000000E+00 0.  1.
         14    1    6    6    0    0  0.23662646679E+02  0.17309615076E+02 -0.14598903367E+02  0.32751665628E+02  0.00000000000E+00 0. -1.
         -5    1    3    3    0  503 -0.15965969087E+02  0.47014045893E+02  0.10566254720E+03  0.11684133070E+03  0.47000000000E+01 0.  1.
         11    1    4    4    0    0 -0.29886268647E+02 -0.13967487266E+02 -0.28724566334E+02  0.43742204623E+02  0.00000000000E+00 0. -1.
        -12    1    4    4    0    0  0.11224839715E+02 -0.29757609306E+02  0.37588982355E+02  0.49238642678E+02  0.00000000000E+00 0.  1.
</event>
<event>
12    1  0.8251070E-002  0.1756941E+03  0.7818608E-02  0.1173116E+00
         21   -1    0    0  501  502  0.00000000000E+00  0.00000000000E+00  0.50089722849E+03  0.50089722849E+03  0.00000000000E+00 0. -1.
         21   -1    0    0  502  503 -0.00000000000E+00 -0.00000000000E+00 -0.10670172332E+03  0.10670172332E+03  0.00000000000E+00 0. -1.
         -6    2    1    2    0  503  0.29251853278E+02  0.24966459054E+02 -0.49477385124E+01  0.17149834641E+03  0.16705749820E+03 0.  0.
        -24    2    3    3    0    0 -0.12268457237E+02 -0.12305441261E+02 -0.50751213280E+02  0.99157631459E+02  0.83394312154E+02 0.  0.
          6    2    1    2  501    0 -0.29251853278E+02 -0.24966459054E+02  0.39914324368E+03  0.43610060541E+03  0.17143341000E+03 0.  0.
         24    2    5    5    0    0 -0.21652361767E+01 -0.43690404832E+02  0.98845477782E+02  0.13396634854E+03  0.79139208614E+02 0.  0.
          5    1    5    5  501    0 -0.27086617102E+02  0.18723945778E+02  0.30029776590E+03  0.30213425687E+03  0.47000000000E+01 0. -1.
        -13    1    6    6    0    0  0.37871212459E+02 -0.23076321317E+02  0.59204935831E+02  0.73972763673E+02  0.00000000000E+00 0.  1.
         14    1    6    6    0    0 -0.40036448636E+02 -0.20614083515E+02  0.39640541951E+02  0.59993584863E+02  0.00000000000E+00 0. -1.
         -5    1    3    3    0  503  0.41520310516E+02  0.37271900315E+02  0.45803474768E+02  0.72340714948E+02  0.47000000000E+01 0.  1.
         11    1    4    4    0    0 -0.37398986271E+02 -0.25030905081E+02 -0.47975815837E+01  0.45257564808E+02  0.00000000000E+00 0. -1.
        -12    1    4    4    0    0  0.25130529034E+02  0.12725463820E+02 -0.45953631696E+02  0.53900066651E+02  0.00000000000E+00 0.  1.
</event>
<event>
12    1  0.8251070E-002  0.1811386E+03  0.7818608E-02  0.1167175E+00
         21   -1    0    0  501  502  0.00000000000E+00  0.00000000000E+00  0.30474668262E+02  0.30474668262E+02  0.00000000000E+00 0.  1.
         21   -1    0    0  502  503 -0.00000000000E+00 -0.00000000000E+00 -0.13339203625E+04  0.13339203625E+04  0.00000000000E+00 0.  1.
         -6    2    1    2    0  503  0.62698193426E+02  0.20589087650E+01 -0.96076195471E+03  0.97768846166E+03  0.16992907901E+03 0.  0.
        -24    2    3    3    0    0 -0.20524559859E+01 -0.22348180443E+02 -0.77780739979E+03  0.78202852256E+03  0.77978235382E+02 0.  0.
          6    2    1    2  501    0 -0.62698193426E+02 -0.20589087650E+01 -0.34268373955E+03  0.38670656911E+03  0.16785268149E+03 0.  0.
         24    2    5    5    0    0 -0.93436114034E+02  0.18461723228E+02 -0.31818794449E+03  0.34211901394E+03  0.82040898653E+02 0.  0.
          5    1    5    5  501    0  0.30737920608E+02 -0.20520631993E+02 -0.24495795057E+02  0.44587555172E+02  0.47000000000E+01 0. -1.
        -13    1    6    6    0    0 -0.15833126322E+02 -0.28264159297E+02 -0.55650631030E+02  0.64393659035E+02  0.00000000000E+00 0.  1.
         14    1    6    6    0    0 -0.77602987712E+02  0.46725882525E+02 -0.26253731346E+03  0.27772535491E+03  0.00000000000E+00 0. -1.
         -5    1    3    3    0  503  0.64750649412E+02  0.24407089208E+02 -0.18295455492E+03  0.19565993910E+03  0.47000000000E+01 0.  1.
         13    1    4    4    0    0  0.22225313396E+00 -0.51303818593E+02 -0.54702729107E+03  0.54942787368E+03  0.00000000000E+00 0. -1.
        -14    1    4    4    0    0 -0.22747091198E+01  0.28955638149E+02 -0.23078010872E+03  0.23260064889E+03  0.00000000000E+00 0.  1.
</event>
<event>
12    1  0.8251070E-002  0.2263527E+03  0.7818608E-02  0.1129603E+00
         21   -1    0    0  501  502  0.00000000000E+00  0.00000000000E+00  0.30558104790E+03  0.30558104790E+03  0.00000000000E+00 0. -1.
         21   -1    0    0  502  503 -0.00000000000E+00 -0.00000000000E+00 -0.24201071854E+03  0.24201071854E+03  0.00000000000E+00 0. -1.
         -6    2    1    2    0  503 -0.98067881715E+02 -0.10583178514E+03 -0.12140137158E+03  0.25685373196E+03  0.17440719719E+03 0.  0.
        -24    2    3    3    0    0 -0.63106533989E+02 -0.12529919845E+03 -0.13885141679E+03  0.21294621446E+03  0.79900253719E+02 0.  0.
          6    2    1    2  501    0  0.98067881715E+02  0.10583178514E+03  0.18497170095E+03  0.29073803448E+03  0.17174515530E+03 0.  0.
         24    2    5    5    0    0  0.10157018053E+03  0.31808940150E+02  0.16974885061E+03  0.21493913706E+03  0.77819342771E+02 0.  0.
          5    1    5    5  501    0 -0.35022988133E+01  0.74022844995E+02  0.15222850339E+02  0.75798897423E+02  0.47000000000E+01 0. -1.
        -13    1    6    6    0    0  0.33570055949E+02 -0.18518490932E+02  0.20738167412E+02  0.43588470384E+02  0.00000000000E+00 0.  1.
         14    1    6    6    0    0  0.68000124579E+02  0.50327431081E+02  0.14901068320E+03  0.17135066667E+03  0.00000000000E+00 0. -1.
         -5    1    3    3    0  503 -0.34961347725E+02  0.19467413304E+02  0.17450045208E+02  0.43907517503E+02  0.47000000000E+01 0.  1.
         13    1    4    4    0    0  0.15664816486E+02 -0.48564955236E+02 -0.36727641923E+02  0.62871782493E+02  0.00000000000E+00 0. -1.
        -14    1    4    4    0    0 -0.78771350476E+02 -0.76734243212E+02 -0.10212377486E+03  0.15007443197E+03  0.00000000000E+00 0.  1.
</event>
<event>
12    1  0.8251070E-002  0.1980437E+03  0.7818608E-02  0.1151778E+00
         21   -1    0    0  501  502  0.00000000000E+00  0.00000000000E+00  0.37475761617E+02  0.37475761617E+02  0.00000000000E+00 0.  1.
         21   -1    0    0  502  503 -0.00000000000E+00 -0.00000000000E+00 -0.10641754797E+04  0.10641754797E+04  0.00000000000E+00 0. -1.
         -6    2    1    2    0  503 -0.58579753733E+02  0.74915739479E+02 -0.42358263635E+03  0.46685086137E+03  0.17170766255E+03 0.  0.
        -24    2    3    3    0    0 -0.94646086497E+02  0.92387127508E+02 -0.35805770828E+03  0.38989869469E+03  0.79513562640E+02 0.  0.
          6    2    1    2  501    0  0.58579753733E+02 -0.74915739479E+02 -0.60311708176E+03  0.63480037997E+03  0.17371629898E+03 0.  0.
         24    2    5    5    0    0  0.39117992554E+02 -0.73241804748E+02 -0.19638670765E+03  0.22757409223E+03  0.79546522283E+02 0.  0.
          5    1    5    5  501    0  0.19461761179E+02 -0.16739347317E+01 -0.40673037410E+03  0.40722628774E+03  0.47000000000E+01 0. -1.
        -13    1    6    6    0    0 -0.14995278612E+02  0.81921193008E+01 -0.25558638941E+02  0.30744320187E+02  0.00000000000E+00 0.  1.
         14    1    6    6    0    0  0.54113271166E+02 -0.81433924048E+02 -0.17082806871E+03  0.19682977204E+03  0.00000000000E+00 0. -1.
         -5    1    3    3    0  503  0.36066332763E+02 -0.17471388028E+02 -0.65524928069E+02  0.76952166682E+02  0.47000000000E+01 0.  1.
         13    1    4    4    0    0 -0.26674229925E+02 -0.11968407431E+02 -0.81756591009E+02  0.86826824726E+02  0.00000000000E+00 0. -1.
        -14    1    4    4    0    0 -0.67971856572E+02  0.10435553494E+03 -0.27630111727E+03  0.30307186996E+03  0.00000000000E+00 0.  1.
</event>
<event>
12    1  0.8251070E-002  0.2628890E+03  0.7818608E-02  0.1105444E+00
         21   -1    0    0  503  502  0.00000000000E+00  0.00000000000E+00  0.96155433457E+03  0.96155433457E+03  0.00000000000E+00 0. -1.
         21   -1    0    0  501  503 -0.00000000000E+00 -0.00000000000E+00 -0.85532140590E+02  0.85532140590E+02  0.00000000000E+00 0.  1.
          6    2    1    2  501    0 -0.95523033548E+02  0.17309160765E+03  0.22857538782E+03  0.34836378494E+03  0.17327799676E+03 0.  0.
         24    2    3    3    0    0 -0.75464563947E+02  0.20934281021E+02  0.10646709474E+03  0.15218346103E+03  0.75441493986E+02 0.  0.
         -6    2    1    2    0  502  0.95523033548E+02 -0.17309160765E+03  0.64744680615E+03  0.69872269022E+03  0.17303374369E+03 0.  0.
        -24    2    5    5    0    0  0.92831971016E+02 -0.16490502676E+03  0.65501950673E+03  0.68632520183E+03  0.78614793670E+02 0.  0.
          5    1    3    3  501    0 -0.20058469600E+02  0.15215732663E+03  0.12210829309E+03  0.19618032391E+03  0.47000000000E+01 0. -1.
        -11    1    4    4    0    0 -0.15092867699E+01 -0.16143666889E+02 -0.13656903701E+01  0.16271479262E+02  0.00000000000E+00 0.  1.
         12    1    4    4    0    0 -0.73955277177E+02  0.37077947910E+02  0.10783278511E+03  0.13591198177E+03  0.00000000000E+00 0. -1.
         -5    1    5    5    0  502  0.26910625318E+01 -0.81865808914E+01 -0.75727005772E+01  0.12397488386E+02  0.47000000000E+01 0.  1.
         13    1    6    6    0    0  0.48929337540E+02 -0.29016415474E+02  0.26361850452E+03  0.26968638891E+03  0.00000000000E+00 0. -1.
        -14    1    6    6    0    0  0.43902633476E+02 -0.13588861128E+03  0.39140100221E+03  0.41663881293E+03  0.00000000000E+00 0.  1.
</event>
<event>
12    1  0.8251070E-002  0.2000538E+03  0.7818608E-02  0.1149734E+00
         21   -1    0    0  501  502  0.00000000000E+00  0.00000000000E+00  0.12003977312E+03  0.12003977312E+03  0.00000000000E+00 0. -1.
         21   -1    0    0  502  503 -0.00000000000E+00 -0.00000000000E+00 -0.37595323731E+03  0.37595323731E+03  0.00000000000E+00 0.  1.
         -6    2    1    2    0  503  0.10212478673E+03 -0.74308787914E+01 -0.44158616396E+02  0.20468281620E+03  0.17164026864E+03 0.  0.
        -24    2    3    3    0    0  0.12497936122E+03 -0.45323540123E+02 -0.37867408402E+02  0.15974002305E+03  0.80055420327E+02 0.  0.
          6    2    1    2  501    0 -0.10212478673E+03  0.74308787914E+01 -0.21175484780E+03  0.29131019424E+03  0.17186280481E+03 0.  0.
         24    2    5    5    0    0 -0.20962113362E+02 -0.45749839522E+02 -0.14626465628E+03  0.17414952023E+03  0.80014046946E+02 0.  0.
          5    1    5    5  501    0 -0.81162673364E+02  0.53180718313E+02 -0.65490191521E+02  0.11716067401E+03  0.47000000000E+01 0. -1.
        -13    1    6    6    0    0 -0.30886105705E+01  0.15483774390E+02 -0.82348318995E+02  0.83848270262E+02  0.00000000000E+00 0.  1.
         14    1    6    6    0    0 -0.17873502791E+02 -0.61233613912E+02 -0.63916337282E+02  0.90301249971E+02  0.00000000000E+00 0. -1.
         -5    1    3    3    0  503 -0.22854574493E+02  0.37892661332E+02 -0.62912079944E+01  0.44942793150E+02  0.47000000000E+01 0.  1.
         11    1    4    4    0    0  0.73670711433E+02  0.42416924666E+01 -0.47491898032E+02  0.87754464597E+02  0.00000000000E+00 0. -1.
        -12    1    4    4    0    0  0.51308649786E+02 -0.49565232590E+02  0.96244896308E+01  0.71985558449E+02  0.00000000000E+00 0.  1.
</event>
<event>
12    1  0.8251070E-002  0.2497651E+03  0.7818608E-02  0.1113602E+00
         21   -1    0    0  503  502  0.00000000000E+00  0.00000000000E+00  0.12744871992E+04  0.12744871992E+04  0.00000000000E+00 0.  1.
         21   -1    0    0  501  503 -0.00000000000E+00 -0.00000000000E+00 -0.52084441273E+02  0.52084441273E+02  0.00000000000E+00 0.  1.
          6    2    1    2  501    0 -0.10410961880E+03  0.14777810253E+03  0.44480390374E+03  0.51013050820E+03  0.17235266838E+03 0.  0.
         24    2    3    3    0    0 -0.71912499894E+02  0.17436934060E+03  0.39411101668E+03  0.44428518030E+03  0.80559005544E+02 0.  0.
         -6    2    1    2    0  502  0.10410961880E+03 -0.14777810253E+03  0.77759885424E+03  0.81644113232E+03  0.17099404705E+03 0.  0.
        -24    2    5    5    0    0  0.11584904293E+03 -0.58484782832E+02  0.38645146102E+03  0.41503175993E+03  0.77879133670E+02 0.  0.
          5    1    3    3  501    0 -0.32197118909E+02 -0.26591238075E+02  0.50692887055E+02  0.65845327901E+02  0.47000000000E+01 0. -1.
        -11    1    4    4    0    0 -0.73250203177E+02  0.79671305789E+02  0.17778640873E+03  0.20813725366E+03  0.00000000000E+00 0.  1.
         12    1    4    4    0    0  0.13377032829E+01  0.94698034816E+02  0.21632460796E+03  0.23614792664E+03  0.00000000000E+00 0. -1.
         -5    1    5    5    0  502 -0.11739424125E+02 -0.89293319698E+02  0.39114739322E+03  0.40140937239E+03  0.47000000000E+01 0.  1.
         11    1    6    6    0    0  0.24091816243E+02  0.16345368653E+02  0.11959788850E+03  0.12309037989E+03  0.00000000000E+00 0. -1.
        -12    1    6    6    0    0  0.91757226685E+02 -0.74830151485E+02  0.26685357251E+03  0.29194138005E+03  0.00000000000E+00 0.  1.
</event>
<event>
12    1  0.8251070E-002  0.1750361E+03  0.7818608E-02  0.1174236E+00
         21   -1    0    0  501  502  0.00000000000E+00  0.00000000000E+00  0.77135901855E+02  0.77135901855E+02  0.00000000000E+00 0. -1.
         21   -1    0    0  502  503 -0.00000000000E+00 -0.00000000000E+00 -0.14142385719E+04  0.14142385719E+04  0.00000000000E+00 0.  1.
         -6    2    1    2    0  503  0.29007573804E+02 -0.12429699949E+02 -0.13082634500E+04  0.13199207850E+04  0.17216761441E+03 0.  0.
        -24    2    3    3    0    0  0.22881078279E+02 -0.35692798555E+02 -0.29781671334E+03  0.30917680000E+03  0.71400135179E+02 0.  0.
          6    2    1    2  501    0 -0.29007573804E+02  0.12429699949E+02 -0.28839220023E+02  0.17145368867E+03  0.16603833885E+03 0.  0.
         24    2    5    5    0    0 -0.61814276412E+02 -0.37931189539E+02 -0.26883844089E+02  0.11113443452E+03  0.79801889423E+02 0.  0.
          5    1    5    5  501    0  0.32806702608E+02  0.50360889488E+02 -0.19553759348E+01  0.60319254149E+02  0.47000000000E+01 0. -1.
        -11    1    6    6    0    0  0.25530254371E+01 -0.21306596819E+02 -0.38088267224E+02  0.43717331884E+02  0.00000000000E+00 0.  1.
         12    1    6    6    0    0 -0.64367301849E+02 -0.16624592720E+02  0.11204423136E+02  0.67417102639E+02  0.00000000000E+00 0. -1.
         -5    1    3    3    0  503  0.61264955249E+01  0.23263098606E+02 -0.10104467366E+04  0.10107439850E+04  0.47000000000E+01 0.  1.
         11    1    4    4    0    0  0.12835488405E+02  0.21407733534E+02 -0.82783272855E+02  0.86464507645E+02  0.00000000000E+00 0. -1.
        -12    1    4    4    0    0  0.10045589874E+02 -0.57100532089E+02 -0.21503344048E+03  0.22271229236E+03  0.00000000000E+00 0.  1.
</event>
<event>
12    1  0.8251070E-002  0.1792541E+03  0.7818608E-02  0.1169934E+00
         21   -1    0    0  501  502  0.00000000000E+00  0.00000000000E+00  0.98291668341E+02  0.98291668341E+02  0.00000000000E+00 0. -1.
         21   -1    0    0  502  503 -0.00000000000E+00 -0.00000000000E+00 -0.52439738130E+03  0.52439738130E+03  0.00000000000E+00 0. -1.
         -6    2    1    2    0  503  0.34301244426E+02 -0.44487987594E+02 -0.41108800689E+03  0.44847005982E+03  0.17022423075E+03 0.  0.
        -24    2    3    3    0    0 -0.12092620537E+02 -0.83199730448E+02 -0.23186867935E+03  0.25928061216E+03  0.79968273462E+02 0.  0.
          6    2    1    2  501    0 -0.34301244426E+02  0.44487987594E+02 -0.15017706067E+02  0.17421898982E+03  0.16422840348E+03 0.  0.
         24    2    5    5    0    0 -0.67357631472E+02  0.53915224081E+02 -0.32603357795E+02  0.13532242623E+03  0.99021604696E+02 0.  0.
          5    1    5    5  501    0  0.33056387047E+02 -0.94272364875E+01  0.17585651728E+02  0.38896563589E+02  0.47000000000E+01 0. -1.
        -11    1    6    6    0    0 -0.24052874130E+02  0.82723446760E+01 -0.61152172327E+02  0.66231115200E+02  0.00000000000E+00 0.  1.
         12    1    6    6    0    0 -0.43304757343E+02  0.45642879405E+02  0.28548814532E+02  0.69091311032E+02  0.00000000000E+00 0. -1.
         -5    1    3    3    0  503  0.46393864963E+02  0.38711742854E+02 -0.17921932754E+03  0.18918944765E+03  0.47000000000E+01 0.  1.
         11    1    4    4    0    0 -0.32603272254E+02 -0.66685103919E+01 -0.10051679533E+03  0.10588233344E+03  0.00000000000E+00 0. -1.
        -12    1    4    4    0    0  0.20510651716E+02 -0.76531220056E+02 -0.13135188403E+03  0.15339827872E+03  0.00000000000E+00 0.  1.
</event>
<event>
12    1  0.8251070E-002  0.2748475E+03  0.7818608E-02  0.1098565E+00
         21   -1    0    0  503  502  0.00000000000E+00  0.00000000000E+00  0.19317380825E+03  0.19317380825E+03  0.00000000000E+00 0.  1.
         21   -1    0    0  501  503 -0.00000000000E+00 -0.00000000000E+00 -0.60098694191E+03  0.60098694191E+03  0.00000000000E+00 0.  1.
          6    2    1    2  501    0  0.61395153982E+02 -0.20523279085E+03 -0.43870509433E+03  0.51758265065E+03  0.17187139695E+03 0.  0.
         24    2    3    3    0    0  0.87077047115E+02 -0.14580855454E+03 -0.21805128468E+03  0.28758049151E+03  0.79458351575E+02 0.  0.
         -6    2    1    2    0  502 -0.61395153982E+02  0.20523279085E+03  0.30891960675E+02  0.27657809951E+03  0.17219543700E+03 0.  0.
        -24    2    5    5    0    0 -0.76800449155E+02  0.21033554889E+03  0.58377850770E+02  0.24431472378E+03  0.78373201275E+02 0.  0.
          5    1    3    3  501    0 -0.25681893133E+02 -0.59424236307E+02 -0.22065380965E+03  0.23000215914E+03  0.47000000000E+01 0. -1.
        -13    1    4    4    0    0  0.34823279679E+02 -0.53545869651E+02 -0.14606689123E+03  0.15942194855E+03  0.00000000000E+00 0.  1.
         14    1    4    4    0    0  0.52253767437E+02 -0.92262684888E+02 -0.71984393445E+02  0.12815854296E+03  0.00000000000E+00 0. -1.
         -5    1    5    5    0  502  0.15405295173E+02 -0.51027580476E+01 -0.27485890095E+02  0.32263375728E+02  0.47000000000E+01 0.  1.
         11    1    6    6    0    0  0.15242784678E+02  0.27782280952E+02  0.16099615734E+02  0.35544271640E+02  0.00000000000E+00 0. -1.
        -12    1    6    6    0    0 -0.92043233833E+02  0.18255326794E+03  0.42278235036E+02  0.20877045214E+03  0.00000000000E+00 0.  1.
</event>
<event>
12    1  0.8251070E-002  0.1956117E+03  0.7818608E-02  0.1153576E+00
         21   -1    0    0  503  502  0.00000000000E+00  0.00000000000E+00  0.56558762475E+02  0.56558762475E+02  0.00000000000E+00 0. -1.
         21   -1    0    0  501  503 -0.00000000000E+00 -0.00000000000E+00 -0.19267078760E+04  0.19267078760E+04  0.00000000000E+00 0. -1.
          6    2    1    2  501    0 -0.23164064533E+02  0.88192848272E+02 -0.17345818232E+04  0.17455767077E+04  0.17305891672E+03 0.  0.
         24    2    3    3    0    0 -0.45579252425E+02  0.99808823413E+02 -0.86034155862E+03  0.87095936179E+03  0.79645106038E+02 0.  0.
         -6    2    1    2    0  502  0.23164064533E+02 -0.88192848272E+02 -0.13556729028E+03  0.23768993075E+03  0.17263678812E+03 0.  0.
        -24    2    5    5    0    0  0.60418698960E+02 -0.50870358897E+02 -0.25954971767E+02  0.11596143626E+03  0.80840469708E+02 0.  0.
          5    1    3    3  501    0  0.22415187892E+02 -0.11615975140E+02 -0.87424026457E+03  0.87461734589E+03  0.47000000000E+01 0. -1.
        -13    1    4    4    0    0  0.14511399083E+02  0.63367947982E+02 -0.38468379825E+03  0.39013805527E+03  0.00000000000E+00 0.  1.
         14    1    4    4    0    0 -0.60090651508E+02  0.36440875431E+02 -0.47565776038E+03  0.48082130653E+03  0.00000000000E+00 0. -1.
         -5    1    5    5    0  502 -0.37254634428E+02 -0.37322489375E+02 -0.10961231851E+03  0.12172849448E+03  0.47000000000E+01 0.  1.
         11    1    6    6    0    0 -0.14651407836E+02 -0.24677403992E+01  0.11814722224E+02  0.18982654069E+02  0.00000000000E+00 0. -1.
        -12    1    6    6    0    0  0.75070106796E+02 -0.48402618498E+02 -0.37769693991E+02  0.96978782195E+02  0.00000000000E+00 0.  1.
</event>
<event>
12    1  0.8251070E-002  0.1747690E+03  0.7818608E-02  0.1174020E+00
         21   -1    0    0  501  502  0.00000000000E+00  0.00000000000E+00  0.33266352265E+03  0.33266352265E+03  0.00000000000E+00 0. -1.
         21   -1    0    0  502  503 -0.00000000000E+00 -0.00000000000E+00 -0.15512184609E+03  0.15512184609E+03  0.00000000000E+00 0. -1.
         -6    2    1    2    0  503 -0.40330861430E+02 -0.54384215536E+01 -0.69053535718E+02  0.18791647862E+03  0.16996487087E+03 0.  0.
        -24    2    3    3    0    0 -0.39939747959E+02  0.26391123712E+01 -0.11227812153E+03  0.14369143659E+03  0.80241535348E+02 0.  0.
          6    2    1    2  501    0  0.40330861430E+02  0.54384215536E+01  0.24659521228E+03  0.29986889012E+03  0.16569851457E+03 0.  0.
         24    2    5    5    0    0 -0.14088147859E+02  0.91055664281E+01  0.32578479504E+02  0.78961379088E+02  0.69943940485E+02 0.  0.
          5    1    5    5  501    0  0.54419009289E+02 -0.36671448744E+01  0.21401673277E+03  0.22090751103E+03  0.47000000000E+01 0. -1.
        -13    1    6    6    0    0 -0.25634738416E+02 -0.75913698646E+01 -0.12507260825E+02  0.29516102104E+02  0.00000000000E+00 0.  1.
         14    1    6    6    0    0  0.11546590557E+02  0.16696936293E+02  0.45085740329E+02  0.49445276984E+02  0.00000000000E+00 0. -1.
         -5    1    3    3    0  503 -0.39111347106E+00 -0.80775339248E+01  0.43224585808E+02  0.44225042028E+02  0.47000000000E+01 0.  1.
         11    1    4    4    0    0  0.61229830768E+01  0.33387172377E+02 -0.36661061183E+02  0.49962261840E+02  0.00000000000E+00 0. -1.
        -12    1    4    4    0    0 -0.46062731036E+02 -0.30748060006E+02 -0.75617060343E+02  0.93729174751E+02  0.00000000000E+00 0.  1.
</event>
<event>
12    1  0.8251070E-002  0.1723643E+03  0.7818608E-02  0.1175610E+00
         21   -1    0    0  503  502  0.00000000000E+00  0.00000000000E+00  0.78668808798E+02  0.78668808798E+02  0.00000000000E+00 0. -1.
         21   -1    0    0  501  503 -0.00000000000E+00 -0.00000000000E+00 -0.41044271587E+03  0.41044271587E+03  0.00000000000E+00 0. -1.
          6    2    1    2  501    0  0.58988371337E+01  0.14607357197E+01 -0.23718419596E+03  0.29319921665E+03  0.17225709798E+03 0.  0.
         24    2    3    3    0    0  0.36347856545E+02  0.18561300801E+02 -0.23917162430E+03  0.25790598811E+03  0.87445664693E+02 0.  0.
         -6    2    1    2    0  502 -0.58988371337E+01 -0.14607357197E+01 -0.94589711107E+02  0.19591230801E+03  0.17145695948E+03 0.  0.
        -24    2    5    5    0    0  0.17042777680E+02 -0.15938558147E+02 -0.12238189190E+03  0.15679172078E+03  0.95193604470E+02 0.  0.
          5    1    3    3  501    0 -0.30449019411E+02 -0.17100565081E+02  0.19874283369E+01  0.35293228537E+02  0.47000000000E+01 0. -1.
        -11    1    4    4    0    0  0.25600341084E+02  0.80659356417E+01 -0.10626911269E+02  0.28868114322E+02  0.00000000000E+00 0.  1.
         12    1    4    4    0    0  0.10747515461E+02  0.10495365159E+02 -0.22854471303E+03  0.22903787379E+03  0.00000000000E+00 0. -1.
         -5    1    5    5    0  502 -0.22941614814E+02  0.14477822427E+02  0.27792180792E+02  0.39120587235E+02  0.47000000000E+01 0.  1.
         13    1    6    6    0    0 -0.37282432250E+01 -0.24889109712E+02  0.64576040049E+01  0.25982075154E+02  0.00000000000E+00 0. -1.
        -14    1    6    6    0    0  0.20771020905E+02  0.89505515657E+01 -0.12883949590E+03  0.13080964562E+03  0.00000000000E+00 0.  1.
</event>
<event>
12    1  0.8251070E-002  0.1747687E+03  0.7818608E-02  0.1172981E+00
         21   -1    0    0  503  502  0.00000000000E+00  0.00000000000E+00  0.19721381604E+03  0.19721381604E+03  0.00000000000E+00 0.  1.
         21   -1    0    0  501  503 -0.00000000000E+00 -0.00000000000E+00 -0.15509729107E+04  0.15509729107E+04  0.00000000000E+00 0.  1.
          6    2    1    2  501    0 -0.11193136888E+02  0.23262008636E+02 -0.15061870261E+04  0.15162851157E+04  0.17278537867E+03 0.  0.
         24    2    3    3    0    0 -0.51156930097E+02  0.41609907222E+02 -0.13542745280E+04  0.13580661306E+04  0.77043507943E+02 0.  0.
         -6    2    1    2    0  502  0.11193136888E+02 -0.23262008636E+02  0.15242793147E+03  0.23190161102E+03  0.17285159977E+03 0.  0.
        -24    2    5    5    0    0 -0.52794918244E+02 -0.23041279689E+02  0.13218537823E+03  0.16462330187E+03  0.79433326362E+02 0.  0.
          5    1    3    3  501    0  0.39963793209E+02 -0.18347898586E+02 -0.15191249816E+03  0.15821898511E+03  0.47000000000E+01 0. -1.
        -13    1    4    4    0    0  0.12542906899E+02  0.25271056047E+02 -0.68188534999E+03  0.68246874018E+03  0.00000000000E+00 0.  1.
         14    1    4    4    0    0 -0.63699836996E+02  0.16338851175E+02 -0.67238917796E+03  0.67559739041E+03  0.00000000000E+00 0. -1.
         -5    1    5    5    0  502  0.63988055132E+02 -0.22072894695E+00  0.20242553239E+02  0.67278309153E+02  0.47000000000E+01 0.  1.
         11    1    6    6    0    0 -0.37459499369E+02  0.90675918018E+01  0.13689865182E+02  0.40900461156E+02  0.00000000000E+00 0. -1.
        -12    1    6    6    0    0 -0.15335418875E+02 -0.32108871491E+02  0.11849551305E+03  0.12372284071E+03  0.00000000000E+00 0.  1.
</event>
<event>
12    1  0.8251070E-002  0.2406501E+03  0.7818608E-02  0.1119442E+00
         21   -1    0    0  501  502  0.00000000000E+00  0.00000000000E+00  0.78216383184E+02  0.78216383184E+02  0.00000000000E+00 0.  1.
         21   -1    0    0  502  503 -0.00000000000E+00 -0.00000000000E+00 -0.78720033492E+03  0.78720033492E+03  0.00000000000E+00 0.  1.
         -6    2    1    2    0  503 -0.50069518727E+02  0.16107265413E+03 -0.46200398512E+03  0.52092239266E+03  0.17164236159E+03 0.  0.
        -24    2    3    3    0    0 -0.45135153277E+02  0.10203953894E+03 -0.14106724195E+03  0.19453038944E+03  0.74113805012E+02 0.  0.
          6    2    1    2  501    0  0.50069518727E+02 -0.16107265413E+03 -0.24697996662E+03  0.34449432545E+03  0.17095578300E+03 0.  0.
         24    2    5    5    0    0  0.85761803339E+02 -0.16648838154E+03 -0.20877677843E+03  0.29172271498E+03  0.80255411796E+02 0.  0.
          5    1    5    5  501    0 -0.35692284612E+02  0.54157274063E+01 -0.38203188187E+02  0.52771610472E+02  0.47000000000E+01 0. -1.
        -13    1    6    6    0    0  0.55845436581E+02 -0.74760247959E+02 -0.49836548785E+02  0.10578983437E+03  0.00000000000E+00 0.  1.
         14    1    6    6    0    0  0.29916366758E+02 -0.91728133578E+02 -0.15894022965E+03  0.18593288061E+03  0.00000000000E+00 0. -1.
         -5    1    3    3    0  503 -0.49343654499E+01  0.59033115187E+02 -0.32093674317E+03  0.32639200322E+03  0.47000000000E+01 0.  1.
         13    1    4    4    0    0  0.13502769973E+01 -0.10196079763E+02 -0.31864697598E+01  0.10767398945E+02  0.00000000000E+00 0. -1.
        -14    1    4    4    0    0 -0.46485430274E+02  0.11223561871E+03 -0.13788077219E+03  0.18376299049E+03  0.00000000000E+00 0.  1.
</event>
<event>
12    1  0.8251070E-002  0.2367018E+03  0.7818608E-02  0.1122239E+00
         21   -1    0    0  501  502  0.00000000000E+00  0.00000000000E+00  0.68487290520E+02  0.68487290520E+02  0.00000000000E+00 0. -1.
         21   -1    0    0  502  503 -0.00000000000E+00 -0.00000000000E+00 -0.92996552662E+03  0.92996552662E+03  0.00000000000E+00 0. -1.
         -6    2    1    2    0  503 -0.93159590076E+02 -0.13297402737E+03 -0.60853930800E+03  0.65295316022E+03  0.17224093265E+03 0.  0.
        -24    2    3    3    0    0 -0.75516773167E+02 -0.58769775349E+02 -0.52626751825E+03  0.54066657422E+03  0.78779275140E+02 0.  0.
          6    2    1    2  501    0  0.93159590076E+02  0.13297402737E+03 -0.25293892810E+03  0.34549965692E+03  0.17038518247E+03 0.  0.
         24    2    5    5    0    0  0.76277795109E+02  0.10887465851E+02 -0.14837390901E+03  0.18380223356E+03  0.76364947765E+02 0.  0.
          5    1    5    5  501    0  0.16881794967E+02  0.12208656152E+03 -0.10456501909E+03  0.16169742336E+03  0.47000000000E+01 0. -1.
        -13    1    6    6    0    0 -0.15032462438E+02  0.82170140396E+01 -0.23082095347E+02  0.28745040829E+02  0.00000000000E+00 0.  1.
         14    1    6    6    0    0  0.91310257547E+02  0.26704518118E+01 -0.12529181366E+03  0.15505719273E+03  0.00000000000E+00 0. -1.
         -5    1    3    3    0  503 -0.17642816909E+02 -0.74204252020E+02 -0.82271789752E+02  0.11228658600E+03  0.47000000000E+01 0.  1.
         11    1    4    4    0    0 -0.87962394784E+01 -0.55196250767E+02 -0.27814022459E+03  0.28370051897E+03  0.00000000000E+00 0. -1.
        -12    1    4    4    0    0 -0.66720533688E+02 -0.35735245817E+01 -0.24812729366E+03  0.25696605525E+03  0.00000000000E+00 0.  1.
</event>
<event>
12    1  0.8251070E-002  0.2584045E+03  0.7818608E-02  0.1108184E+00
         21   -1    0    0  503  502  0.00000000000E+00  0.00000000000E+00  0.82153317632E+02  0.82153317632E+02  0.00000000000E+00 0. -1.
         21   -1    0    0  501  503 -0.00000000000E+00 -0.00000000000E+00 -0.25612124351E+04  0.25612124351E+04  0.00000000000E+00 0. -1.
          6    2    1    2  501    0  0.68957285179E+02  0.18033259190E+03 -0.23316583959E+04  0.23458764858E+04  0.17096976459E+03 0.  0.
         24    2    3    3    0    0 -0.88923614071E+01  0.95221885435E+02 -0.72444000036E+03  0.73451759936E+03  0.74541988773E+02 0.  0.
         -6    2    1    2    0  502 -0.68957285179E+02 -0.18033259190E+03 -0.14740072155E+03  0.29748926695E+03  0.17174964442E+03 0.  0.
        -24    2    5    5    0    0 -0.16687564334E+02 -0.84311186539E+02 -0.39540790374E+01  0.11706958052E+03  0.79390181778E+02 0.  0.
          5    1    3    3  501    0  0.77849646586E+02  0.85110706463E+02 -0.16072183955E+04  0.16113588864E+04  0.47000000000E+01 0. -1.
        -13    1    4    4    0    0 -0.10546778240E+02 -0.10302261776E+02 -0.12397450253E+03  0.12484810133E+03  0.00000000000E+00 0.  1.
         14    1    4    4    0    0  0.16544168326E+01  0.10552414721E+03 -0.60046549783E+03  0.60966949802E+03  0.00000000000E+00 0. -1.
         -5    1    5    5    0  502 -0.52269720845E+02 -0.96021405359E+02 -0.14344664251E+03  0.18041968643E+03  0.47000000000E+01 0.  1.
         13    1    6    6    0    0 -0.28204712956E+02 -0.89292691342E+02 -0.20937342522E+02  0.95953441168E+02  0.00000000000E+00 0. -1.
        -14    1    6    6    0    0  0.11517148622E+02  0.49815048035E+01  0.16983263485E+02  0.21116139351E+02  0.00000000000E+00 0.  1.
</event>
<event>
12    1  0.8251070E-002  0.2214979E+03  0.7818608E-02  0.1132862E+00
         21   -1    0    0  503  502  0.00000000000E+00  0.00000000000E+00  0.60654850271E+02  0.60654850271E+02  0.00000000000E+00 0. -1.
         21   -1    0    0  501  503 -0.00000000000E+00 -0.00000000000E+00 -0.12064944898E+04  0.12064944898E+04  0.00000000000E+00 0.  1.
          6    2    1    2  501    0 -0.59358370288E+02 -0.12563638597E+03 -0.93703905526E+03  0.96274992548E+03  0.17186422061E+03 0.  0.
         24    2    3    3    0    0  0.16931470161E+02 -0.53441519648E+02 -0.62714069409E+03  0.63550181970E+03  0.86107153919E+02 0.  0.
         -6    2    1    2    0  502  0.59358370288E+02  0.12563638597E+03 -0.20880058428E+03  0.30439941460E+03  0.17249174476E+03 0.  0.
        -24    2    5    5    0    0  0.50198130745E+02  0.15529348499E+03 -0.20266501426E+03  0.27241209321E+03  0.80618370816E+02 0.  0.
          5    1    3    3  501    0 -0.76289840449E+02 -0.72194866327E+02 -0.30989836117E+03  0.32724810578E+03  0.47000000000E+01 0. -1.
        -11    1    4    4    0    0  0.21287553017E+02 -0.34236752145E+02 -0.97647505669E+02  0.10564255996E+03  0.00000000000E+00 0.  1.
         12    1    4    4    0    0 -0.43560828565E+01 -0.19204767503E+02 -0.52949318842E+03  0.52985925974E+03  0.00000000000E+00 0. -1.
         -5    1    5    5    0  502  0.91602395432E+01 -0.29657099010E+02 -0.61355700169E+01  0.31987321389E+02  0.47000000000E+01 0.  1.
         13    1    6    6    0    0 -0.75801658937E+01  0.34025255169E+02 -0.77797377081E+01  0.35716959881E+02  0.00000000000E+00 0. -1.
        -14    1    6    6    0    0  0.57778296639E+02  0.12126822982E+03 -0.19488527655E+03  0.23669513333E+03  0.00000000000E+00 0.  1.
</event>
<event>
12    1  0.8251070E-002  0.1738223E+03  0.7818608E-02  0.1174492E+00
         21   -1    0    0  503  502  0.00000000000E+00  0.00000000000E+00  0.19750228520E+03  0.19750228520E+03  0.00000000000E+00 0.  1.
         21   -1    0    0  501  503 -0.00000000000E+00 -0.00000000000E+00 -0.16338187104E+03  0.16338187104E+03  0.00000000000E+00 0.  1.
          6    2    1    2  501    0 -0.10076325114E+02  0.68544498213E+01  0.66811322990E+02  0.18622019774E+03  0.17339461744E+03 0.  0.
         24    2    3    3    0    0  0.43625943916E+01  0.58784752861E+02  0.12541635787E+01  0.10121978645E+03  0.82275104642E+02 0.  0.
         -6    2    1    2    0  502  0.10076325114E+02 -0.68544498213E+01 -0.32690908827E+02  0.17466395849E+03  0.17114405355E+03 0.  0.
        -24    2    5    5    0    0  0.64361380711E+02 -0.35503533762E+02 -0.39428227097E+01  0.10672148483E+03  0.77272512819E+02 0.  0.
          5    1    3    3  501    0 -0.14438919506E+02 -0.51930303040E+02  0.65557159411E+02  0.85000411295E+02  0.47000000000E+01 0. -1.
        -13    1    4    4    0    0 -0.13588278256E+02  0.28633553711E+02  0.38620040232E+02  0.49960276336E+02  0.00000000000E+00 0.  1.
         14    1    4    4    0    0  0.17950872648E+02  0.30151199150E+02 -0.37365876653E+02  0.51259510113E+02  0.00000000000E+00 0. -1.
         -5    1    5    5    0  502 -0.54285055596E+02  0.28649083941E+02 -0.28748086117E+02  0.67942473661E+02  0.47000000000E+01 0.  1.
         13    1    6    6    0    0  0.52790340539E+02 -0.59692646134E+02 -0.51246243965E+00  0.79688736183E+02  0.00000000000E+00 0. -1.
        -14    1    6    6    0    0  0.11571040172E+02  0.24189112372E+02 -0.34303602700E+01  0.27032748650E+02  0.00000000000E+00 0.  1.
</event>
<event>
12    1  0.8251070E-002  0.2142099E+03  0.7818608E-02  0.1139156E+00
         21   -1    0    0  501  502  0.00000000000E+00  0.00000000000E+00  0.85593258837E+02  0.85593258837E+02  0.00000000000E+00 0.  1.
         21   -1    0    0  502  503 -0.00000000000E+00 -0.00000000000E+00 -0.57892642992E+03  0.57892642992E+03  0.00000000000E+00 0. -1.
         -6    2    1    2    0  503  0.30009356254E+02  0.11653131818E+03 -0.34582734601E+03  0.40443537682E+03  0.17173034443E+03 0.  0.
        -24    2    3    3    0    0 -0.34019783736E+02  0.12707769296E+02 -0.13355058207E+03  0.15956280878E+03  0.79408430841E+02 0.  0.
          6    2    1    2  501    0 -0.30009356254E+02 -0.11653131818E+03 -0.14750582507E+03  0.26008431193E+03  0.17721673539E+03 0.  0.
         24    2    5    5    0    0  0.43530473925E+02 -0.49419160430E+02 -0.11650260128E+03  0.15570309606E+03  0.79582928072E+02 0.  0.
          5    1    5    5  501    0 -0.73539830179E+02 -0.67112157754E+02 -0.31003223791E+02  0.10438121587E+03  0.47000000000E+01 0. -1.
        -13    1    6    6    0    0 -0.22298934222E+02 -0.33402936950E+01 -0.31428721396E+02  0.38680286426E+02  0.00000000000E+00 0.  1.
         14    1    6    6    0    0  0.65829408147E+02 -0.46078866735E+02 -0.85073879887E+02  0.11702280964E+03  0.00000000000E+00 0. -1.
         -5    1    3    3    0  503  0.64029139989E+02  0.10382354889E+03 -0.21227676394E+03  0.24487256804E+03  0.47000000000E+01 0.  1.
         11    1    4    4    0    0 -0.51993611200E+02  0.27745630852E+02 -0.11657678550E+03  0.13062657675E+03  0.00000000000E+00 0. -1.
        -12    1    4    4    0    0  0.17973827464E+02 -0.15037861556E+02 -0.16973796570E+02  0.28936232027E+02  0.00000000000E+00 0.  1.
</event>
<event>
12    1  0.8251070E-002  0.1723496E+03  0.7818608E-02  0.1175875E+00
         21   -1    0    0  503  502  0.00000000000E+00  0.00000000000E+00  0.12986788648E+04  0.12986788648E+04  0.00000000000E+00 0. -1.
         21   -1    0    0  501  503 -0.00000000000E+00 -0.00000000000E+00 -0.42909853444E+02  0.42909853444E+02  0.00000000000E+00 0. -1.
          6    2    1    2  501    0 -0.43936890249E+01  0.13516228905E+02  0.16512715241E+03  0.23741298497E+03  0.16998810553E+03 0.  0.
         24    2    3    3    0    0  0.37615544743E+02 -0.17791832432E+01  0.28533958331E+02  0.93612720633E+02  0.80814973780E+02 0.  0.
         -6    2    1    2    0  502  0.43936890249E+01 -0.13516228905E+02  0.10906418590E+04  0.11041757333E+04  0.17176260513E+03 0.  0.
        -24    2    5    5    0    0 -0.51891398414E+02 -0.40801652729E+02  0.66744033036E+03  0.67635085179E+03  0.87271920050E+02 0.  0.
          5    1    3    3  501    0 -0.42009233768E+02  0.15295412148E+02  0.13659319408E+03  0.14380026434E+03  0.47000000000E+01 0. -1.
        -11    1    4    4    0    0  0.30572585579E+02 -0.29847830894E+02  0.43550337723E+02  0.61009900130E+02  0.00000000000E+00 0.  1.
         12    1    4    4    0    0  0.70429591644E+01  0.28068647651E+02 -0.15016379392E+02  0.32602820504E+02  0.00000000000E+00 0. -1.
         -5    1    5    5    0  502  0.56285087439E+02  0.27285423824E+02  0.42320152862E+03  0.42782488152E+03  0.47000000000E+01 0.  1.
         13    1    6    6    0    0  0.10537364825E+02 -0.33814054792E+02  0.40292140661E+03  0.40447507496E+03  0.00000000000E+00 0. -1.
        -14    1    6    6    0    0 -0.62428763239E+02 -0.69875979367E+01  0.26451892375E+03  0.27187577683E+03  0.00000000000E+00 0.  1.
</event>
<event>
12    1  0.8251070E-002  0.1766624E+03  0.7818608E-02  0.1171763E+00
         21   -1    0    0  503  502  0.00000000000E+00  0.00000000000E+00  0.22568136193E+03  0.22568136193E+03  0.00000000000E+00 0.  1.
         21   -1    0    0  501  503 -0.00000000000E+00 -0.00000000000E+00 -0.13642035643E+03  0.13642035643E+03  0.00000000000E+00 0.  1.
          6    2    1    2  501    0 -0.22368430205E+01  0.40816560571E+02  0.36058614811E+02  0.17760210038E+03  0.16903043298E+03 0.  0.
         24    2    3    3    0    0  0.35647172749E+02  0.30574345855E+01  0.72841825129E+02  0.11251719577E+03  0.77936634679E+02 0.  0.
         -6    2    1    2    0  502  0.22368430205E+01 -0.40816560571E+02  0.53202390688E+02  0.18449961798E+03  0.17186802954E+03 0.  0.
        -24    2    5    5    0    0  0.37775785282E+02 -0.43075175625E+02 -0.22991907168E+02  0.10026317228E+03  0.79003767069E+02 0.  0.
          5    1    3    3  501    0 -0.37884015769E+02  0.37759125985E+02 -0.36783210318E+02  0.65084904604E+02  0.47000000000E+01 0. -1.
        -11    1    4    4    0    0 -0.10714242220E+02 -0.27977927332E+02  0.26127525979E+02  0.39751817794E+02  0.00000000000E+00 0.  1.
         12    1    4    4    0    0  0.46361414969E+02  0.31035361917E+02  0.46714299149E+02  0.72765377978E+02  0.00000000000E+00 0. -1.
         -5    1    5    5    0  502 -0.35538942261E+02  0.22586150548E+01  0.76194297856E+02  0.84236445704E+02  0.47000000000E+01 0.  1.
         11    1    6    6    0    0  0.21976503162E+02 -0.62287843097E+02  0.49422563862E+00  0.66052905674E+02  0.00000000000E+00 0. -1.
        -12    1    6    6    0    0  0.15799282120E+02  0.19212667472E+02 -0.23486132807E+02  0.34210266604E+02  0.00000000000E+00 0.  1.
</event>
<event>
12    1  0.8251070E-002  0.3146114E+03  0.7818608E-02  0.1078320E+00
         21   -1    0    0  501  502  0.00000000000E+00  0.00000000000E+00  0.24303742997E+03  0.24303742997E+03  0.00000000000E+00 0.  1.
         21   -1    0    0  502  503 -0.00000000000E+00 -0.00000000000E+00 -0.50349373298E+03  0.50349373298E+03  0.00000000000E+00 0. -1.
         -6    2    1    2    0  503 -0.32364668900E+02 -0.26138171429E+03  0.34703363457E+02  0.31513859432E+03  0.16952916516E+03 0.  0.
        -24    2    3    3    0    0 -0.59128444133E+02 -0.25330741636E+03  0.57433172914E+02  0.27880364985E+03  0.82292683341E+02 0.  0.
          6    2    1    2  501    0  0.32364668900E+02  0.26138171429E+03 -0.29515966647E+03  0.43139256864E+03  0.17208267550E+03 0.  0.
         24    2    5    5    0    0  0.58755703910E+02  0.25672072790E+03 -0.29583525656E+03  0.40417569988E+03  0.80509207401E+02 0.  0.
          5    1    5    5  501    0 -0.26391035009E+02  0.46609863907E+01  0.67559008795E+00  0.27216868757E+02  0.47000000000E+01 0. -1.
        -13    1    6    6    0    0  0.48636955185E+02  0.22641089378E+03 -0.21010707933E+03  0.31268583437E+03  0.00000000000E+00 0.  1.
         14    1    6    6    0    0  0.10118748725E+02  0.30309834115E+02 -0.85728177223E+02  0.91489865503E+02  0.00000000000E+00 0. -1.
         -5    1    3    3    0  503  0.26763775233E+02 -0.80742979286E+01 -0.22729809457E+02  0.36334944471E+02  0.47000000000E+01 0.  1.
         11    1    4    4    0    0 -0.24862644094E+02 -0.52084078270E+02 -0.19122797136E+02  0.60799536601E+02  0.00000000000E+00 0. -1.
        -12    1    4    4    0    0 -0.34265800039E+02 -0.20122333809E+03  0.76555970050E+02  0.21800411325E+03  0.00000000000E+00 0.  1.
</event>
<event>
12    1  0.8251070E-002  0.1841080E+03  0.7818608E-02  0.1164160E+00
         21   -1    0    0  501  502  0.00000000000E+00  0.00000000000E+00  0.10686034164E+04  0.10686034164E+04  0.00000000000E+00 0.  1.
         21   -1    0    0  502  503 -0.00000000000E+00 -0.00000000000E+00 -0.34859376285E+02  0.34859376285E+02  0.00000000000E+00 0.  1.
         -6    2    1    2    0  503 -0.14698540625E+02  0.61043474629E+02  0.34461185402E+03  0.39016136007E+03  0.17183190645E+03 0.  0.
        -24    2    3    3    0    0  0.43553890773E+00  0.57078593745E+02  0.84457705571E+02  0.12949484593E+03  0.79860224979E+02 0.  0.
          6    2    1    2  501    0  0.14698540625E+02 -0.61043474629E+02  0.68913218611E+03  0.71330143262E+03  0.17307053751E+03 0.  0.
         24    2    5    5    0    0  0.20548959919E+02  0.33711284430E+02  0.34272676854E+03  0.35409189058E+03  0.79754113686E+02 0.  0.
          5    1    5    5  501    0 -0.58504192934E+01 -0.94754759060E+02  0.34640541757E+03  0.35920954204E+03  0.47000000000E+01 0. -1.
        -13    1    6    6    0    0  0.36627599816E+02 -0.10362556594E+02  0.20738217565E+03  0.21084669887E+03  0.00000000000E+00 0.  1.
         14    1    6    6    0    0 -0.16078639897E+02  0.44073841025E+02  0.13534459289E+03  0.14324519171E+03  0.00000000000E+00 0. -1.
         -5    1    3    3    0  503 -0.15134079533E+02  0.39648808847E+01  0.26015414845E+03  0.26066651415E+03  0.47000000000E+01 0.  1.
         11    1    4    4    0    0  0.28444176080E+02 -0.35517405722E+01  0.40204555183E+02  0.49377041947E+02  0.00000000000E+00 0. -1.
        -12    1    4    4    0    0 -0.28008637172E+02  0.60630334317E+02  0.44253150388E+02  0.80117803982E+02  0.00000000000E+00 0.  1.
</event>
<event>
12    1  0.8251070E-002  0.1804423E+03  0.7818608E-02  0.1167644E+00
         21   -1    0    0  503  502  0.00000000000E+00  0.00000000000E+00  0.50752134230E+02  0.50752134230E+02  0.00000000000E+00 0. -1.
         21   -1    0    0  501  503 -0.00000000000E+00 -0.00000000000E+00 -0.66627012061E+03  0.66627012061E+03  0.00000000000E+00 0. -1.
          6    2    1    2  501    0  0.47990458963E+02 -0.23596227748E+02 -0.38121056163E+03  0.42128692792E+03  0.17117627529E+03 0.  0.
         24    2    3    3    0    0  0.81337966852E+01  0.22362485406E+02 -0.86335035151E+02  0.12016498757E+03  0.80122696793E+02 0.  0.
         -6    2    1    2    0  502 -0.47990458963E+02  0.23596227748E+02 -0.23430742475E+03  0.29573532692E+03  0.17233556853E+03 0.  0.
        -24    2    5    5    0    0 -0.47899303179E+02 -0.25291262546E+02 -0.55174785289E+02  0.10999198912E+03  0.78230361965E+02 0.  0.
          5    1    3    3  501    0  0.39856662277E+02 -0.45958713154E+02 -0.29487552648E+03  0.30112194035E+03  0.47000000000E+01 0. -1.
        -13    1    4    4    0    0 -0.35462489702E+02  0.58555883999E+01 -0.28430612261E+02  0.45827675098E+02  0.00000000000E+00 0.  1.
         14    1    4    4    0    0  0.43596286387E+02  0.16506897006E+02 -0.57904422889E+02  0.74337312473E+02  0.00000000000E+00 0. -1.
         -5    1    5    5    0  502 -0.91155783401E-01  0.48887490294E+02 -0.17913263946E+03  0.18574333780E+03  0.47000000000E+01 0.  1.
         11    1    6    6    0    0 -0.35108848578E+02  0.17020077642E+02 -0.52898614204E+02  0.65731101284E+02  0.00000000000E+00 0. -1.
        -12    1    6    6    0    0 -0.12790454601E+02 -0.42311340187E+02 -0.22761710856E+01  0.44260887838E+02  0.00000000000E+00 0.  1.
</event>
<event>
12    1  0.8251070E-002  0.3444411E+03  0.7818608E-02  0.1065083E+00
         21   -1    0    0  503  502  0.00000000000E+00  0.00000000000E+00  0.16039820598E+04  0.16039820598E+04  0.00000000000E+00 0.  1.
         21   -1    0    0  501  503 -0.00000000000E+00 -0.00000000000E+00 -0.13114462675E+03  0.13114462675E+03  0.00000000000E+00 0. -1.
          6    2    1    2  501    0 -0.11424118754E+03 -0.27494106936E+03  0.16097253083E+03  0.37879737321E+03  0.17009307369E+03 0.  0.
         24    2    3    3    0    0 -0.12885843392E+03 -0.19908462183E+03  0.16761967202E+03  0.30111765250E+03  0.79600901728E+02 0.  0.
         -6    2    1    2    0  502  0.11424118754E+03  0.27494106936E+03  0.13118649022E+04  0.13563293133E+04  0.17319366038E+03 0.  0.
        -24    2    5    5    0    0 -0.57779862923E+01  0.13117286018E+03  0.47629008970E+03  0.50001088111E+03  0.76934565113E+02 0.  0.
          5    1    3    3  501    0  0.14617246380E+02 -0.75856447530E+02 -0.66471411912E+01  0.77679720710E+02  0.47000000000E+01 0. -1.
        -11    1    4    4    0    0 -0.59017532979E+02 -0.35656611373E+02  0.70384882973E+02  0.98531694822E+02  0.00000000000E+00 0.  1.
         12    1    4    4    0    0 -0.69840900941E+02 -0.16342801045E+03  0.97234789052E+02  0.20258595768E+03  0.00000000000E+00 0. -1.
         -5    1    5    5    0  502  0.12001917383E+03  0.14376820918E+03  0.83557481250E+03  0.85631843221E+03  0.47000000000E+01 0.  1.
         11    1    6    6    0    0  0.11228209857E+01  0.17289909164E+02  0.10083766404E+02  0.20047045437E+02  0.00000000000E+00 0. -1.
        -12    1    6    6    0    0 -0.69008072780E+01  0.11388295101E+03  0.46620632330E+03  0.47996383568E+03  0.00000000000E+00 0.  1.
</event>
<event>
12    1  0.8251070E-002  0.1855905E+03  0.7818608E-02  0.1162725E+00
         21   -1    0    0  501  502  0.00000000000E+00  0.00000000000E+00  0.91515819395E+03  0.91515819395E+03  0.00000000000E+00 0. -1.
         21   -1    0    0  502  503 -0.00000000000E+00 -0.00000000000E+00 -0.39541830252E+02  0.39541830252E+02  0.00000000000E+00 0. -1.
         -6    2    1    2    0  503 -0.87485374468E+01 -0.66660881158E+02  0.32670444969E+03  0.37526224830E+03  0.17194693243E+03 0.  0.
        -24    2    3    3    0    0  0.36808391348E+02 -0.74665120310E+02  0.13811078725E+03  0.18102229073E+03  0.82248053609E+02 0.  0.
          6    2    1    2  501    0  0.87485374468E+01  0.66660881158E+02  0.54891191402E+03  0.57943777590E+03  0.17298449876E+03 0.  0.
         24    2    5    5    0    0  0.15891401468E+02  0.36983331472E+02  0.11907442171E+03  0.14849214447E+03  0.79062605673E+02 0.  0.
          5    1    5    5  501    0 -0.71428640214E+01  0.29677549687E+02  0.42983749231E+03  0.43094563144E+03  0.47000000000E+01 0. -1.
        -13    1    6    6    0    0 -0.53335844034E+01  0.58196060030E+01  0.10924097238E+03  0.10952581880E+03  0.00000000000E+00 0.  1.
         14    1    6    6    0    0  0.21224985872E+02  0.31163725469E+02  0.98334493255E+01  0.38966325667E+02  0.00000000000E+00 0. -1.
         -5    1    3    3    0  503 -0.45556928795E+02  0.80042391517E+01  0.18859366243E+03  0.19423995757E+03  0.47000000000E+01 0.  1.
         11    1    4    4    0    0  0.51756773681E+02 -0.60804121052E+02  0.13934215808E+03  0.16059932060E+03  0.00000000000E+00 0. -1.
        -12    1    4    4    0    0 -0.14948382333E+02 -0.13860999258E+02 -0.12313708325E+01  0.20422970129E+02  0.00000000000E+00 0.  1.
</event>
<event>
12    1  0.8251070E-002  0.2798882E+03  0.7818608E-02  0.1095883E+00
         21   -1    0    0  501  502  0.00000000000E+00  0.00000000000E+00  0.51174622643E+03  0.51174622643E+03  0.00000000000E+00 0.  1.
         21   -1    0    0  502  503 -0.00000000000E+00 -0.00000000000E+00 -0.18210774081E+03  0.18210774081E+03  0.00000000000E+00 0. -1.
         -6    2    1    2    0  503  0.21846983309E+03 -0.27329047732E+02  0.24801591101E+02  0.28001469754E+03  0.17122256596E+03 0.  0.
        -24    2    3    3    0    0  0.21597793907E+03 -0.30213425101E+02  0.63510839330E+02  0.24083530159E+03  0.80054322526E+02 0.  0.
          6    2    1    2  501    0 -0.21846983309E+03  0.27329047732E+02  0.30483689452E+03  0.41383926970E+03  0.17280469919E+03 0.  0.
         24    2    5    5    0    0 -0.22365486859E+03  0.81425682751E+01  0.31225151917E+03  0.39211204609E+03  0.78505055910E+02 0.  0.
          5    1    5    5  501    0  0.51850354974E+01  0.19186479456E+02 -0.74146246483E+01  0.21727223608E+02  0.47000000000E+01 0. -1.
        -13    1    6    6    0    0 -0.13584357486E+03  0.41651525424E+02  0.20610415564E+03  0.25033427526E+03  0.00000000000E+00 0.  1.
         14    1    6    6    0    0 -0.87811293730E+02 -0.33508957149E+02  0.10614736353E+03  0.14177777083E+03  0.00000000000E+00 0. -1.
         -5    1    3    3    0  503  0.24918940199E+01  0.28843773694E+01 -0.38709248228E+02  0.39179395950E+02  0.47000000000E+01 0.  1.
         11    1    4    4    0    0  0.54994631978E+02 -0.75628593677E+01 -0.18809161331E+02  0.58612208098E+02  0.00000000000E+00 0. -1.
        -12    1    4    4    0    0  0.16098330710E+03 -0.22650565733E+02  0.82320000661E+02  0.18222309349E+03  0.00000000000E+00 0.  1.
</event>
<event>
12    1  0.8251070E-002  0.1907065E+03  0.7818608E-02  0.1157872E+00
         21   -1    0    0  503  502  0.00000000000E+00  0.00000000000E+00  0.82307535261E+02  0.82307535261E+02  0.00000000000E+00 0.  1.
         21   -1    0    0  501  503 -0.00000000000E+00 -0.00000000000E+00 -0.68059110383E+03  0.68059110383E+03  0.00000000000E+00 0.  1.
          6    2    1    2  501    0 -0.67961845705E+02 -0.47475932489E+02 -0.52538361345E+03  0.55892478105E+03  0.17174455726E+03 0.  0.
         24    2    3    3    0    0 -0.38528349558E+02 -0.25590147414E+02 -0.11606805697E+03  0.14794225944E+03  0.79220129489E+02 0.  0.
         -6    2    1    2    0  502  0.67961845705E+02  0.47475932489E+02 -0.72899955115E+02  0.20397385804E+03  0.17151721392E+03 0.  0.
        -24    2    5    5    0    0  0.35383379545E+02  0.26855140596E+02 -0.11585941387E+03  0.14605858707E+03  0.77048847813E+02 0.  0.
          5    1    3    3  501    0 -0.29433496147E+02 -0.21885785075E+02 -0.40931555649E+03  0.41098252161E+03  0.47000000000E+01 0. -1.
        -11    1    4    4    0    0 -0.58233996813E+02 -0.34988022777E+02 -0.99743687606E+02  0.12068207547E+03  0.00000000000E+00 0.  1.
         12    1    4    4    0    0  0.19705647255E+02  0.93978753630E+01 -0.16324369359E+02  0.27260183970E+02  0.00000000000E+00 0. -1.
         -5    1    5    5    0  502  0.32578466160E+02  0.20620791893E+02  0.42959458754E+02  0.57915270975E+02  0.47000000000E+01 0.  1.
         13    1    6    6    0    0 -0.21711730309E+02  0.21769194211E+02 -0.31066352013E+02  0.43708297576E+02  0.00000000000E+00 0. -1.
        -14    1    6    6    0    0  0.57095109854E+02  0.50859463854E+01 -0.84793061856E+02  0.10235028949E+03  0.00000000000E+00 0.  1.
</event>
<event>
12    1  0.8251070E-002  0.1973510E+03  0.7818608E-02  0.1152130E+00
         21   -1    0    0  501  502  0.00000000000E+00  0.00000000000E+00  0.95928872134E+02  0.95928872134E+02  0.00000000000E+00 0. -1.
         21   -1    0    0  502  503 -0.00000000000E+00 -0.00000000000E+00 -0.71517535204E+03  0.71517535204E+03  0.00000000000E+00 0.  1.
         -6    2    1    2    0  503  0.67049123220E+02 -0.69179327430E+02 -0.57655208469E+03  0.60918787588E+03  0.17151150835E+03 0.  0.
        -24    2    3    3    0    0 -0.10578535487E+02 -0.77569599202E+02 -0.41116157258E+03  0.42623279518E+03  0.80570520630E+02 0.  0.
          6    2    1    2  501    0 -0.67049123220E+02  0.69179327430E+02 -0.42694395215E+02  0.20191634829E+03  0.17223831181E+03 0.  0.
         24    2    5    5    0    0  0.58875971142E+01 -0.35473796388E+01 -0.17907010942E+02  0.95871812770E+02  0.93933464436E+02 0.  0.
          5    1    5    5  501    0 -0.72936720334E+02  0.72726707069E+02 -0.24787384273E+02  0.10604453552E+03  0.47000000000E+01 0. -1.
        -13    1    6    6    0    0  0.32078145653E+02 -0.27591569457E+02 -0.36383490770E+02  0.55803768101E+02  0.00000000000E+00 0.  1.
         14    1    6    6    0    0 -0.26190548539E+02  0.24044189818E+02  0.18476479827E+02  0.40068044669E+02  0.00000000000E+00 0. -1.
         -5    1    3    3    0  503  0.77627658707E+02  0.83902717718E+01 -0.16539051211E+03  0.18295508070E+03  0.47000000000E+01 0.  1.
         11    1    4    4    0    0  0.13616663551E+02  0.67521296518E+01 -0.18755732116E+02  0.24140883752E+02  0.00000000000E+00 0. -1.
        -12    1    4    4    0    0 -0.24195199037E+02 -0.84321728854E+02 -0.39240584046E+03  0.40209191143E+03  0.00000000000E+00 0.  1.
</event>
<event>
12    1  0.8251070E-002  0.2325723E+03  0.7818608E-02  0.1125182E+00
         21   -1    0    0  501  502  0.00000000000E+00  0.00000000000E+00  0.16574671612E+04  0.16574671612E+04  0.00000000000E+00 0.  1.
         21   -1    0    0  502  503 -0.00000000000E+00 -0.00000000000E+00 -0.34613407068E+02  0.34613407068E+02  0.00000000000E+00 0. -1.
         -6    2    1    2    0  503  0.15183832813E+03 -0.25817080128E+02  0.59879800866E+03  0.64237757395E+03  0.17426558128E+03 0.  0.
        -24    2    3    3    0    0  0.42948727574E+02 -0.20837383209E+02  0.12646768298E+03  0.15760982641E+03  0.81043153963E+02 0.  0.
          6    2    1    2  501    0 -0.15183832813E+03  0.25817080128E+02  0.10240557454E+04  0.10497029943E+04  0.17165315884E+03 0.  0.
         24    2    5    5    0    0 -0.17295738819E+03  0.50500835311E+02  0.91110593730E+03  0.93208049803E+03  0.78711075006E+02 0.  0.
          5    1    5    5  501    0  0.21119060062E+02 -0.24683755183E+02  0.11294980813E+03  0.11762249625E+03  0.47000000000E+01 0. -1.
        -11    1    6    6    0    0 -0.71281272758E+01 -0.16153826932E+02  0.69599879184E+02  0.71804592509E+02  0.00000000000E+00 0.  1.
         12    1    6    6    0    0 -0.16582926091E+03  0.66654662243E+02  0.84150605812E+03  0.86027590552E+03  0.00000000000E+00 0. -1.
         -5    1    3    3    0  503  0.10888960055E+03 -0.49796969190E+01  0.47233032568E+03  0.48476774753E+03  0.47000000000E+01 0.  1.
         13    1    4    4    0    0  0.29907865362E+02  0.29417222996E+02  0.61493072256E+02  0.74439581909E+02  0.00000000000E+00 0. -1.
        -14    1    4    4    0    0  0.13040862212E+02 -0.50254606205E+02  0.64974610722E+02  0.83170244502E+02  0.00000000000E+00 0.  1.
</event>
<event>
12    1  0.8251070E-002  0.1815078E+03  0.7818608E-02  0.1166404E+00
         21   -1    0    0  501  502  0.00000000000E+00  0.00000000000E+00  0.13223209228E+03  0.13223209228E+03  0.00000000000E+00 0.  1.
         21   -1    0    0  502  503 -0.00000000000E+00 -0.00000000000E+00 -0.40745917368E+03  0.40745917368E+03  0.00000000000E+00 0.  1.
         -6    2    1    2    0  503 -0.37999824416E+02  0.42181388605E+02 -0.30592457099E+03  0.35560591988E+03  0.17216988970E+03 0.  0.
        -24    2    3    3    0    0 -0.90706724469E+02  0.33607727267E+02 -0.15992000686E+03  0.20007152584E+03  0.71393400701E+02 0.  0.
          6    2    1    2  501    0  0.37999824416E+02 -0.42181388605E+02  0.30697489582E+02  0.18408534608E+03  0.17240018148E+03 0.  0.
         24    2    5    5    0    0 -0.36206394798E+02  0.11929263182E+02  0.27580797381E+02  0.92072687288E+02  0.79142081195E+02 0.  0.
          5    1    5    5  501    0  0.74206219214E+02 -0.54110651787E+02  0.31166922009E+01  0.92012658788E+02  0.47000000000E+01 0. -1.
        -11    1    6    6    0    0 -0.33962726208E+02 -0.16609895115E+02  0.44835188280E+02  0.58647672548E+02  0.00000000000E+00 0.  1.
         12    1    6    6    0    0 -0.22436685903E+01  0.28539158297E+02 -0.17254390899E+02  0.33425014739E+02  0.00000000000E+00 0. -1.
         -5    1    3    3    0  503  0.52706900053E+02  0.85736613379E+01 -0.14600456413E+03  0.15553439404E+03  0.47000000000E+01 0.  1.
         11    1    4    4    0    0 -0.63745616072E+02  0.55722874073E+02 -0.10316599430E+03  0.13346072323E+03  0.00000000000E+00 0. -1.
        -12    1    4    4    0    0 -0.26961108397E+02 -0.22115146806E+02 -0.56754012554E+02  0.66610802617E+02  0.00000000000E+00 0.  1.
</event>
<event>
12    1  0.8251070E-002  0.1831471E+03  0.7818608E-02  0.1165221E+00
         21   -1    0    0  503  502  0.00000000000E+00  0.00000000000E+00  0.10957459916E+04  0.10957459916E+04  0.00000000000E+00 0.  1.
         21   -1    0    0  501  503 -0.00000000000E+00 -0.00000000000E+00 -0.30461262773E+02  0.30461262773E+02  0.00000000000E+00 0.  1.
          6    2    1    2  501    0 -0.39371109167E+02 -0.42207234157E+02  0.49573468729E+03  0.52848437540E+03  0.17381403857E+03 0.  0.
         24    2    3    3    0    0  0.41093821917E+02  0.28210997841E+01  0.22423563849E+03  0.24171621208E+03  0.80302209246E+02 0.  0.
         -6    2    1    2    0  502  0.39371109167E+02  0.42207234157E+02  0.56955004150E+03  0.59772287895E+03  0.17191234797E+03 0.  0.
        -24    2    5    5    0    0  0.45742155988E+02  0.79763774540E+02  0.52589242789E+03  0.53959232596E+03  0.78373643319E+02 0.  0.
          5    1    3    3  501    0 -0.80464931084E+02 -0.45028333941E+02  0.27149904880E+03  0.28676816331E+03  0.47000000000E+01 0. -1.
        -11    1    4    4    0    0 -0.17505796572E+02 -0.92681131000E+01  0.17283727464E+02  0.26288363759E+02  0.00000000000E+00 0.  1.
         12    1    4    4    0    0  0.58599618489E+02  0.12089212884E+02  0.20695191103E+03  0.21542784833E+03  0.00000000000E+00 0. -1.
         -5    1    5    5    0  502 -0.63710468208E+01 -0.37556540383E+02  0.43657613618E+02  0.58130552982E+02  0.47000000000E+01 0.  1.
         13    1    6    6    0    0 -0.64325288051E+01  0.24923261450E+02  0.38214306523E+02  0.46074717700E+02  0.00000000000E+00 0. -1.
        -14    1    6    6    0    0  0.52174684793E+02  0.54840513090E+02  0.48767812136E+03  0.49351760826E+03  0.00000000000E+00 0.  1.
</event>
<event>
12    1  0.8251070E-002  0.2299448E+03  0.7818608E-02  0.1126749E+00
         21   -1    0    0  503  502  0.00000000000E+00  0.00000000000E+00  0.20164929497E+03  0.20164929497E+03  0.00000000000E+00 0.  1.
         21   -1    0    0  501  503 -0.00000000000E+00 -0.00000000000E+00 -0.31761603431E+03  0.31761603431E+03  0.00000000000E+00 0.  1.
          6    2    1    2  501    0 -0.27894991371E+02 -0.14953737762E+03 -0.16682535580E+03  0.28376328424E+03  0.17190504442E+03 0.  0.
         24    2    3    3    0    0  0.20463737042E+02 -0.52815793983E+02 -0.14207998727E+03  0.17273151123E+03  0.80256959578E+02 0.  0.
         -6    2    1    2    0  502  0.27894991371E+02  0.14953737762E+03  0.50858616461E+02  0.23550204504E+03  0.17243855863E+03 0.  0.
        -24    2    5    5    0    0  0.69619770309E+02  0.94373689493E+02 -0.15240065223E+02  0.13971522243E+03  0.74396089311E+02 0.  0.
          5    1    3    3  501    0 -0.48358728413E+02 -0.96721583633E+02 -0.24745368527E+02  0.11103177301E+03  0.47000000000E+01 0. -1.
        -13    1    4    4    0    0 -0.57804095407E+01  0.16584966491E+02 -0.75924498923E+01  0.19134250530E+02  0.00000000000E+00 0.  1.
         14    1    4    4    0    0  0.26244146583E+02 -0.69400760473E+02 -0.13448753738E+03  0.15359726070E+03  0.00000000000E+00 0. -1.
         -5    1    5    5    0  502 -0.41724778939E+02  0.55163688123E+02  0.66098681684E+02  0.95786822607E+02  0.47000000000E+01 0.  1.
         11    1    6    6    0    0  0.22155665448E+02  0.86409280711E+02  0.91549190369E-01  0.89204516061E+02  0.00000000000E+00 0. -1.
        -12    1    6    6    0    0  0.47464104861E+02  0.79644087819E+01 -0.15331614413E+02  0.50510706371E+02  0.00000000000E+00 0.  1.
</event>
<event>
12    1  0.8251070E-002  0.3145351E+03  0.7818608E-02  0.1078264E+00
         21   -1    0    0  501  502  0.00000000000E+00  0.00000000000E+00  0.12176360480E+03  0.12176360480E+03  0.00000000000E+00 0.  1.
         21   -1    0    0  502  503 -0.00000000000E+00 -0.00000000000E+00 -0.12501386799E+04  0.12501386799E+04  0.00000000000E+00 0.  1.
         -6    2    1    2    0  503  0.10672788178E+03 -0.23837912786E+03 -0.97113063371E+03  0.10207972426E+04  0.17526224159E+03 0.  0.
        -24    2    3    3    0    0  0.10019332801E+03 -0.92072653050E+02 -0.37955841295E+03  0.41134825589E+03  0.81404682727E+02 0.  0.
          6    2    1    2  501    0 -0.10672788178E+03  0.23837912786E+03 -0.15724444141E+03  0.35110504216E+03  0.17416511398E+03 0.  0.
         24    2    5    5    0    0 -0.13504590567E+03  0.18395977841E+03 -0.11187859063E+03  0.27466207984E+03  0.10413377142E+03 0.  0.
          5    1    5    5  501    0  0.28318023884E+02  0.54419349450E+02 -0.45365850776E+02  0.76442962318E+02  0.47000000000E+01 0. -1.
        -11    1    6    6    0    0 -0.15911768589E+02  0.10666231349E+03 -0.60408021917E+02  0.12360890992E+03  0.00000000000E+00 0.  1.
         12    1    6    6    0    0 -0.11913413708E+03  0.77297464916E+02 -0.51470568716E+02  0.15105316992E+03  0.00000000000E+00 0. -1.
         -5    1    3    3    0  503  0.65345537733E+01 -0.14630647481E+03 -0.59157222077E+03  0.60944898666E+03  0.47000000000E+01 0.  1.
         11    1    4    4    0    0  0.10194381311E+03 -0.47596275244E+02 -0.29625423477E+03  0.31689827716E+03  0.00000000000E+00 0. -1.
        -12    1    4    4    0    0 -0.17504850980E+01 -0.44476377805E+02 -0.83304178172E+02  0.94449978728E+02  0.00000000000E+00 0.  1.
</event>
<event>
12    1  0.8251070E-002  0.1798626E+03  0.7818608E-02  0.1168386E+00
         21   -1    0    0  503  502  0.00000000000E+00  0.00000000000E+00  0.17346230533E+03  0.17346230533E+03  0.00000000000E+00 0. -1.
         21   -1    0    0  501  503 -0.00000000000E+00 -0.00000000000E+00 -0.19215347606E+04  0.19215347606E+04  0.00000000000E+00 0.  1.
          6    2    1    2  501    0 -0.61943324284E+01  0.53118620232E+02 -0.18695171284E+04  0.18779731686E+04  0.16979096260E+03 0.  0.
         24    2    3    3    0    0  0.47413889421E+02  0.42175950007E+02 -0.73798449094E+03  0.74510875344E+03  0.80864441548E+02 0.  0.
         -6    2    1    2    0  502  0.61943324284E+01 -0.53118620232E+02  0.12144467308E+03  0.21702389738E+03  0.17172829076E+03 0.  0.
        -24    2    5    5    0    0  0.21883590474E+02 -0.31905365282E+02  0.15223266897E+03  0.17620544942E+03  0.79854436543E+02 0.  0.
          5    1    3    3  501    0 -0.53608221850E+02  0.10942670226E+02 -0.11315326374E+04  0.11328644151E+04  0.47000000000E+01 0. -1.
        -11    1    4    4    0    0  0.44638681404E+02  0.13792524871E+02 -0.66664366255E+03  0.66827884782E+03  0.00000000000E+00 0.  1.
         12    1    4    4    0    0  0.27752080172E+01  0.28383425135E+02 -0.71340828393E+02  0.76829905621E+02  0.00000000000E+00 0. -1.
         -5    1    5    5    0  502 -0.15689258045E+02 -0.21213254951E+02 -0.30787995890E+02  0.40818447968E+02  0.47000000000E+01 0.  1.
         13    1    6    6    0    0  0.41804254022E+02  0.45200124442E+01  0.10617449431E+03  0.11419741420E+03  0.00000000000E+00 0. -1.
        -14    1    6    6    0    0 -0.19920663548E+02 -0.36425377726E+02  0.46058174659E+02  0.62008035218E+02  0.00000000000E+00 0.  1.
</event>
<event>
12    1  0.8251070E-002  0.1839909E+03  0.7818608E-02  0.1164011E+00
         21   -1    0    0  501  502  0.00000000000E+00  0.00000000000E+00  0.73547312199E+02  0.73547312199E+02  0.00000000000E+00 0. -1.
         21   -1    0    0  502  503 -0.00000000000E+00 -0.00000000000E+00 -0.48865628388E+03  0.48865628388E+03  0.00000000000E+00 0. -1.
         -6    2    1    2    0  503  0.46963327384E+02 -0.46026622607E+02 -0.27544820045E+03  0.33121053540E+03  0.17176933230E+03 0.  0.
        -24    2    3    3    0    0  0.44566072069E+02  0.21981641255E+01 -0.26721363619E+03  0.28200408321E+03  0.78308421487E+02 0.  0.
          6    2    1    2  501    0 -0.46963327384E+02  0.46026622607E+02 -0.13966077123E+03  0.23099306068E+03  0.17183904956E+03 0.  0.
         24    2    5    5    0    0  0.34049443078E+02  0.17628780916E+02 -0.34266874449E+02  0.94980304408E+02  0.79855501065E+02 0.  0.
          5    1    5    5  501    0 -0.81012770462E+02  0.28397841692E+02 -0.10539389678E+03  0.13601275627E+03  0.47000000000E+01 0. -1.
        -13    1    6    6    0    0 -0.64433912996E+01 -0.24737060052E+02  0.26777309911E+01  0.25702328196E+02  0.00000000000E+00 0.  1.
         14    1    6    6    0    0  0.40492834378E+02  0.42365840968E+02 -0.36944605440E+02  0.69277976211E+02  0.00000000000E+00 0. -1.
         -5    1    3    3    0  503  0.23972553156E+01 -0.48224786733E+02 -0.82345642633E+01  0.49206452189E+02  0.47000000000E+01 0.  1.
         11    1    4    4    0    0  0.64593880993E+00 -0.29464269560E+02 -0.15029749893E+03  0.15315971599E+03  0.00000000000E+00 0. -1.
        -12    1    4    4    0    0  0.43920133259E+02  0.31662433685E+02 -0.11691613726E+03  0.12884436722E+03  0.00000000000E+00 0.  1.
</event>
<event>
12    1  0.8251070E-002  0.1989098E+03  0.7818608E-02  0.1150743E+00
         21   -1    0    0  503  502  0.00000000000E+00  0.00000000000E+00  0.42762084411E+03  0.42762084411E+03  0.00000000000E+00 0. -1.
         21   -1    0    0  501  503 -0.00000000000E+00 -0.00000000000E+00 -0.12067138337E+03  0.12067138337E+03  0.00000000000E+00 0. -1.
          6    2    1    2  501    0 -0.53930217641E+02 -0.82821555450E+02  0.20768641437E+02  0.19999108574E+03  0.17261871129E+03 0.  0.
         24    2    3    3    0    0 -0.19588200722E+02 -0.41552582712E+02 -0.54760778317E+02  0.10720485031E+03  0.79898825715E+02 0.  0.
         -6    2    1    2    0  502  0.53930217641E+02  0.82821555450E+02  0.28618081930E+03  0.34830114174E+03  0.17218114177E+03 0.  0.
        -24    2    5    5    0    0  0.58986296462E+02  0.91933143859E+02  0.30065606840E+03  0.32985641857E+03  0.80499063960E+02 0.  0.
          5    1    3    3  501    0 -0.34342016919E+02 -0.41268972738E+02  0.75529419754E+02  0.92786235430E+02  0.47000000000E+01 0. -1.
        -13    1    4    4    0    0 -0.10967323694E+02 -0.37156034711E+01  0.19921201671E+02  0.23042182495E+02  0.00000000000E+00 0.  1.
         14    1    4    4    0    0 -0.86208770283E+01 -0.37836979241E+02 -0.74681979988E+02  0.84162667815E+02  0.00000000000E+00 0. -1.
         -5    1    5    5    0  502 -0.50560788211E+01 -0.91115884089E+01 -0.14475249097E+02  0.18444723169E+02  0.47000000000E+01 0.  1.
         11    1    6    6    0    0  0.25518956678E+01 -0.14675802830E+02  0.28206663430E+02  0.31898389019E+02  0.00000000000E+00 0. -1.
        -12    1    6    6    0    0  0.56434400794E+02  0.10660894669E+03  0.27244940497E+03  0.29795802955E+03  0.00000000000E+00 0.  1.
</event>
<event>
12    1  0.8251070E-002  0.1853819E+03  0.7818608E-02  0.1162801E+00
         21   -1    0    0  501  502  0.00000000000E+00  0.00000000000E+00  0.56018296805E+03  0.56018296805E+03  0.00000000000E+00 0. -1.
         21   -1    0    0  502  503 -0.00000000000E+00 -0.00000000000E+00 -0.61197441223E+02  0.61197441223E+02  0.00000000000E+00 0. -1.
         -6    2    1    2    0  503 -0.28270000770E+02  0.47532621323E+02  0.24846163535E+03  0.30999942569E+03  0.17694043250E+03 0.  0.
        -24    2    3    3    0    0 -0.87664570187E+02  0.35507985056E+02  0.18336653584E+03  0.22093894773E+03  0.79024289248E+02 0.  0.
          6    2    1    2  501    0  0.28270000770E+02 -0.47532621323E+02  0.25052389148E+03  0.31138098359E+03  0.17645779581E+03 0.  0.
         24    2    5    5    0    0 -0.72481343594E+01  0.40153386388E+02  0.11788206036E+03  0.14838920700E+03  0.80363839565E+02 0.  0.
          5    1    5    5  501    0  0.35518135129E+02 -0.87686007711E+02  0.13264183113E+03  0.16299177659E+03  0.47000000000E+01 0. -1.
        -11    1    6    6    0    0 -0.37249207786E+02  0.26959871781E+02  0.10217674053E+03  0.11204652816E+03  0.00000000000E+00 0.  1.
         12    1    6    6    0    0  0.30001073426E+02  0.13193514607E+02  0.15705319827E+02  0.36342678840E+02  0.00000000000E+00 0. -1.
         -5    1    3    3    0  503  0.59394569417E+02  0.12024636267E+02  0.65095099511E+02  0.89060477957E+02  0.47000000000E+01 0.  1.
         11    1    4    4    0    0 -0.80333674720E+02 -0.62446609374E+01  0.12714048099E+03  0.15052307793E+03  0.00000000000E+00 0. -1.
        -12    1    4    4    0    0 -0.73308954671E+01  0.41752645993E+02  0.56226054849E+02  0.70415869800E+02  0.00000000000E+00 0.  1.
</event>
<event>
12    1  0.8251070E-002  0.1865069E+03  0.7818608E-02  0.1161815E+00
         21   -1    0    0  501  502  0.00000000000E+00  0.00000000000E+00  0.27252635193E+03  0.27252635193E+03  0.00000000000E+00 0.  1.
         21   -1    0    0  502  503 -0.00000000000E+00 -0.00000000000E+00 -0.19925953629E+03  0.19925953629E+03  0.00000000000E+00 0.  1.
         -6    2    1    2    0  503 -0.93353762400E+01 -0.74467359399E+02 -0.10522678185E+03  0.21414365183E+03  0.17074042033E+03 0.  0.
        -24    2    3    3    0    0  0.37146200727E+01 -0.42629424952E+02 -0.13911046288E+03  0.16562406492E+03  0.79047730676E+02 0.  0.
          6    2    1    2  501    0  0.93353762400E+01  0.74467359399E+02  0.17849359750E+03  0.25764223639E+03  0.16996182148E+03 0.  0.
         24    2    5    5    0    0 -0.82843183495E+01  0.10750439970E+02  0.17254756859E+03  0.19110093554E+03  0.81010507037E+02 0.  0.
          5    1    5    5  501    0  0.17619694590E+02  0.63716919429E+02  0.59460289091E+01  0.66541300849E+02  0.47000000000E+01 0. -1.
        -11    1    6    6    0    0 -0.31147510367E+02  0.33978826619E+02  0.12689603984E+03  0.13500864042E+03  0.00000000000E+00 0.  1.
         12    1    6    6    0    0  0.22863192018E+02 -0.23228386649E+02  0.45651528747E+02  0.56092295126E+02  0.00000000000E+00 0. -1.
         -5    1    3    3    0  503 -0.13049996313E+02 -0.31837934446E+02  0.33883681030E+02  0.48519586908E+02  0.47000000000E+01 0.  1.
         11    1    4    4    0    0  0.29190518838E+02 -0.45619067453E+02 -0.53011048010E+02  0.75784938586E+02  0.00000000000E+00 0. -1.
        -12    1    4    4    0    0 -0.25475898765E+02  0.29896425010E+01 -0.86099414871E+02  0.89839126339E+02  0.00000000000E+00 0.  1.
</event>
<event>
12    1  0.8251070E-002  0.4552346E+03  0.7818608E-02  0.1026443E+00
         21   -1    0    0  503  502  0.00000000000E+00  0.00000000000E+00  0.29394830853E+03  0.29394830853E+03  0.00000000000E+00 0.  1.
         21   -1    0    0  501  503 -0.00000000000E+00 -0.00000000000E+00 -0.77718163412E+03  0.77718163412E+03  0.00000000000E+00 0. -1.
          6    2    1    2  501    0  0.41138044011E+03  0.91284166571E+02 -0.73007027186E+02  0.46105163429E+03  0.17225538565E+03 0.  0.
         24    2    3    3    0    0  0.32359134445E+03  0.10944903937E+03 -0.94980690555E+01  0.35108634120E+03  0.80504380235E+02 0.  0.
         -6    2    1    2    0  502 -0.41138044011E+03 -0.91284166571E+02 -0.41022629841E+03  0.61007830836E+03  0.16230607152E+03 0.  0.
        -24    2    5    5    0    0 -0.17593241410E+03 -0.13440613863E+02 -0.11733896277E+03  0.22628087087E+03  0.79383473742E+02 0.  0.
          5    1    3    3  501    0  0.87789095662E+02 -0.18164872798E+02 -0.63508958131E+02  0.10996529309E+03  0.47000000000E+01 0. -1.
        -11    1    4    4    0    0  0.11423265888E+03  0.77029913265E+02  0.11152565702E+02  0.13822838932E+03  0.00000000000E+00 0.  1.
         12    1    4    4    0    0  0.20935868557E+03  0.32419126104E+02 -0.20650634757E+02  0.21285795188E+03  0.00000000000E+00 0. -1.
         -5    1    5    5    0  502 -0.23544802601E+03 -0.77843552709E+02 -0.29288733564E+03  0.38379743750E+03  0.47000000000E+01 0.  1.
         11    1    6    6    0    0 -0.58684928567E+02 -0.12391611867E+02 -0.86112077528E+02  0.10494171135E+03  0.00000000000E+00 0. -1.
        -12    1    6    6    0    0 -0.11724748553E+03 -0.10490019952E+01 -0.31226885242E+02  0.12133915951E+03  0.00000000000E+00 0.  1.
</event>
<event>
12    1  0.8251070E-002  0.1988459E+03  0.7818608E-02  0.1150999E+00
         21   -1    0    0  503  502  0.00000000000E+00  0.00000000000E+00  0.16427085754E+03  0.16427085754E+03  0.00000000000E+00 0. -1.
         21   -1    0    0  501  503 -0.00000000000E+00 -0.00000000000E+00 -0.23918492092E+03  0.23918492092E+03  0.00000000000E+00 0.  1.
          6    2    1    2  501    0 -0.38505343380E+02 -0.91866945198E+02 -0.41455665389E+02  0.20312126101E+03  0.17209729049E+03 0.  0.
         24    2    3    3    0    0  0.21384403594E+02 -0.11370159315E+02 -0.57115118595E+02  0.10146584893E+03  0.80290774613E+02 0.  0.
         -6    2    1    2    0  502  0.38505343380E+02  0.91866945198E+02 -0.33458397985E+02  0.20033451745E+03  0.17056452561E+03 0.  0.
        -24    2    5    5    0    0 -0.17548901100E+02 -0.22239261950E+01  0.95068309318E+01  0.82592123642E+02  0.80113477492E+02 0.  0.
          5    1    3    3  501    0 -0.59889746975E+02 -0.80496785882E+02  0.15659453206E+02  0.10165541208E+03  0.47000000000E+01 0. -1.
        -13    1    4    4    0    0 -0.19537840285E+02 -0.31640707489E+02 -0.33512886870E+02  0.50059715938E+02  0.00000000000E+00 0.  1.
         14    1    4    4    0    0  0.40922243879E+02  0.20270548174E+02 -0.23602231725E+02  0.51406132997E+02  0.00000000000E+00 0. -1.
         -5    1    5    5    0  502  0.56054244480E+02  0.94090871393E+02 -0.42965228917E+02  0.11774239381E+03  0.47000000000E+01 0.  1.
         11    1    6    6    0    0  0.25953973221E+02 -0.13326786597E+02  0.21357184523E+02  0.36157174913E+02  0.00000000000E+00 0. -1.
        -12    1    6    6    0    0 -0.43502874321E+02  0.11102860402E+02 -0.11850353591E+02  0.46434948729E+02  0.00000000000E+00 0.  1.
</event>
<event>
12    1  0.8251070E-002  0.1799203E+03  0.7818608E-02  0.1168084E+00
         21   -1    0    0  501  502  0.00000000000E+00  0.00000000000E+00  0.11278971773E+03  0.11278971773E+03  0.00000000000E+00 0.  1.
         21   -1    0    0  502  503 -0.00000000000E+00 -0.00000000000E+00 -0.42276048962E+03  0.42276048962E+03  0.00000000000E+00 0.  1.
         -6    2    1    2    0  503  0.34099655194E+02 -0.34885184643E+02 -0.30722630514E+03  0.35560894547E+03  0.17230773904E+03 0.  0.
        -24    2    3    3    0    0  0.55315453656E+02 -0.20107661011E+02 -0.31317183118E+03  0.32866595772E+03  0.80502164403E+02 0.  0.
          6    2    1    2  501    0 -0.34099655194E+02  0.34885184643E+02 -0.27444667491E+01  0.17994126189E+03  0.17318072364E+03 0.  0.
         24    2    5    5    0    0  0.13159772295E+02  0.23283078680E+02  0.58948401620E+02  0.10122555598E+03  0.77822989979E+02 0.  0.
          5    1    5    5  501    0 -0.47259427489E+02  0.11602105963E+02 -0.61692868369E+02  0.78715705910E+02  0.47000000000E+01 0. -1.
        -11    1    6    6    0    0 -0.26516882892E+02 -0.11466985070E+02  0.14888162733E+02  0.32500680216E+02  0.00000000000E+00 0.  1.
         12    1    6    6    0    0  0.39676655187E+02  0.34750063750E+02  0.44060238886E+02  0.68724875760E+02  0.00000000000E+00 0. -1.
         -5    1    3    3    0  503 -0.21215798462E+02 -0.14777523632E+02  0.59455260358E+01  0.26942987750E+02  0.47000000000E+01 0.  1.
         13    1    4    4    0    0  0.66238342266E+01 -0.30288754873E+02 -0.38046656434E+02  0.49079852459E+02  0.00000000000E+00 0. -1.
        -14    1    4    4    0    0  0.48691619429E+02  0.10181093862E+02 -0.27512517475E+03  0.27958610526E+03  0.00000000000E+00 0.  1.
</event>
<event>
12    1  0.8251070E-002  0.2194063E+03  0.7818608E-02  0.1134486E+00
         21   -1    0    0  501  502  0.00000000000E+00  0.00000000000E+00  0.53466826164E+03  0.53466826164E+03  0.00000000000E+00 0. -1.
         21   -1    0    0  502  503 -0.00000000000E+00 -0.00000000000E+00 -0.10048857672E+03  0.10048857672E+03  0.00000000000E+00 0.  1.
         -6    2    1    2    0  503  0.11912056915E+03 -0.64937167417E+02  0.32158425943E+03  0.38930139200E+03  0.17243141300E+03 0.  0.
        -24    2    3    3    0    0  0.87039338427E+02 -0.99062354005E+02  0.29930550553E+03  0.33722292620E+03  0.82135984182E+02 0.  0.
          6    2    1    2  501    0 -0.11912056915E+03  0.64937167417E+02  0.11259542549E+03  0.24585544636E+03  0.17134942357E+03 0.  0.
         24    2    5    5    0    0 -0.10967166723E+02  0.68984532541E+02  0.83027420244E+02  0.13356165065E+03  0.77884642490E+02 0.  0.
          5    1    5    5  501    0 -0.10815340243E+03 -0.40473651245E+01  0.29568005245E+02  0.11229379572E+03  0.47000000000E+01 0. -1.
        -11    1    6    6    0    0 -0.41076910278E+02  0.54433079188E+02  0.69848100004E+02  0.97616749291E+02  0.00000000000E+00 0.  1.
         12    1    6    6    0    0  0.30109743555E+02  0.14551453353E+02  0.13179320239E+02  0.35944901358E+02  0.00000000000E+00 0. -1.
         -5    1    3    3    0  503  0.32081230727E+02  0.34125186588E+02  0.22278753902E+02  0.52078465800E+02  0.47000000000E+01 0.  1.
         11    1    4    4    0    0  0.55208636112E+02 -0.16369893353E+02  0.17743715713E+03  0.18654734424E+03  0.00000000000E+00 0. -1.
        -12    1    4    4    0    0  0.31830702315E+02 -0.82692460652E+02  0.12186834840E+03  0.15067558196E+03  0.00000000000E+00 0.  1.
</event>
<event>
12    1  0.8251070E-002  0.1928050E+03  0.7818608E-02  0.1156249E+00
         21   -1    0    0  501  502  0.00000000000E+00  0.00000000000E+00  0.48147124477E+03  0.48147124477E+03  0.00000000000E+00 0. -1.
         21   -1    0    0  502  503 -0.00000000000E+00 -0.00000000000E+00 -0.77142923944E+02  0.77142923944E+02  0.00000000000E+00 0.  1.
         -6    2    1    2    0  503 -0.19289847920E+02  0.85294985283E+02  0.22309646356E+03  0.29400362528E+03  0.17034895618E+03 0.  0.
        -24    2    3    3    0    0  0.53989622906E+02  0.61289637159E+02  0.14331390432E+03  0.18294740374E+03  0.79117497164E+02 0.  0.
          6    2    1    2  501    0  0.19289847920E+02 -0.85294985283E+02  0.18123185726E+03  0.26461054344E+03  0.17183253727E+03 0.  0.
         24    2    5    5    0    0 -0.48969763324E+02 -0.80188044782E+02  0.10311925021E+03  0.16064360278E+03  0.79653167583E+02 0.  0.
          5    1    5    5  501    0  0.68259611244E+02 -0.51069405009E+01  0.78112607055E+02  0.10396694066E+03  0.47000000000E+01 0. -1.
        -13    1    6    6    0    0  0.21569789644E+02 -0.22680676796E+02  0.18418256580E+02  0.36316677996E+02  0.00000000000E+00 0.  1.
         14    1    6    6    0    0 -0.70539552969E+02 -0.57507367986E+02  0.84700993628E+02  0.12432692479E+03  0.00000000000E+00 0. -1.
         -5    1    3    3    0  503 -0.73279470826E+02  0.24005348123E+02  0.79782559242E+02  0.11105622154E+03  0.47000000000E+01 0.  1.
         13    1    4    4    0    0  0.14868602900E+02  0.62640320277E+02  0.12303661607E+03  0.13886286030E+03  0.00000000000E+00 0. -1.
        -14    1    4    4    0    0  0.39121020006E+02 -0.13506831180E+01  0.20277288250E+02  0.44084543436E+02  0.00000000000E+00 0.  1.
</event>
<event>
12    1  0.8251070E-002  0.3794673E+03  0.7818608E-02  0.1051252E+00
         21   -1    0    0  503  502  0.00000000000E+00  0.00000000000E+00  0.77366400196E+03  0.77366400196E+03  0.00000000000E+00 0. -1.
         21   -1    0    0  501  503 -0.00000000000E+00 -0.00000000000E+00 -0.18884713100E+03  0.18884713100E+03  0.00000000000E+00 0.  1.
          6    2    1    2  501    0  0.14091682515E+03 -0.30773322052E+03  0.22763715045E+03  0.44138469646E+03  0.16865494771E+03 0.  0.
         24    2    3    3    0    0  0.82505443056E+02 -0.29297114540E+03  0.17181118974E+03  0.35911418954E+03  0.82490460295E+02 0.  0.
         -6    2    1    2    0  502 -0.14091682515E+03  0.30773322052E+03  0.35717972051E+03  0.52112643649E+03  0.17157541619E+03 0.  0.
        -24    2    5    5    0    0 -0.15797412480E+03  0.26880965749E+03  0.35378525290E+03  0.47823578901E+03  0.79567635762E+02 0.  0.
          5    1    3    3  501    0  0.58411382098E+02 -0.14762075122E+02  0.55825960707E+02  0.82270506923E+02  0.47000000000E+01 0. -1.
        -11    1    4    4    0    0 -0.24609531768E+01 -0.10014159963E+02 -0.81822544459E+01  0.13163927154E+02  0.00000000000E+00 0.  1.
         12    1    4    4    0    0  0.84966396233E+02 -0.28295698544E+03  0.17999344419E+03  0.34595026239E+03  0.00000000000E+00 0. -1.
         -5    1    5    5    0  502  0.17057299645E+02  0.38923563036E+02  0.33944676111E+01  0.42890647477E+02  0.47000000000E+01 0.  1.
         11    1    6    6    0    0 -0.50979798642E+02  0.11026617621E+03  0.19453169556E+03  0.22934722598E+03  0.00000000000E+00 0. -1.
        -12    1    6    6    0    0 -0.10699432616E+03  0.15854348128E+03  0.15925355733E+03  0.24888856303E+03  0.00000000000E+00 0.  1.
</event>
<event>
12    1  0.8251070E-002  0.1827928E+03  0.7818608E-02  0.1165560E+00
         21   -1    0    0  503  502  0.00000000000E+00  0.00000000000E+00  0.52599509976E+02  0.52599509976E+02  0.00000000000E+00 0. -1.
         21   -1    0    0  501  503 -0.00000000000E+00 -0.00000000000E+00 -0.10579143571E+04  0.10579143571E+04  0.00000000000E+00 0. -1.
          6    2    1    2  501    0 -0.51876082454E+02  0.18900846835E+02 -0.85771713115E+03  0.87697884112E+03  0.17425510258E+03 0.  0.
         24    2    3    3    0    0 -0.49084501838E+02  0.52400148540E+02 -0.79893598476E+03  0.80910167775E+03  0.10579108331E+03 0.  0.
         -6    2    1    2    0  502  0.51876082454E+02 -0.18900846835E+02 -0.14759771598E+03  0.23353502595E+03  0.17235182808E+03 0.  0.
        -24    2    5    5    0    0  0.76665829317E+02  0.25916649095E+02 -0.52764606794E+02  0.12565292323E+03  0.80344454072E+02 0.  0.
          5    1    3    3  501    0 -0.27915806166E+01 -0.33499301705E+02 -0.58781146386E+02  0.67877163373E+02  0.47000000000E+01 0. -1.
        -13    1    4    4    0    0  0.17911762813E+02  0.48745904488E+02 -0.20870185149E+03  0.21506616951E+03  0.00000000000E+00 0.  1.
         14    1    4    4    0    0 -0.66996264650E+02  0.36542440526E+01 -0.59023413327E+03  0.59403550825E+03  0.00000000000E+00 0. -1.
         -5    1    5    5    0  502 -0.24789746863E+02 -0.44817495930E+02 -0.94833109186E+02  0.10788210273E+03  0.47000000000E+01 0.  1.
         11    1    6    6    0    0  0.29230308437E+01  0.37293783139E+02 -0.29038854081E+02  0.47356366166E+02  0.00000000000E+00 0. -1.
        -12    1    6    6    0    0  0.73742798474E+02 -0.11377134044E+02 -0.23725752713E+02  0.78296557061E+02  0.00000000000E+00 0.  1.
</event>
<event>
12    1  0.8251070E-002  0.1922933E+03  0.7818608E-02  0.1156688E+00
         21   -1    0    0  503  502  0.00000000000E+00  0.00000000000E+00  0.25747458268E+03  0.25747458268E+03  0.00000000000E+00 0.  1.
         21   -1    0    0  501  503 -0.00000000000E+00 -0.00000000000E+00 -0.24242138671E+03  0.24242138671E+03  0.00000000000E+00 0.  1.
          6    2    1    2  501    0  0.78368333475E+02 -0.29137473287E+02 -0.15281296690E+03  0.24463973813E+03  0.17177371912E+03 0.  0.
         24    2    3    3    0    0  0.93669710682E+02 -0.63948653039E+02 -0.15273567961E+03  0.20632464511E+03  0.79863799236E+02 0.  0.
         -6    2    1    2    0  502 -0.78368333475E+02  0.29137473287E+02  0.16786616286E+03  0.25525623126E+03  0.17316497025E+03 0.  0.
        -24    2    5    5    0    0 -0.29502241508E+02  0.29663519607E+02  0.18259317592E+03  0.20400053321E+03  0.80781452136E+02 0.  0.
          5    1    3    3  501    0 -0.15301377207E+02  0.34811179751E+02 -0.77287290139E-01  0.38315093024E+02  0.47000000000E+01 0. -1.
        -13    1    4    4    0    0  0.78429425516E+01 -0.32328151049E+02 -0.88527740232E+02  0.94571570193E+02  0.00000000000E+00 0.  1.
         14    1    4    4    0    0  0.85826768131E+02 -0.31620501990E+02 -0.64207939375E+02  0.11175307491E+03  0.00000000000E+00 0. -1.
         -5    1    5    5    0  502 -0.48866091967E+02 -0.52604631930E+00 -0.14727013057E+02  0.51255698048E+02  0.47000000000E+01 0.  1.
         11    1    6    6    0    0  0.22552051745E+02  0.97554502056E+00  0.17585187619E+02  0.28614429046E+02  0.00000000000E+00 0. -1.
        -12    1    6    6    0    0 -0.52054293253E+02  0.28687974586E+02  0.16500798830E+03  0.17538610417E+03  0.00000000000E+00 0.  1.
</event>
<event>
12    1  0.8251070E-002  0.2973504E+03  0.7818608E-02  0.1086950E+00
         21   -1    0    0  503  502  0.00000000000E+00  0.00000000000E+00  0.15093807944E+04  0.15093807944E+04  0.00000000000E+00 0. -1.
         21   -1    0    0  501  503 -0.00000000000E+00 -0.00000000000E+00 -0.74465128839E+02  0.74465128839E+02  0.00000000000E+00 0. -1.
          6    2    1    2  501    0  0.21084092232E+03  0.11946756071E+03  0.34221196929E+03  0.45140669651E+03  0.16713043153E+03 0.  0.
         24    2    3    3    0    0  0.11742867423E+03  0.25233989936E+02  0.25521576029E+03  0.29267344753E+03  0.78079541536E+02 0.  0.
         -6    2    1    2    0  502 -0.21084092232E+03 -0.11946756071E+03  0.10927036962E+04  0.11324392267E+04  0.17231030671E+03 0.  0.
        -24    2    5    5    0    0 -0.19083827928E+03 -0.14259841933E+03  0.88588657581E+03  0.92332071089E+03  0.10474994953E+03 0.  0.
          5    1    3    3  501    0  0.93412248086E+02  0.94233570771E+02  0.86996208997E+02  0.15873324898E+03  0.47000000000E+01 0. -1.
        -11    1    4    4    0    0 -0.85152680013E+01 -0.93183290494E+01  0.20669536728E+02  0.24219223645E+02  0.00000000000E+00 0.  1.
         12    1    4    4    0    0  0.12594394223E+03  0.34552318985E+02  0.23454622357E+03  0.26845422388E+03  0.00000000000E+00 0. -1.
         -5    1    5    5    0  502 -0.20002643034E+02  0.23130858626E+02  0.20681712043E+03  0.20911851580E+03  0.47000000000E+01 0.  1.
         13    1    6    6    0    0 -0.10290137858E+03 -0.99736587090E+02  0.34368564060E+03  0.37236527775E+03  0.00000000000E+00 0. -1.
        -14    1    6    6    0    0 -0.87936900700E+02 -0.42861832244E+02  0.54220093521E+03  0.55095543314E+03  0.00000000000E+00 0.  1.
</event>
<event>
12    1  0.8251070E-002  0.1789734E+03  0.7818608E-02  0.1168992E+00
         21   -1    0    0  503  502  0.00000000000E+00  0.00000000000E+00  0.30582856218E+03  0.30582856218E+03  0.00000000000E+00 0. -1.
         21   -1    0    0  501  503 -0.00000000000E+00 -0.00000000000E+00 -0.14997574105E+03  0.14997574105E+03  0.00000000000E+00 0. -1.
          6    2    1    2  501    0  0.15600441675E+02 -0.44764646110E+02  0.20384639484E+03  0.27126523017E+03  0.17258106817E+03 0.  0.
         24    2    3    3    0    0  0.62348055105E+01 -0.91889943102E+02  0.10265326986E+03  0.15914633212E+03  0.79418050665E+02 0.  0.
         -6    2    1    2    0  502 -0.15600441675E+02  0.44764646110E+02 -0.47993573716E+02  0.18453907306E+03  0.17176739808E+03 0.  0.
        -24    2    5    5    0    0  0.74317358314E+01  0.93867514299E+02 -0.34179321236E+02  0.12837416910E+03  0.80283001644E+02 0.  0.
          5    1    3    3  501    0  0.93656361641E+01  0.47125296993E+02  0.10119312498E+03  0.11211889806E+03  0.47000000000E+01 0. -1.
        -13    1    4    4    0    0 -0.21406631232E+02 -0.34297098104E+01  0.11683898809E+01  0.21711100962E+02  0.00000000000E+00 0.  1.
         14    1    4    4    0    0  0.27641436743E+02 -0.88460233292E+02  0.10148487998E+03  0.13743523116E+03  0.00000000000E+00 0. -1.
         -5    1    5    5    0  502 -0.23032177506E+02 -0.49102868190E+02 -0.13814252480E+02  0.56164903959E+02  0.47000000000E+01 0.  1.
         13    1    6    6    0    0 -0.12895953455E+01  0.90963093695E+01 -0.41816627516E+02  0.42813972451E+02  0.00000000000E+00 0. -1.
        -14    1    6    6    0    0  0.87213311769E+01  0.84771204930E+02  0.76373062799E+01  0.85560196645E+02  0.00000000000E+00 0.  1.
</event>
<event>
12    1  0.8251070E-002  0.1992889E+03  0.7818608E-02  0.1151712E+00
         21   -1    0    0  501  502  0.00000000000E+00  0.00000000000E+00  0.42856957629E+03  0.42856957629E+03  0.00000000000E+00 0.  1.
         21   -1    0    0  502  503 -0.00000000000E+00 -0.00000000000E+00 -0.10300196287E+03  0.10300196287E+03  0.00000000000E+00 0.  1.
         -6    2    1    2    0  503  0.37384028617E+02 -0.79563969103E+02  0.69710577525E+02  0.21112939394E+03  0.17885207740E+03 0.  0.
        -24    2    3    3    0    0  0.82606776107E+02 -0.98973514331E+01  0.57969150066E+02  0.12711459984E+03  0.76654172160E+02 0.  0.
          6    2    1    2  501    0 -0.37384028617E+02  0.79563969103E+02  0.25585703589E+03  0.32044214522E+03  0.17173338303E+03 0.  0.
         24    2    5    5    0    0 -0.46468804575E+01  0.54302355037E+01  0.21775407060E+03  0.23076797229E+03  0.76065372008E+02 0.  0.
          5    1    5    5  501    0 -0.32737148159E+02  0.74133733599E+02  0.38102965293E+02  0.89674172932E+02  0.47000000000E+01 0. -1.
        -11    1    6    6    0    0  0.72882407643E+01  0.17974812527E+02  0.91492540021E+01  0.21445773188E+02  0.00000000000E+00 0.  1.
         12    1    6    6    0    0 -0.11935121222E+02 -0.12544577024E+02  0.20860481659E+03  0.20932219910E+03  0.00000000000E+00 0. -1.
         -5    1    3    3    0  503 -0.45222747491E+02 -0.69666617670E+02  0.11741427459E+02  0.84014794096E+02  0.47000000000E+01 0.  1.
         11    1    4    4    0    0  0.73686655865E+02 -0.21588237352E+02  0.73099399099E+02  0.10601555260E+03  0.00000000000E+00 0. -1.
        -12    1    4    4    0    0  0.89201202428E+01  0.11690885919E+02 -0.15130249033E+02  0.21099047242E+02  0.00000000000E+00 0.  1.
</event>
<event>
12    1  0.8251070E-002  0.1722366E+03  0.7818608E-02  0.1175842E+00
         21   -1    0    0  503  502  0.00000000000E+00  0.00000000000E+00  0.27855907961E+03  0.27855907961E+03  0.00000000000E+00 0.  1.
         21   -1    0    0  501  503 -0.00000000000E+00 -0.00000000000E+00 -0.23019293037E+03  0.23019293037E+03  0.00000000000E+00 0.  1.
          6    2    1    2  501    0 -0.15909514300E+02  0.15244067482E+01 -0.16288002824E+03  0.23618934067E+03  0.17029405328E+03 0.  0.
         24    2    3    3    0    0 -0.14046659324E+02  0.62456302700E+02 -0.59824864989E+02  0.11636186950E+03  0.76570045176E+02 0.  0.
         -6    2    1    2    0  502  0.15909514300E+02 -0.15244067482E+01  0.21124617748E+03  0.27256266932E+03  0.17149351226E+03 0.  0.
        -24    2    5    5    0    0  0.22795572959E+02 -0.65176918197E+02  0.15569728375E+03  0.18766962124E+03  0.78807193572E+02 0.  0.
          5    1    3    3  501    0 -0.18628549765E+01 -0.60931895952E+02 -0.10305516325E+03  0.11982747116E+03  0.47000000000E+01 0. -1.
        -11    1    4    4    0    0 -0.20383930045E+01 -0.10595525655E+02 -0.37522878070E+02  0.39043393661E+02  0.00000000000E+00 0.  1.
         12    1    4    4    0    0 -0.12008266319E+02  0.73051828355E+02 -0.22301986920E+02  0.77318475842E+02  0.00000000000E+00 0. -1.
         -5    1    5    5    0  502 -0.68860586583E+01  0.63652511449E+02  0.55548893729E+02  0.84893048079E+02  0.47000000000E+01 0.  1.
         13    1    6    6    0    0 -0.21677285374E+02 -0.14141881882E+00  0.59499571349E+02  0.63325537434E+02  0.00000000000E+00 0. -1.
        -14    1    6    6    0    0  0.44472858333E+02 -0.65035499378E+02  0.96197712396E+02  0.12434408381E+03  0.00000000000E+00 0.  1.
</event>
<event>
12    1  0.8251070E-002  0.3628188E+03  0.7818608E-02  0.1057571E+00
         21   -1    0    0  501  502  0.00000000000E+00  0.00000000000E+00  0.16313015973E+04  0.16313015973E+04  0.00000000000E+00 0.  1.
         21   -1    0    0  502  503 -0.00000000000E+00 -0.00000000000E+00 -0.16826148864E+03  0.16826148864E+03  0.00000000000E+00 0. -1.
         -6    2    1    2    0  503  0.31901886858E+03 -0.27679858263E+01  0.82078853512E+02  0.37198709851E+03  0.17279109644E+03 0.  0.
        -24    2    3    3    0    0  0.33170825384E+03 -0.10595574398E+02  0.91670277514E+02  0.35364651358E+03  0.80745185153E+02 0.  0.
          6    2    1    2  501    0 -0.31901886858E+03  0.27679858263E+01  0.13809612552E+04  0.14275759875E+04  0.17070006273E+03 0.  0.
         24    2    5    5    0    0 -0.28094743633E+03  0.54931231107E+02  0.11554684275E+04  0.11929709077E+04  0.78252140905E+02 0.  0.
          5    1    5    5  501    0 -0.38071432250E+02 -0.52163245281E+02  0.22549282772E+03  0.23460507979E+03  0.47000000000E+01 0. -1.
        -13    1    6    6    0    0 -0.14909978389E+03  0.38001518899E+02  0.77007595992E+03  0.78529729724E+03  0.00000000000E+00 0.  1.
         14    1    6    6    0    0 -0.13184765244E+03  0.16929712208E+02  0.38539246754E+03  0.40767361044E+03  0.00000000000E+00 0. -1.
         -5    1    3    3    0  503 -0.12689385262E+02  0.78275885721E+01 -0.95914240014E+01  0.18340584930E+02  0.47000000000E+01 0.  1.
         13    1    4    4    0    0  0.11221023944E+03  0.19869067214E+02  0.32501304298E+00  0.11395623415E+03  0.00000000000E+00 0. -1.
        -14    1    4    4    0    0  0.21949801440E+03 -0.30464641612E+02  0.91345264471E+02  0.23969027943E+03  0.00000000000E+00 0.  1.
</event>
<event>
12    1  0.8251070E-002  0.2432494E+03  0.7818608E-02  0.1118242E+00
         21   -1    0    0  501  502  0.00000000000E+00  0.00000000000E+00  0.19679679955E+03  0.19679679955E+03  0.00000000000E+00 0. -1.
         21   -1    0    0  502  503 -0.00000000000E+00 -0.00000000000E+00 -0.31075396638E+03  0.31075396638E+03  0.00000000000E+00 0. -1.
         -6    2    1    2    0  503  0.12434369293E+03  0.11945250158E+03 -0.11226203128E+03  0.26790493090E+03  0.17158098446E+03 0.  0.
        -24    2    3    3    0    0  0.97617696223E+02  0.14845012959E+03 -0.11868890826E+03  0.22767389714E+03  0.78623729902E+02 0.  0.
          6    2    1    2  501    0 -0.12434369293E+03 -0.11945250158E+03 -0.16951355574E+01  0.23964583503E+03  0.16642415287E+03 0.  0.
         24    2    5    5    0    0 -0.71852532181E+02  0.10198399029E+01 -0.68069789347E+01  0.10805127602E+03  0.80404706533E+02 0.  0.
          5    1    5    5  501    0 -0.52491160752E+02 -0.12047234148E+03  0.51118433773E+01  0.13159455901E+03  0.47000000000E+01 0. -1.
        -11    1    6    6    0    0 -0.43562883066E+02 -0.18941117999E+02 -0.38475367386E+02  0.61129736034E+02  0.00000000000E+00 0.  1.
         12    1    6    6    0    0 -0.28289649114E+02  0.19960957902E+02  0.31668388451E+02  0.46921539984E+02  0.00000000000E+00 0. -1.
         -5    1    3    3    0  503  0.26725996709E+02 -0.28997628007E+02  0.64268769766E+01  0.40231033764E+02  0.47000000000E+01 0.  1.
         13    1    4    4    0    0  0.68540885154E+02  0.39990859242E+02 -0.30970344008E+02  0.85183824572E+02  0.00000000000E+00 0. -1.
        -14    1    4    4    0    0  0.29076811069E+02  0.10845927034E+03 -0.87718564247E+02  0.14249007256E+03  0.00000000000E+00 0.  1.
</event>
<event>
12    1  0.8251070E-002  0.1775674E+03  0.7818608E-02  0.1171078E+00
         21   -1    0    0  503  502  0.00000000000E+00  0.00000000000E+00  0.39717998796E+03  0.39717998796E+03  0.00000000000E+00 0. -1.
         21   -1    0    0  501  503 -0.00000000000E+00 -0.00000000000E+00 -0.77782127369E+02  0.77782127369E+02  0.00000000000E+00 0. -1.
          6    2    1    2  501    0  0.16029425735E+02 -0.16315561884E+02  0.15629093317E+03  0.23385209545E+03  0.17244363341E+03 0.  0.
         24    2    3    3    0    0 -0.40842150082E+02 -0.44984339051E+02  0.56655940055E+02  0.11550727395E+03  0.80251871066E+02 0.  0.
         -6    2    1    2    0  502 -0.16029425735E+02  0.16315561884E+02  0.16310692741E+03  0.24111001988E+03  0.17608813665E+03 0.  0.
        -24    2    5    5    0    0  0.44060081968E+02  0.55000173577E+02  0.10361095395E+03  0.14800196987E+03  0.78759401924E+02 0.  0.
          5    1    3    3  501    0  0.56871575817E+02  0.28668777167E+02  0.99634993119E+02  0.11834482149E+03  0.47000000000E+01 0. -1.
        -11    1    4    4    0    0 -0.29539463198E+02  0.19363971970E+02  0.19389828260E+02  0.40292787648E+02  0.00000000000E+00 0.  1.
         12    1    4    4    0    0 -0.11302686884E+02 -0.64348311021E+02  0.37266111795E+02  0.75214486306E+02  0.00000000000E+00 0. -1.
         -5    1    5    5    0  502 -0.60089507702E+02 -0.38684611693E+02  0.59495973465E+02  0.93108050008E+02  0.47000000000E+01 0.  1.
         13    1    6    6    0    0 -0.21795200601E+02  0.24942572462E+02  0.28678808714E+02  0.43813659508E+02  0.00000000000E+00 0. -1.
        -14    1    6    6    0    0  0.65855282569E+02  0.30057601116E+02  0.74932145235E+02  0.10418831036E+03  0.00000000000E+00 0.  1.
</event>
<event>
12    1  0.8251070E-002  0.2002475E+03  0.7818608E-02  0.1149738E+00
         21   -1    0    0  501  502  0.00000000000E+00  0.00000000000E+00  0.72021561619E+02  0.72021561619E+02  0.00000000000E+00 0.  1.
         21   -1    0    0  502  503 -0.00000000000E+00 -0.00000000000E+00 -0.80674424859E+03  0.80674424859E+03  0.00000000000E+00 0.  1.
         -6    2    1    2    0  503 -0.81745309914E+02  0.61469620131E+02 -0.12082695161E+03  0.23303595561E+03  0.17101401838E+03 0.  0.
        -24    2    3    3    0    0 -0.11420306237E+02  0.33330831214E+02 -0.12627091076E+03  0.15694966069E+03  0.86298814484E+02 0.  0.
          6    2    1    2  501    0  0.81745309914E+02 -0.61469620131E+02 -0.61389573536E+03  0.64572985460E+03  0.17215766416E+03 0.  0.
         24    2    5    5    0    0  0.51738588915E+02 -0.61642477604E+02 -0.60282485746E+03  0.61340204115E+03  0.79922329097E+02 0.  0.
          5    1    5    5  501    0  0.30006721000E+02  0.17285747286E+00 -0.11070877908E+02  0.32327813451E+02  0.47000000000E+01 0. -1.
        -11    1    6    6    0    0  0.21653604483E+02 -0.19636743319E+01 -0.38360941572E+03  0.38422508824E+03  0.00000000000E+00 0.  1.
         12    1    6    6    0    0  0.30084984431E+02 -0.59678803272E+02 -0.21921544174E+03  0.22917695291E+03  0.00000000000E+00 0. -1.
         -5    1    3    3    0  503 -0.70325003678E+02  0.28138788917E+02  0.54439591556E+01  0.76086294924E+02  0.47000000000E+01 0.  1.
         11    1    4    4    0    0 -0.58124824350E+01 -0.24522914136E+02 -0.76106970505E+02  0.80171249393E+02  0.00000000000E+00 0. -1.
        -12    1    4    4    0    0 -0.56078238017E+01  0.57853745350E+02 -0.50163940257E+02  0.76778411294E+02  0.00000000000E+00 0.  1.
</event>
<event>
12    1  0.8251070E-002  0.2190683E+03  0.7818608E-02  0.1134610E+00
         21   -1    0    0  503  502  0.00000000000E+00  0.00000000000E+00  0.68502840511E+03  0.68502840511E+03  0.00000000000E+00 0.  1.
         21   -1    0    0  501  503 -0.00000000000E+00 -0.00000000000E+00 -0.14392002730E+03  0.14392002730E+03  0.00000000000E+00 0. -1.
          6    2    1    2  501    0  0.46236656594E+01 -0.13616312442E+03 -0.26525306226E+02  0.22050869100E+03  0.17134385371E+03 0.  0.
         24    2    3    3    0    0 -0.46010617544E+02 -0.29489659590E+02  0.59594586493E+01  0.97950914090E+02  0.81069411458E+02 0.  0.
         -6    2    1    2    0  502 -0.46236656594E+01  0.13616312442E+03  0.56763368403E+03  0.60843974140E+03  0.17154924929E+03 0.  0.
        -24    2    5    5    0    0 -0.25756676975E+02  0.39791268161E+01  0.16295385370E+03  0.18216862056E+03  0.77150554247E+02 0.  0.
          5    1    3    3  501    0  0.50634283203E+02 -0.10667346483E+03 -0.32484764875E+02  0.12255777691E+03  0.47000000000E+01 0. -1.
        -13    1    4    4    0    0 -0.30686832491E+01 -0.45972831930E+02  0.19456541560E+02  0.50014748845E+02  0.00000000000E+00 0.  1.
         14    1    4    4    0    0 -0.42941934295E+02  0.16483172340E+02 -0.13497082910E+02  0.47936165246E+02  0.00000000000E+00 0. -1.
         -5    1    5    5    0  502  0.21133011316E+02  0.13218399760E+03  0.40467983033E+03  0.42627112084E+03  0.47000000000E+01 0.  1.
         13    1    6    6    0    0 -0.10010954510E+02  0.23315258490E+02  0.10125600634E+02  0.27319375484E+02  0.00000000000E+00 0. -1.
        -14    1    6    6    0    0 -0.15745722465E+02 -0.19336131674E+02  0.15282825307E+03  0.15484924507E+03  0.00000000000E+00 0.  1.
</event>
<event>
12    1  0.8251070E-002  0.2347345E+03  0.7818608E-02  0.1124443E+00
         21   -1    0    0  503  502  0.00000000000E+00  0.00000000000E+00  0.70675717109E+02  0.70675717109E+02  0.00000000000E+00 0. -1.
         21   -1    0    0  501  503 -0.00000000000E+00 -0.00000000000E+00 -0.75972839556E+03  0.75972839556E+03  0.00000000000E+00 0. -1.
          6    2    1    2  501    0 -0.10948895061E+03  0.10509676312E+03 -0.36292811740E+03  0.43222341906E+03  0.17907290600E+03 0.  0.
         24    2    3    3    0    0 -0.29845051978E+02 -0.95575009259E+01 -0.20074739141E+03  0.21818270159E+03  0.79511654263E+02 0.  0.
         -6    2    1    2    0  502  0.10948895061E+03 -0.10509676312E+03 -0.32612456105E+03  0.39818069360E+03  0.17075560171E+03 0.  0.
        -24    2    5    5    0    0  0.11737476620E+03 -0.11162710173E+03 -0.19510960715E+03  0.26668225424E+03  0.82548290970E+02 0.  0.
          5    1    3    3  501    0 -0.79643898632E+02  0.11465426405E+03 -0.16218072599E+03  0.21404071747E+03  0.47000000000E+01 0. -1.
        -13    1    4    4    0    0  0.11218183246E+02 -0.14092497135E+02 -0.58257115838E+01  0.18931059830E+02  0.00000000000E+00 0.  1.
         14    1    4    4    0    0 -0.41063235224E+02  0.45349962087E+01 -0.19492167983E+03  0.19925164176E+03  0.00000000000E+00 0. -1.
         -5    1    5    5    0  502 -0.78858155925E+01  0.65303386120E+01 -0.13101495390E+03  0.13149843936E+03  0.47000000000E+01 0.  1.
         11    1    6    6    0    0  0.17835942673E+02 -0.70304353983E+02 -0.62061512564E+02  0.95459176520E+02  0.00000000000E+00 0. -1.
        -12    1    6    6    0    0  0.99538823530E+02 -0.41322747750E+02 -0.13304809459E+03  0.17122307772E+03  0.00000000000E+00 0.  1.
</event>
<event>
12    1  0.8251070E-002  0.1832316E+03  0.7818608E-02  0.1165370E+00
         21   -1    0    0  503  502  0.00000000000E+00  0.00000000000E+00  0.12586897519E+03  0.12586897519E+03  0.00000000000E+00 0. -1.
         21   -1    0    0  501  503 -0.00000000000E+00 -0.00000000000E+00 -0.27503378078E+03  0.27503378078E+03  0.00000000000E+00 0. -1.
          6    2    1    2  501    0  0.55464101181E+02  0.35427209561E+00 -0.31643259338E+02  0.18322147539E+03  0.17173357608E+03 0.  0.
         24    2    3    3    0    0 -0.25353227981E+02  0.24652315414E+02 -0.41996776398E+02  0.98067961560E+02  0.81259295052E+02 0.  0.
         -6    2    1    2    0  502 -0.55464101181E+02 -0.35427209561E+00 -0.11752154625E+03  0.21768128058E+03  0.17463514553E+03 0.  0.
        -24    2    5    5    0    0 -0.16250727149E+02  0.66526428296E+02 -0.78681031764E+02  0.13084009016E+03  0.78984635466E+02 0.  0.
          5    1    3    3  501    0  0.80817329162E+02 -0.24298043319E+02  0.10353517060E+02  0.85153513829E+02  0.47000000000E+01 0. -1.
        -13    1    4    4    0    0 -0.15614912463E+02  0.54767526274E+02 -0.27986736755E+02  0.63455219325E+02  0.00000000000E+00 0.  1.
         14    1    4    4    0    0 -0.97383155177E+01 -0.30115210859E+02 -0.14010039643E+02  0.34612742235E+02  0.00000000000E+00 0. -1.
         -5    1    5    5    0  502 -0.39213374032E+02 -0.66880700391E+02 -0.38840514489E+02  0.86841190420E+02  0.47000000000E+01 0.  1.
         11    1    6    6    0    0 -0.96604509221E+01 -0.20663189112E+01 -0.58085343237E+02  0.58919445727E+02  0.00000000000E+00 0. -1.
        -12    1    6    6    0    0 -0.65902762270E+01  0.68592747207E+02 -0.20595688527E+02  0.71920644436E+02  0.00000000000E+00 0.  1.
</event>
<event>
12    1  0.8251070E-002  0.2111962E+03  0.7818608E-02  0.1140657E+00
         21   -1    0    0  503  502  0.00000000000E+00  0.00000000000E+00  0.93507872731E+03  0.93507872731E+03  0.00000000000E+00 0. -1.
         21   -1    0    0  501  503 -0.00000000000E+00 -0.00000000000E+00 -0.69957150167E+02  0.69957150167E+02  0.00000000000E+00 0.  1.
          6    2    1    2  501    0  0.27430579494E+02 -0.11984880844E+03  0.14898856721E+03  0.25845972939E+03  0.17171972799E+03 0.  0.
         24    2    3    3    0    0  0.64044905210E+02 -0.20326770801E+02  0.60772641808E+02  0.12044022237E+03  0.79357455090E+02 0.  0.
         -6    2    1    2    0  502 -0.27430579494E+02  0.11984880844E+03  0.71613300992E+03  0.74657614808E+03  0.17150301282E+03 0.  0.
        -24    2    5    5    0    0  0.33335900202E+02  0.10485878233E+03  0.59341286349E+03  0.60873714678E+03  0.79469748004E+02 0.  0.
          5    1    3    3  501    0 -0.36614325715E+02 -0.99522037635E+02  0.88215925406E+02  0.13801950702E+03  0.47000000000E+01 0. -1.
        -13    1    4    4    0    0 -0.32055356909E+01  0.23215591552E+02  0.18486884326E+02  0.29849690823E+02  0.00000000000E+00 0.  1.
         14    1    4    4    0    0  0.67250440900E+02 -0.43542362353E+02  0.42285757483E+02  0.90590531550E+02  0.00000000000E+00 0. -1.
         -5    1    5    5    0  502 -0.60766479697E+02  0.14990026107E+02  0.12272014644E+03  0.13783900130E+03  0.47000000000E+01 0.  1.
         13    1    6    6    0    0 -0.89427937441E+01  0.60781930601E+02  0.16641240509E+03  0.17739082619E+03  0.00000000000E+00 0. -1.
        -14    1    6    6    0    0  0.42278693946E+02  0.44076851727E+02  0.42700045840E+03  0.43134632060E+03  0.00000000000E+00 0.  1.
</event>
<event>
12    1  0.8251070E-002  0.2065324E+03  0.7818608E-02  0.1144438E+00
         21   -1    0    0  501  502  0.00000000000E+00  0.00000000000E+00  0.73589178894E+02  0.73589178894E+02  0.00000000000E+00 0.  1.
         21   -1    0    0  502  503 -0.00000000000E+00 -0.00000000000E+00 -0.17276639207E+04  0.17276639207E+04  0.00000000000E+00 0.  1.
         -6    2    1    2    0  503 -0.52371140030E+02 -0.10285963580E+03 -0.15619416648E+04  0.15755371747E+04  0.17126816334E+03 0.  0.
        -24    2    3    3    0    0 -0.14851689078E+02 -0.13313672556E+03 -0.10835619148E+04  0.10947111287E+04  0.79624567101E+02 0.  0.
          6    2    1    2  501    0  0.52371140030E+02  0.10285963580E+03 -0.92133077054E+02  0.22571592490E+03  0.17069368436E+03 0.  0.
         24    2    5    5    0    0  0.90989014090E+01  0.10316071351E+03 -0.80304051643E+01  0.13101678709E+03  0.79849785677E+02 0.  0.
          5    1    5    5  501    0  0.43272238621E+02 -0.30107771427E+00 -0.84102671890E+02  0.94699137810E+02  0.47000000000E+01 0. -1.
        -11    1    6    6    0    0  0.44383369144E+02  0.65031154842E+02 -0.25036640676E+01  0.78773110200E+02  0.00000000000E+00 0.  1.
         12    1    6    6    0    0 -0.35284467735E+02  0.38129558669E+02 -0.55267410967E+01  0.52243676888E+02  0.00000000000E+00 0. -1.
         -5    1    3    3    0  503 -0.37519450951E+02  0.30277089765E+02 -0.47837974992E+03  0.48082604598E+03  0.47000000000E+01 0.  1.
         11    1    4    4    0    0  0.28948726603E+02 -0.51969743726E+02 -0.30872013139E+03  0.31439943156E+03  0.00000000000E+00 0. -1.
        -12    1    4    4    0    0 -0.43800415681E+02 -0.81166981836E+02 -0.77484178345E+03  0.78031169716E+03  0.00000000000E+00 0.  1.
</event>
<event>
12    1  0.8251070E-002  0.1837981E+03  0.7818608E-02  0.1167496E+00
         21   -1    0    0  503  502  0.00000000000E+00  0.00000000000E+00  0.16267482235E+03  0.16267482235E+03  0.00000000000E+00 0.  1.
         21   -1    0    0  501  503 -0.00000000000E+00 -0.00000000000E+00 -0.25472345071E+03  0.25472345071E+03  0.00000000000E+00 0.  1.
          6    2    1    2  501    0 -0.52946955890E+02  0.41695223364E+02 -0.14765413469E+03  0.22537294325E+03  0.15636287369E+03 0.  0.
         24    2    3    3    0    0  0.93013460083E+01 -0.18365933598E+02 -0.87286231864E+02  0.11978616682E+03  0.79410433406E+02 0.  0.
         -6    2    1    2    0  502  0.52946955890E+02 -0.41695223364E+02  0.55605506334E+02  0.19202532980E+03  0.17099673436E+03 0.  0.
        -24    2    5    5    0    0 -0.24440330750E+02  0.95964058516E+00  0.47671557331E+02  0.10318126923E+03  0.88179057970E+02 0.  0.
          5    1    3    3  501    0 -0.62248301899E+02  0.60061156961E+02 -0.60367902829E+02  0.10558677643E+03  0.47000000000E+01 0. -1.
        -11    1    4    4    0    0  0.14189032761E+02  0.29612661494E+02 -0.26522479918E+02  0.42209955135E+02  0.00000000000E+00 0.  1.
         12    1    4    4    0    0 -0.48876867529E+01 -0.47978595092E+02 -0.60763751946E+02  0.77576211684E+02  0.00000000000E+00 0. -1.
         -5    1    5    5    0  502  0.77387286640E+02 -0.42654863949E+02  0.79339490027E+01  0.88844060571E+02  0.47000000000E+01 0.  1.
         13    1    6    6    0    0  0.20368007683E+02  0.31264963997E+02  0.21838122564E+02  0.43234908440E+02  0.00000000000E+00 0. -1.
        -14    1    6    6    0    0 -0.44808338433E+02 -0.30305323412E+02  0.25833434767E+02  0.59946360791E+02  0.00000000000E+00 0.  1.
</event>
<event>
12    1  0.8251070E-002  0.1923796E+03  0.7818608E-02  0.1156518E+00
         21   -1    0    0  503  502  0.00000000000E+00  0.00000000000E+00  0.21496895420E+03  0.21496895420E+03  0.00000000000E+00 0.  1.
         21   -1    0    0  501  503 -0.00000000000E+00 -0.00000000000E+00 -0.17840574169E+03  0.17840574169E+03  0.00000000000E+00 0.  1.
          6    2    1    2  501    0 -0.62403875062E+02  0.61768294408E+02  0.57170119057E+02  0.19989456472E+03  0.17023468705E+03 0.  0.
         24    2    3    3    0    0 -0.21084769476E+02  0.63740890975E+02 -0.25912595198E+02  0.10696455325E+03  0.79135860245E+02 0.  0.
         -6    2    1    2    0  502  0.62403875062E+02 -0.61768294408E+02 -0.20606906550E+02  0.19348013116E+03  0.17117345221E+03 0.  0.
        -24    2    5    5    0    0 -0.85841703643E+01 -0.79274676826E+02  0.12248046230E+02  0.11318496356E+03  0.79389287518E+02 0.  0.
          5    1    3    3  501    0 -0.41319105585E+02 -0.19725965672E+01  0.83082714255E+02  0.92930011469E+02  0.47000000000E+01 0. -1.
        -11    1    4    4    0    0 -0.22918119676E+02  0.57668124596E+02  0.16394638281E+02  0.64184398168E+02  0.00000000000E+00 0.  1.
         12    1    4    4    0    0  0.18333501998E+01  0.60727663798E+01 -0.42307233479E+02  0.42780155085E+02  0.00000000000E+00 0. -1.
         -5    1    5    5    0  502  0.70988045426E+02  0.17506382417E+02 -0.32854952780E+02  0.80295167606E+02  0.47000000000E+01 0.  1.
         11    1    6    6    0    0  0.10915890700E+02  0.10293298150E+02 -0.11015235272E+02  0.18613007943E+02  0.00000000000E+00 0. -1.
        -12    1    6    6    0    0 -0.19500061064E+02 -0.89567974975E+02  0.23263281502E+02  0.94571955616E+02  0.00000000000E+00 0.  1.
</event>
<event>
12    1  0.8251070E-002  0.2332908E+03  0.7818608E-02  0.1124643E+00
         21   -1    0    0  501  502  0.00000000000E+00  0.00000000000E+00  0.49547840260E+02  0.49547840260E+02  0.00000000000E+00 0. -1.
         21   -1    0    0  502  503 -0.00000000000E+00 -0.00000000000E+00 -0.13097082642E+04  0.13097082642E+04  0.00000000000E+00 0.  1.
         -6    2    1    2    0  503 -0.49389647626E+02 -0.15069362474E+03 -0.90627627010E+03  0.93539455841E+03  0.16875543347E+03 0.  0.
        -24    2    3    3    0    0 -0.71291100032E+02 -0.15998750627E+03 -0.64642752167E+03  0.67441656717E+03  0.79314199182E+02 0.  0.
          6    2    1    2  501    0  0.49389647626E+02  0.15069362474E+03 -0.35388415387E+03  0.42386154608E+03  0.17110438351E+03 0.  0.
         24    2    5    5    0    0  0.65890815586E+02  0.65200307384E+02 -0.29607056750E+03  0.31923890692E+03  0.75253033749E+02 0.  0.
          5    1    5    5  501    0 -0.16501167960E+02  0.85493317354E+02 -0.57813586367E+02  0.10462263916E+03  0.47000000000E+01 0. -1.
        -11    1    6    6    0    0  0.81809293898E+02  0.48727429276E+02 -0.21827799935E+03  0.23814367078E+03  0.00000000000E+00 0.  1.
         12    1    6    6    0    0 -0.15918478312E+02  0.16472878108E+02 -0.77792568148E+02  0.81095236136E+02  0.00000000000E+00 0. -1.
         -5    1    3    3    0  503  0.21901452406E+02  0.92938815346E+01 -0.25984874844E+03  0.26097799125E+03  0.47000000000E+01 0.  1.
         13    1    4    4    0    0 -0.23794743724E+02 -0.12384422813E+03 -0.51257152634E+03  0.52785713246E+03  0.00000000000E+00 0. -1.
        -14    1    4    4    0    0 -0.47496356307E+02 -0.36143278148E+02 -0.13385599532E+03  0.14655943471E+03  0.00000000000E+00 0.  1.
</event>
<event>
12    1  0.8251070E-002  0.2233840E+03  0.7818608E-02  0.1131487E+00
         21   -1    0    0  503  502  0.00000000000E+00  0.00000000000E+00  0.59460083477E+03  0.59460083477E+03  0.00000000000E+00 0. -1.
         21   -1    0    0  501  503 -0.00000000000E+00 -0.00000000000E+00 -0.85405807850E+02  0.85405807850E+02  0.00000000000E+00 0.  1.
          6    2    1    2  501    0 -0.17376073446E+02 -0.14010573471E+03  0.30277223660E+03  0.37625981422E+03  0.17311520937E+03 0.  0.
         24    2    3    3    0    0 -0.33197649965E+02 -0.52360248099E+02  0.25614154368E+03  0.27553194208E+03  0.80409459409E+02 0.  0.
         -6    2    1    2    0  502  0.17376073446E+02  0.14010573471E+03  0.20642279032E+03  0.30374682840E+03  0.17239554105E+03 0.  0.
        -24    2    5    5    0    0  0.11622293898E+02  0.13655903212E+03  0.22859545109E+03  0.28009514846E+03  0.86104384122E+02 0.  0.
          5    1    3    3  501    0  0.15821576519E+02 -0.87745486607E+02  0.46630692919E+02  0.10072787214E+03  0.47000000000E+01 0. -1.
        -13    1    4    4    0    0  0.16822274786E+02  0.65841036047E+00  0.11822652916E+02  0.20571765971E+02  0.00000000000E+00 0.  1.
         14    1    4    4    0    0 -0.50019924750E+02 -0.53018658459E+02  0.24431889077E+03  0.25496017611E+03  0.00000000000E+00 0. -1.
         -5    1    5    5    0  502  0.57537795478E+01  0.35467025872E+01 -0.22172660770E+02  0.23651679939E+02  0.47000000000E+01 0.  1.
         13    1    6    6    0    0 -0.29964244098E+01  0.29677509907E+01  0.78558629251E+02  0.78671750553E+02  0.00000000000E+00 0. -1.
        -14    1    6    6    0    0  0.14618718308E+02  0.13359128113E+03  0.15003682184E+03  0.20142339791E+03  0.00000000000E+00 0.  1.
</event>
<event>
12    1  0.8251070E-002  0.1855315E+03  0.7818608E-02  0.1162675E+00
         21   -1    0    0  503  502  0.00000000000E+00  0.00000000000E+00  0.53282772011E+03  0.53282772011E+03  0.00000000000E+00 0.  1.
         21   -1    0    0  501  503 -0.00000000000E+00 -0.00000000000E+00 -0.82032715178E+02  0.82032715178E+02  0.00000000000E+00 0. -1.
          6    2    1    2  501    0 -0.35028985554E+01 -0.67946473691E+02  0.83204738799E+02  0.20333460343E+03  0.17260631161E+03 0.  0.
         24    2    3    3    0    0 -0.34055178149E+02 -0.40956052373E+02  0.11623303731E+03  0.15065744392E+03  0.79689353505E+02 0.  0.
         -6    2    1    2    0  502  0.35028985554E+01  0.67946473691E+02  0.36759026614E+03  0.41152583186E+03  0.17205206463E+03 0.  0.
        -24    2    5    5    0    0  0.11435710212E+01  0.94365260097E+02  0.15835355501E+03  0.20056230424E+03  0.79014425460E+02 0.  0.
          5    1    3    3  501    0  0.30552279594E+02 -0.26990421318E+02 -0.33028298512E+02  0.52677159509E+02  0.47000000000E+01 0. -1.
        -11    1    4    4    0    0 -0.52180185977E+02 -0.35397662440E+02  0.46371531542E+02  0.78269312328E+02  0.00000000000E+00 0.  1.
         12    1    4    4    0    0  0.18125007828E+02 -0.55583899327E+01  0.69861505769E+02  0.72388131595E+02  0.00000000000E+00 0. -1.
         -5    1    5    5    0  502  0.23593275342E+01 -0.26418786405E+02  0.20923671113E+03  0.21096352762E+03  0.47000000000E+01 0.  1.
         13    1    6    6    0    0  0.51323520551E+01  0.73432275170E+01 -0.84918127524E+01  0.12344023323E+02  0.00000000000E+00 0. -1.
        -14    1    6    6    0    0 -0.39887810339E+01  0.87022032580E+02  0.16684536776E+03  0.18821828092E+03  0.00000000000E+00 0.  1.
</event>
<event>
12    1  0.8251070E-002  0.4852749E+03  0.7818608E-02  0.1017731E+00
         21   -1    0    0  501  502  0.00000000000E+00  0.00000000000E+00  0.17856615380E+03  0.17856615380E+03  0.00000000000E+00 0. -1.
         21   -1    0    0  502  503 -0.00000000000E+00 -0.00000000000E+00 -0.23266867218E+04  0.23266867218E+04  0.00000000000E+00 0.  1.
         -6    2    1    2    0  503  0.44446740998E+03  0.89412373251E+02 -0.18994173492E+04  0.19604280171E+04  0.17304881585E+03 0.  0.
        -24    2    3    3    0    0  0.42053073148E+03  0.41373699973E+02 -0.17247064435E+04  0.17775983989E+04  0.81767184065E+02 0.  0.
          6    2    1    2  501    0 -0.44446740998E+03 -0.89412373251E+02 -0.24870321878E+03  0.54482485851E+03  0.17156626823E+03 0.  0.
         24    2    5    5    0    0 -0.27908854205E+03 -0.11402612094E+03 -0.12134071632E+03  0.33458855440E+03  0.79583671296E+02 0.  0.
          5    1    5    5  501    0 -0.16537886793E+03  0.24613747692E+02 -0.12736250246E+03  0.21023630411E+03  0.47000000000E+01 0.  1.
        -11    1    6    6    0    0 -0.90539561463E+02 -0.55536573408E+02 -0.79800597015E+02  0.13285276986E+03  0.00000000000E+00 0.  1.
         12    1    6    6    0    0 -0.18854898059E+03 -0.58489547534E+02 -0.41540119305E+02  0.20173578454E+03  0.00000000000E+00 0. -1.
         -5    1    3    3    0  503  0.23936678504E+02  0.48038673278E+02 -0.17471090570E+03  0.18282961816E+03  0.47000000000E+01 0.  1.
         13    1    4    4    0    0  0.81845633590E+02  0.22619603253E+02 -0.23822344765E+03  0.25290465634E+03  0.00000000000E+00 0. -1.
        -14    1    4    4    0    0  0.33868509789E+03  0.18754096720E+02 -0.14864829959E+04  0.15246937426E+04  0.00000000000E+00 0.  1.
</event>
<event>
12    1  0.8251070E-002  0.1975721E+03  0.7818608E-02  0.1151974E+00
         21   -1    0    0  501  502  0.00000000000E+00  0.00000000000E+00  0.60880998222E+03  0.60880998222E+03  0.00000000000E+00 0. -1.
         21   -1    0    0  502  503 -0.00000000000E+00 -0.00000000000E+00 -0.10394931090E+03  0.10394931090E+03  0.00000000000E+00 0. -1.
         -6    2    1    2    0  503 -0.93215107671E+02  0.20371714323E+02  0.31423627555E+02  0.20005546289E+03  0.17300485779E+03 0.  0.
        -24    2    3    3    0    0 -0.92827193196E+02  0.51511578472E+02  0.70574837677E+02  0.14980858367E+03  0.78685916884E+02 0.  0.
          6    2    1    2  501    0  0.93215107671E+02 -0.20371714323E+02  0.47343704377E+03  0.51270383023E+03  0.17210031980E+03 0.  0.
         24    2    5    5    0    0  0.62237295882E+02 -0.44607237129E+01  0.12174206999E+03  0.15925761222E+03  0.81538189759E+02 0.  0.
          5    1    5    5  501    0  0.30977811789E+02 -0.15910990610E+02  0.35169497378E+03  0.35344621801E+03  0.47000000000E+01 0. -1.
        -13    1    6    6    0    0 -0.19387540766E+02  0.57656297193E+01  0.20362223831E+02  0.28700860307E+02  0.00000000000E+00 0.  1.
         14    1    6    6    0    0  0.81624836648E+02 -0.10226353432E+02  0.10137984616E+03  0.13055675191E+03  0.00000000000E+00 0. -1.
         -5    1    3    3    0  503 -0.38791447497E+00 -0.31139864149E+02 -0.39151210122E+02  0.50246879215E+02  0.47000000000E+01 0.  1.
         11    1    4    4    0    0 -0.47033388030E+02  0.25367729089E+02 -0.91567947839E+01  0.54217231204E+02  0.00000000000E+00 0. -1.
        -12    1    4    4    0    0 -0.45793805167E+02  0.26143849382E+02  0.79731632461E+02  0.95591352470E+02  0.00000000000E+00 0.  1.
</event>
<event>
12    1  0.8251070E-002  0.2290137E+03  0.7818608E-02  0.1129399E+00
         21   -1    0    0  503  502  0.00000000000E+00  0.00000000000E+00  0.28915424810E+03  0.28915424810E+03  0.00000000000E+00 0. -1.
         21   -1    0    0  501  503 -0.00000000000E+00 -0.00000000000E+00 -0.29605517170E+03  0.29605517170E+03  0.00000000000E+00 0.  1.
          6    2    1    2  501    0  0.84913392517E+02  0.12534887618E+03 -0.19238700364E+03  0.29050219599E+03  0.15638459554E+03 0.  0.
         24    2    3    3    0    0  0.64425167459E+02  0.15327309481E+03 -0.16355173768E+03  0.24519113867E+03  0.75672186372E+02 0.  0.
         -6    2    1    2    0  502 -0.84913392517E+02 -0.12534887618E+03  0.18548608004E+03  0.29470722380E+03  0.17182734615E+03 0.  0.
        -24    2    5    5    0    0 -0.10522206081E+03 -0.12430833654E+03  0.10094831902E+03  0.20763112049E+03  0.79974211262E+02 0.  0.
          5    1    3    3  501    0  0.20488225058E+02 -0.27924218637E+02 -0.28835265959E+02  0.45311057320E+02  0.47000000000E+01 0. -1.
        -11    1    4    4    0    0  0.24284567534E+02  0.10650737668E+03 -0.14356516173E+03  0.18040098994E+03  0.00000000000E+00 0.  1.
         12    1    4    4    0    0  0.40140599924E+02  0.46765718131E+02 -0.19986575942E+02  0.64790148731E+02  0.00000000000E+00 0. -1.
         -5    1    5    5    0  502  0.20308668295E+02 -0.10405396339E+01  0.84537761014E+02  0.87076103311E+02  0.47000000000E+01 0.  1.
         13    1    6    6    0    0 -0.81042730752E+02 -0.34646495039E+02  0.41970723662E+02  0.97620927423E+02  0.00000000000E+00 0. -1.
        -14    1    6    6    0    0 -0.24179330059E+02 -0.89661841505E+02  0.58977595363E+02  0.11001019307E+03  0.00000000000E+00 0.  1.
</event>
<event>
12    1  0.8251070E-002  0.2075605E+03  0.7818608E-02  0.1143679E+00
         21   -1    0    0  501  502  0.00000000000E+00  0.00000000000E+00  0.10515722159E+03  0.10515722159E+03  0.00000000000E+00 0. -1.
         21   -1    0    0  502  503 -0.00000000000E+00 -0.00000000000E+00 -0.40834201400E+03  0.40834201400E+03  0.00000000000E+00 0.  1.
         -6    2    1    2    0  503 -0.90544433819E+02  0.72569547668E+02 -0.15872117388E+03  0.26129251228E+03  0.17209512541E+03 0.  0.
        -24    2    3    3    0    0 -0.43146792629E+02 -0.27056905264E+02 -0.91370219479E+02  0.13194720864E+03  0.80422801640E+02 0.  0.
          6    2    1    2  501    0  0.90544433819E+02 -0.72569547668E+02 -0.14446361853E+03  0.25220672331E+03  0.17109605624E+03 0.  0.
         24    2    5    5    0    0  0.11157160347E+03 -0.63871794704E+02 -0.56464202332E+02  0.16119144976E+03  0.79162165653E+02 0.  0.
          5    1    5    5  501    0 -0.21027169646E+02 -0.86977529635E+01 -0.87999416195E+02  0.91015273556E+02  0.47000000000E+01 0. -1.
        -13    1    6    6    0    0  0.73102117938E+02 -0.39597701973E+02 -0.75099045859E+02  0.11203465686E+03  0.00000000000E+00 0.  1.
         14    1    6    6    0    0  0.38469485528E+02 -0.24274092731E+02  0.18634843527E+02  0.49156792897E+02  0.00000000000E+00 0. -1.
         -5    1    3    3    0  503 -0.47397641190E+02  0.99626452932E+02 -0.67350954404E+02  0.12934530364E+03  0.47000000000E+01 0.  1.
         11    1    4    4    0    0 -0.25056269950E+01 -0.35937347194E+02 -0.53815392697E+01  0.36424333280E+02  0.00000000000E+00 0. -1.
        -12    1    4    4    0    0 -0.40641165634E+02  0.88804419296E+01 -0.85988680210E+02  0.95522875361E+02  0.00000000000E+00 0.  1.
</event>
<event>
12    1  0.8251070E-002  0.1945646E+03  0.7818608E-02  0.1154499E+00
         21   -1    0    0  501  502  0.00000000000E+00  0.00000000000E+00  0.11996871008E+03  0.11996871008E+03  0.00000000000E+00 0.  1.
         21   -1    0    0  502  503 -0.00000000000E+00 -0.00000000000E+00 -0.43638599339E+03  0.43638599339E+03  0.00000000000E+00 0.  1.
         -6    2    1    2    0  503 -0.89303886898E+02 -0.12152694792E+02 -0.30512542872E+03  0.36187971540E+03  0.17243122966E+03 0.  0.
        -24    2    3    3    0    0 -0.83243573840E+02  0.54228575915E+02 -0.20756779926E+03  0.24363090331E+03  0.80008716571E+02 0.  0.
          6    2    1    2  501    0  0.89303886898E+02  0.12152694792E+02 -0.11291854590E+02  0.19447498808E+03  0.17195971273E+03 0.  0.
         24    2    5    5    0    0 -0.25604457227E+02 -0.20413737107E+02  0.14769691308E+02  0.72140225189E+02  0.62560046487E+02 0.  0.
          5    1    5    5  501    0  0.11490834412E+03  0.32566431899E+02 -0.26061545899E+02  0.12233476289E+03  0.47000000000E+01 0. -1.
        -13    1    6    6    0    0 -0.68636489189E+01  0.12167562355E+02  0.28808752145E+02  0.32017236769E+02  0.00000000000E+00 0.  1.
         14    1    6    6    0    0 -0.18740808308E+02 -0.32581299461E+02 -0.14039060837E+02  0.40122988421E+02  0.00000000000E+00 0. -1.
         -5    1    3    3    0  503 -0.60603130575E+01 -0.66381270707E+02 -0.97557629455E+02  0.11824881209E+03  0.47000000000E+01 0.  1.
         11    1    4    4    0    0 -0.11165233434E+02 -0.11256382517E+02 -0.17675636680E+01  0.15952832549E+02  0.00000000000E+00 0. -1.
        -12    1    4    4    0    0 -0.72078340406E+02  0.65484958431E+02 -0.20580023559E+03  0.22767807076E+03  0.00000000000E+00 0.  1.
</event>
<event>
12    1  0.8251070E-002  0.1773507E+03  0.7818608E-02  0.1170856E+00
         21   -1    0    0  501  502  0.00000000000E+00  0.00000000000E+00  0.74275787336E+03  0.74275787336E+03  0.00000000000E+00 0. -1.
         21   -1    0    0  502  503 -0.00000000000E+00 -0.00000000000E+00 -0.68526500531E+02  0.68526500531E+02  0.00000000000E+00 0. -1.
         -6    2    1    2    0  503 -0.38313820779E+02  0.16746326162E+01  0.83178057322E+02  0.19419663582E+03  0.17123957162E+03 0.  0.
        -24    2    3    3    0    0 -0.79386397592E+02 -0.17147490233E+02  0.93899351112E+02  0.14752474905E+03  0.79688310923E+02 0.  0.
          6    2    1    2  501    0  0.38313820779E+02 -0.16746326162E+01  0.59105331550E+03  0.61708773807E+03  0.17315455941E+03 0.  0.
         24    2    5    5    0    0 -0.27560350232E+02 -0.88145261316E+01  0.16109045687E+03  0.18202391023E+03  0.79657390274E+02 0.  0.
          5    1    5    5  501    0  0.65874171011E+02  0.71398935154E+01  0.42996285863E+03  0.43506382783E+03  0.47000000000E+01 0. -1.
        -13    1    6    6    0    0  0.16946918779E+02 -0.12109544231E+02  0.75921618307E+01  0.22169349085E+02  0.00000000000E+00 0.  1.
         14    1    6    6    0    0 -0.44507269011E+02  0.32950180992E+01  0.15349829504E+03  0.15985456115E+03  0.00000000000E+00 0. -1.
         -5    1    3    3    0  503  0.41072576814E+02  0.18822122849E+02 -0.10721293790E+02  0.46671886776E+02  0.47000000000E+01 0.  1.
         11    1    4    4    0    0 -0.55371317692E+02  0.28073643197E+02  0.58286194320E+02  0.85155109733E+02  0.00000000000E+00 0. -1.
        -12    1    4    4    0    0 -0.24015079900E+02 -0.45221133430E+02  0.35613156792E+02  0.62369639313E+02  0.00000000000E+00 0.  1.
</event>
<event>
12    1  0.8251070E-002  0.1740677E+03  0.7818608E-02  0.1174061E+00
         21   -1    0    0  501  502  0.00000000000E+00  0.00000000000E+00  0.50118400589E+02  0.50118400589E+02  0.00000000000E+00 0. -1.
         21   -1    0    0  502  503 -0.00000000000E+00 -0.00000000000E+00 -0.80305996184E+03  0.80305996184E+03  0.00000000000E+00 0. -1.
         -6    2    1    2    0  503 -0.49233031589E+00 -0.22782448977E+02 -0.59013486866E+03  0.61483914364E+03  0.17102259197E+03 0.  0.
        -24    2    3    3    0    0 -0.79899642143E+01  0.35581514858E+01 -0.57794614903E+03  0.58449616038E+03  0.86818836359E+02 0.  0.
          6    2    1    2  501    0  0.49233031589E+00  0.22782448977E+02 -0.16280669259E+03  0.23833921880E+03  0.17256964302E+03 0.  0.
         24    2    5    5    0    0 -0.45196270230E+01  0.56264508146E+02 -0.17728633652E+03  0.20121889969E+03  0.76632098821E+02 0.  0.
          5    1    5    5  501    0  0.50119573389E+01 -0.33482059169E+02  0.14479643927E+02  0.37120319110E+02  0.47000000000E+01 0. -1.
        -11    1    6    6    0    0  0.23908562423E+02  0.30504788867E+01 -0.10164752194E+03  0.10446599205E+03  0.00000000000E+00 0.  1.
         12    1    6    6    0    0 -0.28428189446E+02  0.53214029260E+02 -0.75638814576E+02  0.96752907634E+02  0.00000000000E+00 0. -1.
         -5    1    3    3    0  503  0.74976338984E+01 -0.26340600463E+02 -0.12188719635E+02  0.30342983261E+02  0.47000000000E+01 0.  1.
         11    1    4    4    0    0  0.84384736022E+01 -0.34921685354E+02 -0.13927271554E+03  0.14383192009E+03  0.00000000000E+00 0. -1.
        -12    1    4    4    0    0 -0.16428437817E+02  0.38479836839E+02 -0.43867343349E+03  0.44066424028E+03  0.00000000000E+00 0.  1.
</event>
<event>
12    1  0.8251070E-002  0.2375190E+03  0.7818608E-02  0.1121633E+00
         21   -1    0    0  501  502  0.00000000000E+00  0.00000000000E+00  0.10598853887E+03  0.10598853887E+03  0.00000000000E+00 0.  1.
         21   -1    0    0  502  503 -0.00000000000E+00 -0.00000000000E+00 -0.54500210850E+03  0.54500210850E+03  0.00000000000E+00 0. -1.
         -6    2    1    2    0  503 -0.70205650613E+02 -0.14747435566E+03 -0.16586694964E+03  0.28970176519E+03  0.17244636504E+03 0.  0.
        -24    2    3    3    0    0 -0.10120397110E+03 -0.11240559695E+03 -0.17113831753E+03  0.24236688344E+03  0.81093282508E+02 0.  0.
          6    2    1    2  501    0  0.70205650613E+02  0.14747435566E+03 -0.27314661999E+03  0.36128888218E+03  0.17100602744E+03 0.  0.
         24    2    5    5    0    0  0.10955625275E+03  0.76853636360E+02 -0.17980843910E+03  0.23771759954E+03  0.79180353740E+02 0.  0.
          5    1    5    5  501    0 -0.39350602138E+02  0.70620719298E+02 -0.93338180889E+02  0.12357128264E+03  0.47000000000E+01 0. -1.
        -11    1    6    6    0    0  0.56444574291E+02  0.12347328699E+02 -0.27489903881E+02  0.63985477323E+02  0.00000000000E+00 0.  1.
         12    1    6    6    0    0  0.53111678460E+02  0.64506307662E+02 -0.15231853522E+03  0.17373212221E+03  0.00000000000E+00 0. -1.
         -5    1    3    3    0  503  0.30998320488E+02 -0.35068758714E+02  0.52713678932E+01  0.47334881750E+02  0.47000000000E+01 0.  1.
         11    1    4    4    0    0 -0.28866716886E+01  0.10995907759E+02 -0.24314112035E+02  0.26840620427E+02  0.00000000000E+00 0. -1.
        -12    1    4    4    0    0 -0.98317299412E+02 -0.12340150470E+03 -0.14682420550E+03  0.21552626301E+03  0.00000000000E+00 0.  1.
</event>
<event>
12    1  0.8251070E-002  0.1800992E+03  0.7818608E-02  0.1167835E+00
         21   -1    0    0  503  502  0.00000000000E+00  0.00000000000E+00  0.16748424969E+03  0.16748424969E+03  0.00000000000E+00 0.  1.
         21   -1    0    0  501  503 -0.00000000000E+00 -0.00000000000E+00 -0.19925731243E+03  0.19925731243E+03  0.00000000000E+00 0.  1.
          6    2    1    2  501    0 -0.52029222351E+02  0.53343954853E+01  0.16374979958E+02  0.18031742485E+03  0.17178689700E+03 0.  0.
         24    2    3    3    0    0 -0.12165764088E+01 -0.38186281927E+02 -0.35755628316E+02  0.95372356308E+02  0.79735495269E+02 0.  0.
         -6    2    1    2    0  502  0.52029222351E+02 -0.53343954853E+01 -0.48148042695E+02  0.18642413727E+03  0.17233754433E+03 0.  0.
        -24    2    5    5    0    0  0.49532295648E+02  0.39547396209E+02 -0.81179326223E+02  0.13044409118E+03  0.80050815475E+02 0.  0.
          5    1    3    3  501    0 -0.50812645943E+02  0.43520677412E+02  0.52130608274E+02  0.84945068539E+02  0.47000000000E+01 0. -1.
        -13    1    4    4    0    0  0.12596507886E+01  0.16863409394E+02 -0.36537964654E+02  0.40261447535E+02  0.00000000000E+00 0.  1.
         14    1    4    4    0    0 -0.24762271974E+01 -0.55049691321E+02  0.78233633804E+00  0.55110908773E+02  0.00000000000E+00 0. -1.
         -5    1    5    5    0  502  0.24969267035E+01 -0.44881791695E+02  0.33031283528E+02  0.55980046090E+02  0.47000000000E+01 0.  1.
         13    1    6    6    0    0  0.72382829056E+01  0.17351963943E+02 -0.80509005396E+02  0.82675167626E+02  0.00000000000E+00 0. -1.
        -14    1    6    6    0    0  0.42294012742E+02  0.22195432266E+02 -0.67032082702E+00  0.47768923552E+02  0.00000000000E+00 0.  1.
</event>
<event>
12    1  0.8251070E-002  0.1949252E+03  0.7818608E-02  0.1154378E+00
         21   -1    0    0  501  502  0.00000000000E+00  0.00000000000E+00  0.58308654617E+03  0.58308654617E+03  0.00000000000E+00 0. -1.
         21   -1    0    0  502  503 -0.00000000000E+00 -0.00000000000E+00 -0.12503179487E+03  0.12503179487E+03  0.00000000000E+00 0.  1.
         -6    2    1    2    0  503  0.14446719331E+02 -0.88398932084E+02 -0.17257293264E+02  0.19438946230E+03  0.17165771170E+03 0.  0.
        -24    2    3    3    0    0  0.12635188024E+02 -0.12837647931E+03 -0.25171161892E+02  0.15332603277E+03  0.78962753976E+02 0.  0.
          6    2    1    2  501    0 -0.14446719331E+02  0.88398932084E+02  0.47531204456E+03  0.51372887875E+03  0.17312637657E+03 0.  0.
         24    2    5    5    0    0 -0.45070581764E+02  0.11326046308E+03  0.29640159194E+03  0.33046143284E+03  0.80570249160E+02 0.  0.
          5    1    5    5  501    0  0.30623862434E+02 -0.24861531000E+02  0.17891045262E+03  0.18326744591E+03  0.47000000000E+01 0. -1.
        -11    1    6    6    0    0 -0.14317560418E+02  0.11418862911E+03  0.24175299798E+03  0.26774717102E+03  0.00000000000E+00 0.  1.
         12    1    6    6    0    0 -0.30753021346E+02 -0.92816602587E+00  0.54648593961E+02  0.62714261823E+02  0.00000000000E+00 0. -1.
         -5    1    3    3    0  503  0.18115313064E+01  0.39977547229E+02  0.79138686282E+01  0.41063429530E+02  0.47000000000E+01 0.  1.
         11    1    4    4    0    0  0.10836194345E+02 -0.72618074764E+02  0.25736697767E+02  0.77802220420E+02  0.00000000000E+00 0. -1.
        -12    1    4    4    0    0  0.17989936795E+01 -0.55758404548E+02 -0.50907859660E+02  0.75523812345E+02  0.00000000000E+00 0.  1.
</event>
<event>
12    1  0.8251070E-002  0.1810501E+03  0.7818608E-02  0.1167839E+00
         21   -1    0    0  501  502  0.00000000000E+00  0.00000000000E+00  0.10626685250E+04  0.10626685250E+04  0.00000000000E+00 0.  1.
         21   -1    0    0  502  503 -0.00000000000E+00 -0.00000000000E+00 -0.30116081779E+02  0.30116081779E+02  0.00000000000E+00 0.  1.
         -6    2    1    2    0  503 -0.67168261069E+00 -0.42524153789E+02  0.50840502191E+03  0.53824906960E+03  0.17154486241E+03 0.  0.
        -24    2    3    3    0    0 -0.51804914069E+02 -0.53537971257E+02  0.22498712213E+03  0.25000662400E+03  0.79586703864E+02 0.  0.
          6    2    1    2  501    0  0.67168261069E+00  0.42524153789E+02  0.52414742133E+03  0.55453553719E+03  0.17598405583E+03 0.  0.
         24    2    5    5    0    0 -0.24546209884E+02  0.62489318821E+02  0.17522689113E+03  0.20410412263E+03  0.80290710000E+02 0.  0.
          5    1    5    5  501    0  0.25217892494E+02 -0.19965165032E+02  0.34892053019E+03  0.35043141456E+03  0.47000000000E+01 0. -1.
        -11    1    6    6    0    0 -0.40812221810E+02  0.35754044697E+02  0.16067981835E+03  0.16959361187E+03  0.00000000000E+00 0.  1.
         12    1    6    6    0    0  0.16266011926E+02  0.26735274124E+02  0.14547072780E+02  0.34510510760E+02  0.00000000000E+00 0. -1.
         -5    1    3    3    0  503  0.51133231458E+02  0.11013817468E+02  0.28341789977E+03  0.28824244560E+03  0.47000000000E+01 0.  1.
         13    1    4    4    0    0 -0.65024491669E+02 -0.32095151898E+02  0.20620901836E+03  0.21858737966E+03  0.00000000000E+00 0. -1.
        -14    1    4    4    0    0  0.13219577600E+02 -0.21442819359E+02  0.18778103771E+02  0.31419244345E+02  0.00000000000E+00 0.  1.
</event>
<event>
12    1  0.8251070E-002  0.1831830E+03  0.7818608E-02  0.1165702E+00
         21   -1    0    0  503  502  0.00000000000E+00  0.00000000000E+00  0.14585625807E+03  0.14585625807E+03  0.00000000000E+00 0.  1.
         21   -1    0    0  501  503 -0.00000000000E+00 -0.00000000000E+00 -0.65966905147E+03  0.65966905147E+03  0.00000000000E+00 0.  1.
          6    2    1    2  501    0  0.48864811242E+02 -0.43080082767E+02 -0.58474407159E+03  0.61276556563E+03  0.17120848651E+03 0.  0.
         24    2    3    3    0    0 -0.34502739364E+02 -0.35983393843E+02 -0.18262758124E+03  0.20200983128E+03  0.70497481156E+02 0.  0.
         -6    2    1    2    0  502 -0.48864811242E+02  0.43080082767E+02  0.70931278186E+02  0.19275974391E+03  0.16697727192E+03 0.  0.
        -24    2    5    5    0    0 -0.73661576423E+02  0.40089134208E+02  0.99309452108E+02  0.15466465115E+03  0.83818974674E+02 0.  0.
          5    1    3    3  501    0  0.83367550606E+02 -0.70966889238E+01 -0.40211649036E+03  0.41075573436E+03  0.47000000000E+01 0. -1.
        -13    1    4    4    0    0  0.18434959021E+02 -0.21943144119E+02 -0.39825054807E+02  0.49065102449E+02  0.00000000000E+00 0.  1.
         14    1    4    4    0    0 -0.52937698385E+02 -0.14040249725E+02 -0.14280252643E+03  0.15294472883E+03  0.00000000000E+00 0. -1.
         -5    1    5    5    0  502  0.24796765181E+02  0.29909485590E+01 -0.28378173922E+02  0.38095092753E+02  0.47000000000E+01 0.  1.
         13    1    6    6    0    0  0.42708356325E+01 -0.16907330110E+02  0.33659607107E+02  0.37908666542E+02  0.00000000000E+00 0. -1.
        -14    1    6    6    0    0 -0.77932412055E+02  0.56996464318E+02  0.65649845001E+02  0.11675598461E+03  0.00000000000E+00 0.  1.
</event>
<event>
12    1  0.8251070E-002  0.2314443E+03  0.7818608E-02  0.1125689E+00
         21   -1    0    0  503  502  0.00000000000E+00  0.00000000000E+00  0.20099559339E+03  0.20099559339E+03  0.00000000000E+00 0. -1.
         21   -1    0    0  501  503 -0.00000000000E+00 -0.00000000000E+00 -0.27447528777E+03  0.27447528777E+03  0.00000000000E+00 0.  1.
          6    2    1    2  501    0  0.62553118541E+02  0.14194371151E+03 -0.78236320076E+02  0.24397769083E+03  0.17129880901E+03 0.  0.
         24    2    3    3    0    0  0.10806322200E+03  0.11955108955E+03 -0.65852485497E+02  0.19155585956E+03  0.79918549312E+02 0.  0.
         -6    2    1    2    0  502 -0.62553118541E+02 -0.14194371151E+03  0.47566256919E+01  0.23149319033E+03  0.17177183065E+03 0.  0.
        -24    2    5    5    0    0  0.21960287256E+02 -0.10385392860E+03  0.22604876112E+02  0.13697336509E+03  0.83563326988E+02 0.  0.
          5    1    3    3  501    0 -0.45510103455E+02  0.22392621956E+02 -0.12383834580E+02  0.52421831268E+02  0.47000000000E+01 0. -1.
        -11    1    4    4    0    0  0.66038954936E+02  0.19782225670E+02 -0.97506121849E+01  0.69624381214E+02  0.00000000000E+00 0.  1.
         12    1    4    4    0    0  0.42024267061E+02  0.99768863883E+02 -0.56101873312E+02  0.12193147835E+03  0.00000000000E+00 0. -1.
         -5    1    5    5    0  502 -0.84513405797E+02 -0.38089782911E+02 -0.17848250420E+02  0.94519825247E+02  0.47000000000E+01 0.  1.
         11    1    6    6    0    0 -0.32143153419E+02 -0.39248739933E+02  0.11007297635E+02  0.51911525688E+02  0.00000000000E+00 0. -1.
        -12    1    6    6    0    0  0.54103440674E+02 -0.64605188665E+02  0.11597578477E+02  0.85061839398E+02  0.00000000000E+00 0.  1.
</event>
<event>
12    1  0.8251070E-002  0.2409255E+03  0.7818608E-02  0.1119223E+00
         21   -1    0    0  503  502  0.00000000000E+00  0.00000000000E+00  0.10431258097E+04  0.10431258097E+04  0.00000000000E+00 0. -1.
         21   -1    0    0  501  503 -0.00000000000E+00 -0.00000000000E+00 -0.71743543704E+02  0.71743543704E+02  0.00000000000E+00 0. -1.
          6    2    1    2  501    0  0.16700430454E+03 -0.25779674369E+02  0.22091273411E+03  0.32667544636E+03  0.17134579603E+03 0.  0.
         24    2    3    3    0    0  0.86074233583E+02 -0.79223385696E+02  0.13937186644E+03  0.19988069187E+03  0.82720343928E+02 0.  0.
         -6    2    1    2    0  502 -0.16700430454E+03  0.25779674369E+02  0.75046953192E+03  0.78819390707E+03  0.17172678144E+03 0.  0.
        -24    2    5    5    0    0 -0.54473604533E+02  0.56399449476E+02  0.23776640495E+03  0.26237329558E+03  0.78476820892E+02 0.  0.
          5    1    3    3  501    0  0.80930070960E+02  0.53443711328E+02  0.81540867671E+02  0.12679475449E+03  0.47000000000E+01 0. -1.
        -13    1    4    4    0    0  0.26329923851E+02 -0.33277128133E+01  0.84983554034E+02  0.89031135109E+02  0.00000000000E+00 0.  1.
         14    1    4    4    0    0  0.59744309732E+02 -0.75895672883E+02  0.54388312403E+02  0.11084955676E+03  0.00000000000E+00 0. -1.
         -5    1    5    5    0  502 -0.11253070001E+03 -0.30619775107E+02  0.51270312696E+03  0.52582061149E+03  0.47000000000E+01 0.  1.
         13    1    6    6    0    0 -0.92051748631E+01  0.41332413096E+02  0.19073607886E+03  0.19538002814E+03  0.00000000000E+00 0. -1.
        -14    1    6    6    0    0 -0.45268429670E+02  0.15067036380E+02  0.47030326093E+02  0.66993267441E+02  0.00000000000E+00 0.  1.
</event>
<event>
12    1  0.8251070E-002  0.1792915E+03  0.7818608E-02  0.1168669E+00
         21   -1    0    0  501  502  0.00000000000E+00  0.00000000000E+00  0.82302608247E+03  0.82302608247E+03  0.00000000000E+00 0.  1.
         21   -1    0    0  502  503 -0.00000000000E+00 -0.00000000000E+00 -0.75177015041E+02  0.75177015041E+02  0.00000000000E+00 0.  1.
         -6    2    1    2    0  503 -0.37704191690E+02  0.34269854552E+02  0.61549817261E+02  0.18887093745E+03  0.17113685169E+03 0.  0.
        -24    2    3    3    0    0 -0.75769225513E+02  0.50300498798E+02  0.91531772450E+01  0.12198726052E+03  0.80783633008E+02 0.  0.
          6    2    1    2  501    0  0.37704191690E+02 -0.34269854552E+02  0.68629925017E+03  0.70933216006E+03  0.17189945756E+03 0.  0.
         24    2    5    5    0    0  0.16626494205E+02  0.44800507524E+02  0.44290959730E+03  0.45251120178E+03  0.79460371051E+02 0.  0.
          5    1    5    5  501    0  0.21077697485E+02 -0.79070362076E+02  0.24338965286E+03  0.25682095828E+03  0.47000000000E+01 0. -1.
        -11    1    6    6    0    0  0.32553693015E+02  0.59062589267E+02  0.27045833664E+03  0.27873974284E+03  0.00000000000E+00 0.  1.
         12    1    6    6    0    0 -0.15927198810E+02 -0.14262081744E+02  0.17245126066E+03  0.17377145894E+03  0.00000000000E+00 0. -1.
         -5    1    3    3    0  503  0.38065033823E+02 -0.16030644246E+02  0.52396640016E+02  0.66883676931E+02  0.47000000000E+01 0.  1.
         11    1    4    4    0    0 -0.27462083654E+02 -0.21655406830E+02  0.22544772454E+01  0.35045760817E+02  0.00000000000E+00 0. -1.
        -12    1    4    4    0    0 -0.48307141859E+02  0.71955905628E+02  0.68986999996E+01  0.86941499705E+02  0.00000000000E+00 0.  1.
</event>
<event>
12    1  0.8251070E-002  0.1852428E+03  0.7818608E-02  0.1162923E+00
         21   -1    0    0  501  502  0.00000000000E+00  0.00000000000E+00  0.61157768490E+02  0.61157768490E+02  0.00000000000E+00 0. -1.
         21   -1    0    0  502  503 -0.00000000000E+00 -0.00000000000E+00 -0.12546818329E+04  0.12546818329E+04  0.00000000000E+00 0. -1.
         -6    2    1    2    0  503  0.62556866499E+02  0.26499783473E+02 -0.10860795221E+04  0.11016919090E+04  0.17187418087E+03 0.  0.
        -24    2    3    3    0    0  0.62620396180E+02 -0.11338782174E+02 -0.10267631701E+04  0.10311775084E+04  0.70954663742E+02 0.  0.
          6    2    1    2  501    0 -0.62556866499E+02 -0.26499783473E+02 -0.10744454236E+03  0.21414769240E+03  0.17233486126E+03 0.  0.
         24    2    5    5    0    0 -0.94283643390E+02 -0.14205900020E+02 -0.12441526620E+03  0.17583550883E+03  0.79672797713E+02 0.  0.
          5    1    5    5  501    0  0.31726776891E+02 -0.12293883452E+02  0.16970723840E+02  0.38312183570E+02  0.47000000000E+01 0. -1.
        -13    1    6    6    0    0 -0.18190280536E+02 -0.31896625963E+02 -0.74696175809E+02  0.83233405158E+02  0.00000000000E+00 0.  1.
         14    1    6    6    0    0 -0.76093362855E+02  0.17690725943E+02 -0.49719090389E+02  0.92602103669E+02  0.00000000000E+00 0. -1.
         -5    1    3    3    0  503 -0.63529680966E-01  0.37838565647E+02 -0.59316351986E+02  0.70514400651E+02  0.47000000000E+01 0.  1.
         11    1    4    4    0    0  0.10674961156E+02  0.17401071965E+02 -0.59523366757E+03  0.59558363906E+03  0.00000000000E+00 0. -1.
        -12    1    4    4    0    0  0.51945435024E+02 -0.28739854139E+02 -0.43152950254E+03  0.43559386933E+03  0.00000000000E+00 0.  1.
</event>
<event>
12    1  0.8251070E-002  0.2449608E+03  0.7818608E-02  0.1117418E+00
         21   -1    0    0  503  502  0.00000000000E+00  0.00000000000E+00  0.16773872408E+04  0.16773872408E+04  0.00000000000E+00 0.  1.
         21   -1    0    0  501  503 -0.00000000000E+00 -0.00000000000E+00 -0.83605403289E+02  0.83605403289E+02  0.00000000000E+00 0. -1.
          6    2    1    2  501    0 -0.10918090663E+03  0.13427376433E+03  0.12919332929E+03  0.27694168465E+03  0.17336627758E+03 0.  0.
         24    2    3    3    0    0 -0.44026563603E+02  0.94132836286E+02  0.47099382138E+01  0.13074118132E+03  0.79194341999E+02 0.  0.
         -6    2    1    2    0  502  0.10918090663E+03 -0.13427376433E+03  0.14645885082E+04  0.14840509595E+04  0.16564370696E+03 0.  0.
        -24    2    5    5    0    0  0.12380131221E+03 -0.78841035978E+02  0.81552324496E+03  0.83244191285E+03  0.79615961598E+02 0.  0.
          5    1    3    3  501    0 -0.65154343023E+02  0.40140928043E+02  0.12448339108E+03  0.14620050333E+03  0.47000000000E+01 0. -1.
        -11    1    4    4    0    0  0.22280060759E+02  0.29107882526E+02  0.90959624194E+01  0.37767796664E+02  0.00000000000E+00 0.  1.
         12    1    4    4    0    0 -0.66306624362E+02  0.65024953760E+02 -0.43860242056E+01  0.92973384654E+02  0.00000000000E+00 0. -1.
         -5    1    5    5    0  502 -0.14620405579E+02 -0.55432728351E+02  0.64906526328E+03  0.65160904662E+03  0.47000000000E+01 0.  1.
         11    1    6    6    0    0  0.18447619244E+02 -0.13591911525E+02  0.34864723419E+03  0.34939941131E+03  0.00000000000E+00 0. -1.
        -12    1    6    6    0    0  0.10535369296E+03 -0.65249124453E+02  0.46687601077E+03  0.48304250154E+03  0.00000000000E+00 0.  1.
</event>
<event>
12    1  0.8251070E-002  0.1785978E+03  0.7818608E-02  0.1171551E+00
         21   -1    0    0  501  502  0.00000000000E+00  0.00000000000E+00  0.46683456479E+03  0.46683456479E+03  0.00000000000E+00 0.  1.
         21   -1    0    0  502  503 -0.00000000000E+00 -0.00000000000E+00 -0.19275970055E+03  0.19275970055E+03  0.00000000000E+00 0.  1.
         -6    2    1    2    0  503 -0.40805108170E+02 -0.10248822250E+02 -0.13043169782E+03  0.22115518056E+03  0.17357157279E+03 0.  0.
        -24    2    3    3    0    0 -0.35776116887E+02  0.45991801694E+02 -0.14099200674E+03  0.16351917914E+03  0.58860849632E+02 0.  0.
          6    2    1    2  501    0  0.40805108170E+02  0.10248822250E+02  0.40450656206E+03  0.43843908479E+03  0.16380835482E+03 0.  0.
         24    2    5    5    0    0  0.51372826593E+02  0.64026472833E+02  0.25235716562E+03  0.27665144245E+03  0.78187755023E+02 0.  0.
          5    1    5    5  501    0 -0.10567718423E+02 -0.53777650584E+02  0.15214939644E+03  0.16178764234E+03  0.47000000000E+01 0. -1.
        -13    1    6    6    0    0  0.33673511838E+02  0.22002172338E+02  0.21192398719E+03  0.21570762002E+03  0.00000000000E+00 0.  1.
         14    1    6    6    0    0  0.17699314755E+02  0.42024300496E+02  0.40433178429E+02  0.60943822433E+02  0.00000000000E+00 0. -1.
         -5    1    3    3    0  503 -0.50289912839E+01 -0.56240623943E+02  0.10560308923E+02  0.57636001418E+02  0.47000000000E+01 0.  1.
         13    1    4    4    0    0  0.89438972050E+01  0.33316345047E+02 -0.43536292206E+02  0.55546204943E+02  0.00000000000E+00 0. -1.
        -14    1    4    4    0    0 -0.44720014092E+02  0.12675456647E+02 -0.97455714533E+02  0.10797297420E+03  0.00000000000E+00 0.  1.
</event>
<event>
12    1  0.8251070E-002  0.3834621E+03  0.7818608E-02  0.1049751E+00
         21   -1    0    0  503  502  0.00000000000E+00  0.00000000000E+00  0.13947336826E+03  0.13947336826E+03  0.00000000000E+00 0.  1.
         21   -1    0    0  501  503 -0.00000000000E+00 -0.00000000000E+00 -0.11847398176E+04  0.11847398176E+04  0.00000000000E+00 0. -1.
          6    2    1    2  501    0 -0.33981090246E+03  0.38563261839E+02 -0.74401482278E+03  0.83657015427E+03  0.17126877096E+03 0.  0.
         24    2    3    3    0    0 -0.32920618030E+03  0.19816434214E+02 -0.59362331519E+03  0.68457147259E+03  0.86487343196E+02 0.  0.
         -6    2    1    2    0  502  0.33981090246E+03 -0.38563261839E+02 -0.30125162658E+03  0.48764303161E+03  0.17344915441E+03 0.  0.
        -24    2    5    5    0    0  0.30374271714E+03 -0.45770604716E+02 -0.18190175527E+03  0.36266566739E+03  0.63902670261E+02 0.  0.
          5    1    3    3  501    0 -0.10604722162E+02  0.18746827625E+02 -0.15039150759E+03  0.15199868169E+03  0.47000000000E+01 0. -1.
        -11    1    4    4    0    0 -0.15775292641E+03  0.31638690860E+01 -0.19879999612E+03  0.25380589890E+03  0.00000000000E+00 0.  1.
         12    1    4    4    0    0 -0.17145325388E+03  0.16652565128E+02 -0.39482331907E+03  0.43076557368E+03  0.00000000000E+00 0. -1.
         -5    1    5    5    0  502  0.36068185323E+02  0.72073428762E+01 -0.11934987131E+03  0.12497736422E+03  0.47000000000E+01 0.  1.
         13    1    6    6    0    0  0.27754649016E+02  0.67637906560E+01 -0.36426028557E+02  0.46291737519E+02  0.00000000000E+00 0. -1.
        -14    1    6    6    0    0  0.27598806812E+03 -0.52534395372E+02 -0.14547572671E+03  0.31637392987E+03  0.00000000000E+00 0.  1.
</event>
<event>
12    1  0.8251070E-002  0.2161688E+03  0.7818608E-02  0.1136789E+00
         21   -1    0    0  503  502  0.00000000000E+00  0.00000000000E+00  0.31872339132E+03  0.31872339132E+03  0.00000000000E+00 0. -1.
         21   -1    0    0  501  503 -0.00000000000E+00 -0.00000000000E+00 -0.14671482193E+03  0.14671482193E+03  0.00000000000E+00 0. -1.
          6    2    1    2  501    0 -0.55118364091E+00  0.13062571164E+03  0.93693979609E+02  0.23552060414E+03  0.17212789667E+03 0.  0.
         24    2    3    3    0    0  0.35626313317E+02  0.35819935430E+02  0.95187292689E+02  0.13392697012E+03  0.79520504660E+02 0.  0.
         -6    2    1    2    0  502  0.55118364091E+00 -0.13062571164E+03  0.78314589785E+02  0.22991760912E+03  0.17223690564E+03 0.  0.
        -24    2    5    5    0    0 -0.15363013081E+01 -0.80846015636E+02  0.11982354962E+03  0.16489869284E+03  0.79343918429E+02 0.  0.
          5    1    3    3  501    0 -0.36177496958E+02  0.94805776207E+02 -0.14933130795E+01  0.10159363402E+03  0.47000000000E+01 0. -1.
        -13    1    4    4    0    0 -0.16862541862E+02 -0.41764533494E+01  0.52582551516E+02  0.55377908994E+02  0.00000000000E+00 0.  1.
         14    1    4    4    0    0  0.52488855179E+02  0.39996388780E+02  0.42604741172E+02  0.78549061126E+02  0.00000000000E+00 0. -1.
         -5    1    5    5    0  502  0.20874849490E+01 -0.49779696002E+02 -0.41508959832E+02  0.65018916276E+02  0.47000000000E+01 0.  1.
         11    1    6    6    0    0 -0.89790198765E+01 -0.39010085327E+01 -0.98779004163E+01  0.13907321171E+02  0.00000000000E+00 0. -1.
        -12    1    6    6    0    0  0.74427185684E+01 -0.76945007103E+02  0.12970145003E+03  0.15099137167E+03  0.00000000000E+00 0.  1.
</event>
<event>
12    1  0.8251070E-002  0.2048987E+03  0.7818608E-02  0.1146111E+00
         21   -1    0    0  501  502  0.00000000000E+00  0.00000000000E+00  0.10710363359E+03  0.10710363359E+03  0.00000000000E+00 0. -1.
         21   -1    0    0  502  503 -0.00000000000E+00 -0.00000000000E+00 -0.66632964564E+03  0.66632964564E+03  0.00000000000E+00 0.  1.
         -6    2    1    2    0  503 -0.64406077364E+02  0.92070026641E+02 -0.53044671022E+03  0.56864503359E+03  0.17134301630E+03 0.  0.
        -24    2    3    3    0    0  0.68360351900E+00 -0.12557208542E+02 -0.23485833846E+03  0.24836687258E+03  0.79809231615E+02 0.  0.
          6    2    1    2  501    0  0.64406077364E+02 -0.92070026641E+02 -0.28779301830E+02  0.20478824564E+03  0.16877483442E+03 0.  0.
         24    2    5    5    0    0  0.83443650412E+02 -0.91426357760E+02 -0.67548564223E+02  0.16133724791E+03  0.78391819395E+02 0.  0.
          5    1    5    5  501    0 -0.19037573048E+02 -0.64366888089E+00  0.38769262393E+02  0.43450997730E+02  0.47000000000E+01 0. -1.
        -11    1    6    6    0    0  0.13258792754E+02 -0.27421207026E+02 -0.58456705652E+02  0.65915890464E+02  0.00000000000E+00 0.  1.
         12    1    6    6    0    0  0.70184857658E+02 -0.64005150734E+02 -0.90918585716E+01  0.95421357448E+02  0.00000000000E+00 0. -1.
         -5    1    3    3    0  503 -0.65089680883E+02  0.10462723518E+03 -0.29558837176E+03  0.32027816100E+03  0.47000000000E+01 0.  1.
         13    1    4    4    0    0  0.50814654011E+01  0.33504236020E+02 -0.84208858077E+02  0.90771619466E+02  0.00000000000E+00 0. -1.
        -14    1    4    4    0    0 -0.43978618821E+01 -0.46061444562E+02 -0.15064948038E+03  0.15759525311E+03  0.00000000000E+00 0.  1.
</event>
<event>
12    1  0.8251070E-002  0.2056741E+03  0.7818608E-02  0.1145114E+00
         21   -1    0    0  503  502  0.00000000000E+00  0.00000000000E+00  0.14988270279E+03  0.14988270279E+03  0.00000000000E+00 0.  1.
         21   -1    0    0  501  503 -0.00000000000E+00 -0.00000000000E+00 -0.60095201565E+03  0.60095201565E+03  0.00000000000E+00 0.  1.
          6    2    1    2  501    0 -0.10330776723E+03 -0.44140951628E+02 -0.49924857331E+03  0.53995459434E+03  0.17228147787E+03 0.  0.
         24    2    3    3    0    0 -0.12670777577E+03 -0.62252227856E+02 -0.47354137044E+03  0.50047638509E+03  0.79403918047E+02 0.  0.
         -6    2    1    2    0  502  0.10330776723E+03  0.44140951628E+02  0.48179260446E+02  0.21088012410E+03  0.17183790974E+03 0.  0.
        -24    2    5    5    0    0  0.10381704490E+03 -0.99235634281E+01  0.69383336694E+02  0.15261406193E+03  0.87181125039E+02 0.  0.
          5    1    3    3  501    0  0.23400008537E+02  0.18111276229E+02 -0.25707202868E+02  0.39478209248E+02  0.47000000000E+01 0. -1.
        -13    1    4    4    0    0 -0.39039593829E+02 -0.21003408616E+02 -0.53865838409E+02  0.69762178918E+02  0.00000000000E+00 0.  1.
         14    1    4    4    0    0 -0.87668181942E+02 -0.41248819240E+02 -0.41967553203E+03  0.43071420618E+03  0.00000000000E+00 0. -1.
         -5    1    5    5    0  502 -0.50927767065E+00  0.54064515056E+02 -0.21204076249E+02  0.58266062176E+02  0.47000000000E+01 0.  1.
         11    1    6    6    0    0 -0.74236587092E+01 -0.17865832880E+02  0.27200545632E+02  0.33379160801E+02  0.00000000000E+00 0. -1.
        -12    1    6    6    0    0  0.11124070361E+03  0.79422694519E+01  0.42182791063E+02  0.11923490112E+03  0.00000000000E+00 0.  1.
</event>
<event>
12    1  0.8251070E-002  0.1897742E+03  0.7818608E-02  0.1158711E+00
         21   -1    0    0  501  502  0.00000000000E+00  0.00000000000E+00  0.19674705750E+03  0.19674705750E+03  0.00000000000E+00 0.  1.
         21   -1    0    0  502  503 -0.00000000000E+00 -0.00000000000E+00 -0.55027726943E+03  0.55027726943E+03  0.00000000000E+00 0. -1.
         -6    2    1    2    0  503 -0.40118327436E+02  0.77506952428E+02  0.12841254814E+03  0.22913756824E+03  0.16851538443E+03 0.  0.
        -24    2    3    3    0    0  0.19556198244E+02  0.57351785682E+01  0.94355918466E+02  0.12966807260E+03  0.86576166118E+02 0.  0.
          6    2    1    2  501    0  0.40118327436E+02 -0.77506952428E+02 -0.48194276006E+03  0.51788675869E+03  0.16828862996E+03 0.  0.
         24    2    5    5    0    0 -0.76676716816E+01 -0.84144871695E+02 -0.18974335589E+03  0.22169400813E+03  0.77501867810E+02 0.  0.
          5    1    5    5  501    0  0.47785999118E+02  0.66379192673E+01 -0.29219940417E+03  0.29619275056E+03  0.47000000000E+01 0. -1.
        -13    1    6    6    0    0  0.29760823157E+02 -0.66503040538E+02 -0.12992206975E+03  0.14895672259E+03  0.00000000000E+00 0.  1.
         14    1    6    6    0    0 -0.37428494839E+02 -0.17641831157E+02 -0.59821286140E+02  0.72737285541E+02  0.00000000000E+00 0. -1.
         -5    1    3    3    0  503 -0.59674525680E+02  0.71771773860E+02  0.34056629672E+02  0.99469495639E+02  0.47000000000E+01 0.  1.
         13    1    4    4    0    0 -0.71531113716E+01 -0.37064424257E+02  0.48780942069E+02  0.61680781909E+02  0.00000000000E+00 0. -1.
        -14    1    4    4    0    0  0.26709309616E+02  0.42799602825E+02  0.45574976398E+02  0.67987290693E+02  0.00000000000E+00 0.  1.
</event>
<event>
12    1  0.8251070E-002  0.2300361E+03  0.7818608E-02  0.1127188E+00
         21   -1    0    0  503  502  0.00000000000E+00  0.00000000000E+00  0.28802120507E+03  0.28802120507E+03  0.00000000000E+00 0.  1.
         21   -1    0    0  501  503 -0.00000000000E+00 -0.00000000000E+00 -0.18194828232E+03  0.18194828232E+03  0.00000000000E+00 0. -1.
          6    2    1    2  501    0 -0.49119009984E+02  0.14098171201E+03  0.68963438688E+02  0.24015111054E+03  0.17500879907E+03 0.  0.
         24    2    3    3    0    0 -0.31768934140E+02  0.82321521637E+02 -0.31129929873E+02  0.12275087418E+03  0.79451912985E+02 0.  0.
         -6    2    1    2    0  502  0.49119009984E+02 -0.14098171201E+03  0.37109484062E+02  0.22981837686E+03  0.17073620667E+03 0.  0.
        -24    2    5    5    0    0 -0.18118770904E+02  0.27202108789E+01  0.98013246012E+01  0.68762525069E+02  0.65547917462E+02 0.  0.
          5    1    3    3  501    0 -0.17350075844E+02  0.58660190378E+02  0.10009336856E+03  0.11740023636E+03  0.47000000000E+01 0. -1.
        -11    1    4    4    0    0  0.95643621632E+01  0.74563313673E+02 -0.29216894869E+02  0.80652288965E+02  0.00000000000E+00 0.  1.
         12    1    4    4    0    0 -0.41333296304E+02  0.77582079634E+01 -0.19130350039E+01  0.42098585214E+02  0.00000000000E+00 0. -1.
         -5    1    5    5    0  502  0.67237780888E+02 -0.14370192289E+03  0.27308159461E+02  0.16105585179E+03  0.47000000000E+01 0.  1.
         11    1    6    6    0    0 -0.90283604214E+01 -0.31424018726E+02  0.57564504337E+01  0.33198147033E+02  0.00000000000E+00 0. -1.
        -12    1    6    6    0    0 -0.90904104828E+01  0.34144229605E+02  0.40448741675E+01  0.35564378036E+02  0.00000000000E+00 0.  1.
</event>
<event>
12    1  0.8251070E-002  0.2204498E+03  0.7818608E-02  0.1133569E+00
         21   -1    0    0  501  502  0.00000000000E+00  0.00000000000E+00  0.24419666709E+03  0.24419666709E+03  0.00000000000E+00 0. -1.
         21   -1    0    0  502  503 -0.00000000000E+00 -0.00000000000E+00 -0.25926136511E+03  0.25926136511E+03  0.00000000000E+00 0.  1.
         -6    2    1    2    0  503 -0.10812184676E+03  0.86839659979E+02 -0.12898093311E+03  0.25531490171E+03  0.17122545850E+03 0.  0.
        -24    2    3    3    0    0 -0.63774199432E+02  0.42059157635E+02  0.21155774490E+01  0.10978005265E+03  0.78810297783E+02 0.  0.
          6    2    1    2  501    0  0.10812184676E+03 -0.86839659979E+02  0.11391623508E+03  0.24814313049E+03  0.17136698720E+03 0.  0.
         24    2    5    5    0    0  0.68004297195E+02 -0.12135625186E+03  0.11000359627E+03  0.19486826174E+03  0.80752237968E+02 0.  0.
          5    1    5    5  501    0  0.40117549567E+02  0.34516591883E+02  0.39126388122E+01  0.53274868756E+02  0.47000000000E+01 0. -1.
        -11    1    6    6    0    0 -0.18416670338E+02 -0.29109058108E+02  0.23559007909E+02  0.41731736891E+02  0.00000000000E+00 0.  1.
         12    1    6    6    0    0  0.86420967533E+02 -0.92247193754E+02  0.86444588360E+02  0.15313652484E+03  0.00000000000E+00 0. -1.
         -5    1    3    3    0  503 -0.44347647330E+02  0.44780502343E+02 -0.13109651055E+03  0.14553484907E+03  0.47000000000E+01 0.  1.
         11    1    4    4    0    0 -0.31860770956E+02 -0.19366470420E+02 -0.11932305157E+02  0.39147781659E+02  0.00000000000E+00 0. -1.
        -12    1    4    4    0    0 -0.31913428476E+02  0.61425628055E+02  0.14047882606E+02  0.70632270987E+02  0.00000000000E+00 0.  1.
</event>
<event>
12    1  0.8251070E-002  0.4541752E+03  0.7818608E-02  0.1026542E+00
         21   -1    0    0  501  502  0.00000000000E+00  0.00000000000E+00  0.31701789252E+03  0.31701789252E+03  0.00000000000E+00 0.  1.
         21   -1    0    0  502  503 -0.00000000000E+00 -0.00000000000E+00 -0.90128128184E+03  0.90128128184E+03  0.00000000000E+00 0. -1.
         -6    2    1    2    0  503 -0.16444186644E+03  0.38660463775E+03 -0.61424873963E+03  0.76392189650E+03  0.17254239029E+03 0.  0.
        -24    2    3    3    0    0 -0.16615346712E+03  0.39928226586E+03 -0.60344837348E+03  0.74653253940E+03  0.78278927350E+02 0.  0.
          6    2    1    2  501    0  0.16444186644E+03 -0.38660463775E+03  0.29985350314E+02  0.45437727786E+03  0.17045619974E+03 0.  0.
         24    2    5    5    0    0  0.17997780869E+03 -0.37660485862E+03  0.77160398217E+01  0.42506220880E+03  0.79969449923E+02 0.  0.
          5    1    5    5  501    0 -0.15535942244E+02 -0.99997791273E+01  0.22269310493E+02  0.29315069057E+02  0.47000000000E+01 0. -1.
        -13    1    6    6    0    0  0.14821572836E+03 -0.34923383767E+03  0.23858924516E+02  0.38013342892E+03  0.00000000000E+00 0.  1.
         14    1    6    6    0    0  0.31762080330E+02 -0.27371020953E+02 -0.16142884695E+02  0.44928779876E+02  0.00000000000E+00 0. -1.
         -5    1    3    3    0  503  0.17116006712E+01 -0.12677628110E+02 -0.10800366154E+02  0.17389357102E+02  0.47000000000E+01 0.  1.
         11    1    4    4    0    0 -0.72642369687E+02  0.14055591133E+03 -0.28271727513E+03  0.32397829517E+03  0.00000000000E+00 0. -1.
        -12    1    4    4    0    0 -0.93511097428E+02  0.25872635453E+03 -0.32073109834E+03  0.42255424423E+03  0.00000000000E+00 0.  1.
</event>
<event>
12    1  0.8251070E-002  0.1987568E+03  0.7818608E-02  0.1154089E+00
         21   -1    0    0  503  502  0.00000000000E+00  0.00000000000E+00  0.52275467356E+02  0.52275467356E+02  0.00000000000E+00 0.  1.
         21   -1    0    0  501  503 -0.00000000000E+00 -0.00000000000E+00 -0.72044890830E+03  0.72044890830E+03  0.00000000000E+00 0.  1.
          6    2    1    2  501    0 -0.27624250946E+01  0.84588190315E+02 -0.38617968207E+03  0.42772475432E+03  0.16325111234E+03 0.  0.
         24    2    3    3    0    0  0.45334944061E+02  0.35746080921E+02 -0.30725051649E+03  0.32307862802E+03  0.81510002742E+02 0.  0.
         -6    2    1    2    0  502  0.27624250946E+01 -0.84588190315E+02 -0.28199375888E+03  0.34499962134E+03  0.17983733135E+03 0.  0.
        -24    2    5    5    0    0 -0.47918814280E+02 -0.59165873342E+02 -0.26228449916E+03  0.28478810132E+03  0.80711156738E+02 0.  0.
          5    1    3    3  501    0 -0.48097369155E+02  0.48842109394E+02 -0.78929165578E+02  0.10464612630E+03  0.47000000000E+01 0. -1.
        -11    1    4    4    0    0  0.16965300449E+02  0.58708093889E+02 -0.15738295277E+03  0.16883084887E+03  0.00000000000E+00 0.  1.
         12    1    4    4    0    0  0.28369643612E+02 -0.22962012968E+02 -0.14986756371E+03  0.15424777915E+03  0.00000000000E+00 0. -1.
         -5    1    5    5    0  502  0.50681239375E+02 -0.25422316973E+02 -0.19709259717E+02  0.60211520023E+02  0.47000000000E+01 0.  1.
         11    1    6    6    0    0 -0.12783164848E+01 -0.26572605228E+02 -0.19439463078E+03  0.19620654912E+03  0.00000000000E+00 0. -1.
        -12    1    6    6    0    0 -0.46640497796E+02 -0.32593268114E+02 -0.67889868380E+02  0.88581552197E+02  0.00000000000E+00 0.  1.
</event>
<event>
12    1  0.8251070E-002  0.3365607E+03  0.7818608E-02  0.1068471E+00
         21   -1    0    0  501  502  0.00000000000E+00  0.00000000000E+00  0.66516417078E+03  0.66516417078E+03  0.00000000000E+00 0.  1.
         21   -1    0    0  502  503 -0.00000000000E+00 -0.00000000000E+00 -0.19103026427E+03  0.19103026427E+03  0.00000000000E+00 0. -1.
         -6    2    1    2    0  503  0.14951826080E+03  0.24594869235E+03  0.38184679783E+03  0.50899911641E+03  0.17443237635E+03 0.  0.
        -24    2    3    3    0    0  0.54362944707E+02  0.72259320011E+02  0.69384399129E+02  0.13902969492E+03  0.79613580126E+02 0.  0.
          6    2    1    2  501    0 -0.14951826080E+03 -0.24594869235E+03  0.92287108689E+02  0.34719531863E+03  0.17082508384E+03 0.  0.
         24    2    5    5    0    0 -0.13817357981E+03 -0.14114163005E+03  0.11070033104E+03  0.24007688487E+03  0.79808830739E+02 0.  0.
          5    1    5    5  501    0 -0.11344680986E+02 -0.10480706230E+03 -0.18413222351E+02  0.10711843377E+03  0.47000000000E+01 0. -1.
        -13    1    6    6    0    0 -0.63694024443E+02 -0.85952035904E+02  0.10056339010E+03  0.14682532702E+03  0.00000000000E+00 0.  1.
         14    1    6    6    0    0 -0.74479555367E+02 -0.55189594145E+02  0.10136940943E+02  0.93251557849E+02  0.00000000000E+00 0. -1.
         -5    1    3    3    0  503  0.95155316089E+02  0.17368937234E+03  0.31246239870E+03  0.36996942150E+03  0.47000000000E+01 0.  1.
         11    1    4    4    0    0 -0.18324279572E+01 -0.15339259163E+02  0.34542623371E+01  0.15829800763E+02  0.00000000000E+00 0. -1.
        -12    1    4    4    0    0  0.56195372664E+02  0.87598579174E+02  0.65930136792E+02  0.12319989415E+03  0.00000000000E+00 0.  1.
</event>
<event>
12    1  0.8251070E-002  0.1837046E+03  0.7818608E-02  0.1164510E+00
         21   -1    0    0  503  502  0.00000000000E+00  0.00000000000E+00  0.52836190387E+02  0.52836190387E+02  0.00000000000E+00 0. -1.
         21   -1    0    0  501  503 -0.00000000000E+00 -0.00000000000E+00 -0.71030141624E+03  0.71030141624E+03  0.00000000000E+00 0.  1.
          6    2    1    2  501    0  0.34854013320E+02  0.51857689317E+02 -0.45370511997E+03  0.48948517222E+03  0.17275235383E+03 0.  0.
         24    2    3    3    0    0  0.95268073595E+01  0.50296650994E+01 -0.10025731344E+03  0.13201940721E+03  0.85214654800E+02 0.  0.
         -6    2    1    2    0  502 -0.34854013320E+02 -0.51857689317E+02 -0.20376010588E+03  0.27365243440E+03  0.17164921182E+03 0.  0.
        -24    2    5    5    0    0 -0.63290894473E+02 -0.34988023606E+02 -0.53974188791E+02  0.12018858593E+03  0.79386296122E+02 0.  0.
          5    1    3    3  501    0  0.25327205961E+02  0.46828024218E+02 -0.35344780653E+03  0.35746576501E+03  0.47000000000E+01 0. -1.
        -11    1    4    4    0    0 -0.45791911222E+01  0.13475119166E+02 -0.11130515079E+03  0.11221133820E+03  0.00000000000E+00 0.  1.
         12    1    4    4    0    0  0.14105998482E+02 -0.84454540665E+01  0.11047837356E+02  0.19808069007E+02  0.00000000000E+00 0. -1.
         -5    1    5    5    0  502  0.28436881153E+02 -0.16869665711E+02 -0.14978591709E+03  0.15346384848E+03  0.47000000000E+01 0.  1.
         13    1    6    6    0    0 -0.41925422997E+02  0.20334701356E+02 -0.13945235365E+02  0.48638572781E+02  0.00000000000E+00 0. -1.
        -14    1    6    6    0    0 -0.21365471476E+02 -0.55322724962E+02 -0.40028953426E+02  0.71550013145E+02  0.00000000000E+00 0.  1.
</event>
<event>
12    1  0.8251070E-002  0.1846759E+03  0.7818608E-02  0.1163611E+00
         21   -1    0    0  503  502  0.00000000000E+00  0.00000000000E+00  0.29623389443E+03  0.29623389443E+03  0.00000000000E+00 0.  1.
         21   -1    0    0  501  503 -0.00000000000E+00 -0.00000000000E+00 -0.11824723884E+03  0.11824723884E+03  0.00000000000E+00 0.  1.
          6    2    1    2  501    0 -0.56579197508E+02  0.19685736992E+02  0.52090268540E+02  0.19188170192E+03  0.17468960366E+03 0.  0.
         24    2    3    3    0    0 -0.36963253856E+02 -0.55496988555E+02  0.17088966712E+02  0.10653295503E+03  0.81308301241E+02 0.  0.
         -6    2    1    2    0  502  0.56579197508E+02 -0.19685736992E+02  0.12589638705E+03  0.22259943134E+03  0.17352772899E+03 0.  0.
        -24    2    5    5    0    0  0.89345117184E+02 -0.41726795187E+02  0.49166192200E+02  0.13617590132E+03  0.80018036996E+02 0.  0.
          5    1    3    3  501    0 -0.19615943652E+02  0.75182725547E+02  0.35001301828E+02  0.85348746890E+02  0.47000000000E+01 0. -1.
        -11    1    4    4    0    0  0.25354592771E+01  0.13496650215E+02 -0.15414927899E+02  0.20644808618E+02  0.00000000000E+00 0.  1.
         12    1    4    4    0    0 -0.39498713133E+02 -0.68993638770E+02  0.32503894611E+02  0.85888146416E+02  0.00000000000E+00 0. -1.
         -5    1    5    5    0  502 -0.32765919676E+02  0.22041058195E+02  0.76730194850E+02  0.86423530015E+02  0.47000000000E+01 0.  1.
         11    1    6    6    0    0  0.23775758086E+02 -0.29021685340E+01 -0.21547899374E+02  0.32218336739E+02  0.00000000000E+00 0. -1.
        -12    1    6    6    0    0  0.65569359098E+02 -0.38824626653E+02  0.70714091575E+02  0.10395756459E+03  0.00000000000E+00 0.  1.
</event>
<event>
12    1  0.8251070E-002  0.1996445E+03  0.7818608E-02  0.1150291E+00
         21   -1    0    0  501  502  0.00000000000E+00  0.00000000000E+00  0.17169410221E+04  0.17169410221E+04  0.00000000000E+00 0.  1.
         21   -1    0    0  502  503 -0.00000000000E+00 -0.00000000000E+00 -0.35768673101E+02  0.35768673101E+02  0.00000000000E+00 0.  1.
         -6    2    1    2    0  503  0.38028157921E+02  0.91402758243E+02  0.31695254084E+03  0.37395895796E+03  0.17200518622E+03 0.  0.
        -24    2    3    3    0    0  0.50963437821E+02  0.85702587879E+02  0.11699568487E+03  0.17344799154E+03  0.80336852858E+02 0.  0.
          6    2    1    2  501    0 -0.38028157921E+02 -0.91402758243E+02  0.13642198081E+04  0.13787507372E+04  0.17337042840E+03 0.  0.
         24    2    5    5    0    0 -0.62800042862E+02 -0.89986206988E+02  0.65466454363E+03  0.66874621871E+03  0.81206388447E+02 0.  0.
          5    1    5    5  501    0  0.24771884941E+02 -0.14165512545E+01  0.70955526449E+03  0.71000451848E+03  0.47000000000E+01 0. -1.
        -13    1    6    6    0    0 -0.12013333877E+02 -0.15010684935E+02  0.35923408004E+03  0.35974819682E+03  0.00000000000E+00 0.  1.
         14    1    6    6    0    0 -0.50786708985E+02 -0.74975522053E+02  0.29543046359E+03  0.30899802189E+03  0.00000000000E+00 0. -1.
         -5    1    3    3    0  503 -0.12935279899E+02  0.57001703642E+01  0.19995685596E+03  0.20051096642E+03  0.47000000000E+01 0.  1.
         13    1    4    4    0    0  0.25707824517E+02  0.36360517353E+01  0.71936222026E+02  0.76478318189E+02  0.00000000000E+00 0. -1.
        -14    1    4    4    0    0  0.25255613303E+02  0.82066536143E+02  0.45059462846E+02  0.96969673351E+02  0.00000000000E+00 0.  1.
</event>
<event>
12    1  0.8251070E-002  0.1735239E+03  0.7818608E-02  0.1174678E+00
         21   -1    0    0  501  502  0.00000000000E+00  0.00000000000E+00  0.63011163862E+02  0.63011163862E+02  0.00000000000E+00 0.  1.
         21   -1    0    0  502  503 -0.00000000000E+00 -0.00000000000E+00 -0.55422191706E+03  0.55422191706E+03  0.00000000000E+00 0.  1.
         -6    2    1    2    0  503 -0.15083009967E+02 -0.46754254826E+01 -0.36487107662E+03  0.40403151198E+03  0.17280394476E+03 0.  0.
        -24    2    3    3    0    0 -0.37606242625E+01 -0.31683458293E+02 -0.11926400443E+03  0.15664001219E+03  0.96406466816E+02 0.  0.
          6    2    1    2  501    0  0.15083009967E+02  0.46754254826E+01 -0.12633967658E+03  0.21320156895E+03  0.17100829901E+03 0.  0.
         24    2    5    5    0    0 -0.28847993091E+02 -0.23842935524E+02 -0.13831085611E+02  0.89010172360E+02  0.79566447543E+02 0.  0.
          5    1    5    5  501    0  0.43931003059E+02  0.28518361006E+02 -0.11250859097E+03  0.12419139659E+03  0.47000000000E+01 0. -1.
        -13    1    6    6    0    0  0.18054857822E+02 -0.28915022872E+02  0.10841802278E+02  0.35771512623E+02  0.00000000000E+00 0.  1.
         14    1    6    6    0    0 -0.46902850913E+02  0.50720873487E+01 -0.24672887890E+02  0.53238659738E+02  0.00000000000E+00 0. -1.
         -5    1    3    3    0  503 -0.11322385705E+02  0.27008032811E+02 -0.24560707219E+03  0.24739149978E+03  0.47000000000E+01 0.  1.
         11    1    4    4    0    0 -0.11210474530E+02 -0.44430367863E+02 -0.13035474645E+03  0.13817413742E+03  0.00000000000E+00 0. -1.
        -12    1    4    4    0    0  0.74498502676E+01  0.12746909570E+02  0.11090742027E+02  0.18465874778E+02  0.00000000000E+00 0.  1.
</event>
<event>
12    1  0.8251070E-002  0.2239229E+03  0.7818608E-02  0.1131234E+00
         21   -1    0    0  503  502  0.00000000000E+00  0.00000000000E+00  0.28189582069E+03  0.28189582069E+03  0.00000000000E+00 0.  1.
         21   -1    0    0  501  503 -0.00000000000E+00 -0.00000000000E+00 -0.23673292956E+03  0.23673292956E+03  0.00000000000E+00 0.  1.
          6    2    1    2  501    0  0.11577315385E+03  0.79209346526E+02 -0.10791964263E+03  0.24738029253E+03  0.17283754261E+03 0.  0.
         24    2    3    3    0    0  0.91378615485E+02  0.27022705094E+02 -0.13536123793E+03  0.18339849669E+03  0.78943434797E+02 0.  0.
         -6    2    1    2    0  502 -0.11577315385E+03 -0.79209346526E+02  0.15308253377E+03  0.27124845772E+03  0.17453916449E+03 0.  0.
        -24    2    5    5    0    0 -0.48328392428E+02 -0.11283786240E+03  0.95497846409E+02  0.17628657515E+03  0.83000609659E+02 0.  0.
          5    1    3    3  501    0  0.24394538362E+02  0.52186641432E+02  0.27441595295E+02  0.63981795834E+02  0.47000000000E+01 0. -1.
        -13    1    4    4    0    0  0.53395170181E+02  0.36585525867E+02 -0.12815392117E+03  0.14357218538E+03  0.00000000000E+00 0.  1.
         14    1    4    4    0    0  0.37983445304E+02 -0.95628207730E+01 -0.72073167540E+01  0.39826311317E+02  0.00000000000E+00 0. -1.
         -5    1    5    5    0  502 -0.67444761419E+02  0.33628515874E+02  0.57584687362E+02  0.94961882571E+02  0.47000000000E+01 0.  1.
         13    1    6    6    0    0 -0.22366165263E+02  0.40104877464E+01  0.36113375140E+02  0.42667378928E+02  0.00000000000E+00 0. -1.
        -14    1    6    6    0    0 -0.25962227165E+02 -0.11684835015E+03  0.59384471268E+02  0.13361919622E+03  0.00000000000E+00 0.  1.
</event>
<event>
12    1  0.8251070E-002  0.1737770E+03  0.7818608E-02  0.1174105E+00
         21   -1    0    0  503  502  0.00000000000E+00  0.00000000000E+00  0.78485036392E+03  0.78485036392E+03  0.00000000000E+00 0.  1.
         21   -1    0    0  501  503 -0.00000000000E+00 -0.00000000000E+00 -0.29696039542E+03  0.29696039542E+03  0.00000000000E+00 0.  1.
          6    2    1    2  501    0 -0.21221676940E+02  0.47553318124E+01 -0.26087187996E+03  0.31314780469E+03  0.17185586134E+03 0.  0.
         24    2    3    3    0    0 -0.36836258757E+00  0.41020039968E+02 -0.25503673060E+03  0.27064923125E+03  0.80774334094E+02 0.  0.
         -6    2    1    2    0  502  0.21221676940E+02 -0.47553318124E+01  0.74876184847E+03  0.76866295465E+03  0.17241072874E+03 0.  0.
        -24    2    5    5    0    0  0.60426932511E+00 -0.38835451889E+02  0.20974778238E+03  0.22815875900E+03  0.80955108731E+02 0.  0.
          5    1    3    3  501    0 -0.20853314352E+02 -0.36264708155E+02 -0.58351493624E+01  0.42498573448E+02  0.47000000000E+01 0. -1.
        -13    1    4    4    0    0 -0.39999631474E+02  0.22281110118E+02 -0.14996847785E+03  0.15680230462E+03  0.00000000000E+00 0.  1.
         14    1    4    4    0    0  0.39631268887E+02  0.18738929850E+02 -0.10506825275E+03  0.11384692662E+03  0.00000000000E+00 0. -1.
         -5    1    5    5    0  502  0.20617407614E+02  0.34080120077E+02  0.53901406609E+03  0.54050419565E+03  0.47000000000E+01 0.  1.
         13    1    6    6    0    0  0.18485016493E+02 -0.57752822923E+02  0.17140225363E+03  0.18181258740E+03  0.00000000000E+00 0. -1.
        -14    1    6    6    0    0 -0.17880747168E+02  0.18917371034E+02  0.38345528755E+02  0.46346171596E+02  0.00000000000E+00 0.  1.
</event>
<event>
12    1  0.8251070E-002  0.1789323E+03  0.7818608E-02  0.1169730E+00
         21   -1    0    0  501  502  0.00000000000E+00  0.00000000000E+00  0.10375418365E+03  0.10375418365E+03  0.00000000000E+00 0.  1.
         21   -1    0    0  502  503 -0.00000000000E+00 -0.00000000000E+00 -0.30624791822E+03  0.30624791822E+03  0.00000000000E+00 0.  1.
         -6    2    1    2    0  503 -0.29962598795E+02  0.14135127057E+02 -0.79265283053E+02  0.19570319161E+03  0.17583854801E+03 0.  0.
        -24    2    3    3    0    0 -0.31140851486E+02 -0.35541733994E+02 -0.99229270801E+02  0.14194605617E+03  0.89829099925E+02 0.  0.
          6    2    1    2  501    0  0.29962598795E+02 -0.14135127057E+02 -0.12322845152E+03  0.21429891026E+03  0.17216623516E+03 0.  0.
         24    2    5    5    0    0 -0.37041095399E+02 -0.47270476555E+02 -0.68867223645E+02  0.12175335651E+03  0.80465176489E+02 0.  0.
          5    1    5    5  501    0  0.67003694194E+02  0.33135349499E+02 -0.54361227878E+02  0.92545553747E+02  0.47000000000E+01 0. -1.
        -11    1    6    6    0    0 -0.49277469075E+02 -0.12741953597E+02 -0.91774671127E+01  0.51718973719E+02  0.00000000000E+00 0.  1.
         12    1    6    6    0    0  0.12236373676E+02 -0.34528522958E+02 -0.59689756533E+02  0.70034382794E+02  0.00000000000E+00 0. -1.
         -5    1    3    3    0  503  0.11782526915E+01  0.49676861050E+02  0.19963987748E+02  0.53757135433E+02  0.47000000000E+01 0.  1.
         11    1    4    4    0    0 -0.57088473152E+01 -0.62996796458E+02 -0.70850287675E+02  0.94978684795E+02  0.00000000000E+00 0. -1.
        -12    1    4    4    0    0 -0.25432004171E+02  0.27455062465E+02 -0.28378983126E+02  0.46967371380E+02  0.00000000000E+00 0.  1.
</event>
<event>
12    1  0.8251070E-002  0.1846530E+03  0.7818608E-02  0.1163466E+00
         21   -1    0    0  501  502  0.00000000000E+00  0.00000000000E+00  0.32047994703E+03  0.32047994703E+03  0.00000000000E+00 0.  1.
         21   -1    0    0  502  503 -0.00000000000E+00 -0.00000000000E+00 -0.11983596287E+03  0.11983596287E+03  0.00000000000E+00 0.  1.
         -6    2    1    2    0  503  0.79747297941E+01  0.66508448118E+02  0.25874694212E+02  0.18606992899E+03  0.17165531943E+03 0.  0.
        -24    2    3    3    0    0  0.41312882836E+02  0.65562014912E+02 -0.34244662227E+02  0.11715871653E+03  0.80921788668E+02 0.  0.
          6    2    1    2  501    0 -0.79747297941E+01 -0.66508448118E+02  0.17476928995E+03  0.25424598091E+03  0.17207482126E+03 0.  0.
         24    2    5    5    0    0  0.14453822471E+02 -0.27759762192E+02  0.12297583457E+02  0.85652843357E+02  0.78776021956E+02 0.  0.
          5    1    5    5  501    0 -0.22428552265E+02 -0.38748685926E+02  0.16247170650E+03  0.16859313755E+03  0.47000000000E+01 0. -1.
        -11    1    6    6    0    0 -0.89717873232E+01 -0.49234431277E+02 -0.34925957201E+01  0.50166925516E+02  0.00000000000E+00 0.  1.
         12    1    6    6    0    0  0.23425609794E+02  0.21474669084E+02  0.15790179178E+02  0.35485917840E+02  0.00000000000E+00 0. -1.
         -5    1    3    3    0  503 -0.33338153042E+02  0.94643320556E+00  0.60119356440E+02  0.68911212461E+02  0.47000000000E+01 0.  1.
         11    1    4    4    0    0 -0.11474299306E+02 -0.37276670444E+01  0.13271018059E+02  0.17935299453E+02  0.00000000000E+00 0. -1.
        -12    1    4    4    0    0  0.52787182142E+02  0.69289681957E+02 -0.47515680286E+02  0.99223417081E+02  0.00000000000E+00 0.  1.
</event>
<event>
12    1  0.8251070E-002  0.1833552E+03  0.7818608E-02  0.1165024E+00
         21   -1    0    0  503  502  0.00000000000E+00  0.00000000000E+00  0.29577024017E+03  0.29577024017E+03  0.00000000000E+00 0.  1.
         21   -1    0    0  501  503 -0.00000000000E+00 -0.00000000000E+00 -0.13818911662E+03  0.13818911662E+03  0.00000000000E+00 0.  1.
          6    2    1    2  501    0  0.65942549660E+00 -0.60148136533E+02 -0.14355922062E+02  0.18391638500E+03  0.17320771058E+03 0.  0.
         24    2    3    3    0    0 -0.89942714081E+01 -0.13338835523E+02 -0.72145359631E+02  0.10877642480E+03  0.79803109116E+02 0.  0.
         -6    2    1    2    0  502 -0.65942549660E+00  0.60148136533E+02  0.17193704561E+03  0.25004297178E+03  0.17129187639E+03 0.  0.
        -24    2    5    5    0    0 -0.24453973439E+02 -0.28751446955E+02  0.99366712433E+02  0.13274906865E+03  0.79523136055E+02 0.  0.
          5    1    3    3  501    0  0.96536969047E+01 -0.46809301010E+02  0.57789437569E+02  0.75139960204E+02  0.47000000000E+01 0. -1.
        -11    1    4    4    0    0 -0.40003517468E+02 -0.20403029323E+02 -0.23570594519E+02  0.50716249284E+02  0.00000000000E+00 0.  1.
         12    1    4    4    0    0  0.31009246060E+02  0.70641938004E+01 -0.48574765112E+02  0.58060175516E+02  0.00000000000E+00 0. -1.
         -5    1    5    5    0  502  0.23794547942E+02  0.88899583488E+02  0.72570333174E+02  0.11729390314E+03  0.47000000000E+01 0.  1.
         11    1    6    6    0    0  0.57833928226E+00 -0.32539828063E+02  0.25138633685E+01  0.32641911643E+02  0.00000000000E+00 0. -1.
        -12    1    6    6    0    0 -0.25032312721E+02  0.37883811076E+01  0.96852849065E+02  0.10010715700E+03  0.00000000000E+00 0.  1.
</event>
<event>
12    1  0.8251070E-002  0.1887303E+03  0.7818608E-02  0.1160264E+00
         21   -1    0    0  503  502  0.00000000000E+00  0.00000000000E+00  0.75812548697E+03  0.75812548697E+03  0.00000000000E+00 0.  1.
         21   -1    0    0  501  503 -0.00000000000E+00 -0.00000000000E+00 -0.46353262006E+02  0.46353262006E+02  0.00000000000E+00 0. -1.
          6    2    1    2  501    0 -0.33520318592E+02 -0.60925304442E+02  0.33693384935E+03  0.38480872002E+03  0.17238859500E+03 0.  0.
         24    2    3    3    0    0 -0.77648657431E+02 -0.81338649386E+02  0.25367937153E+03  0.28828197234E+03  0.78153580548E+02 0.  0.
         -6    2    1    2    0  502  0.33520318592E+02  0.60925304442E+02  0.37483837561E+03  0.41967002895E+03  0.17545261722E+03 0.  0.
        -24    2    5    5    0    0 -0.15667284944E+02  0.98198830465E+02  0.23547744957E+03  0.26718300068E+03  0.77773083229E+02 0.  0.
          5    1    3    3  501    0  0.44128338839E+02  0.20413344945E+02  0.83254477825E+02  0.96526747684E+02  0.47000000000E+01 0. -1.
        -11    1    4    4    0    0 -0.13860066082E+02 -0.40938586543E+02  0.17072001784E+03  0.17610620032E+03  0.00000000000E+00 0.  1.
         12    1    4    4    0    0 -0.63788591349E+02 -0.40400062844E+02  0.82959353692E+02  0.11217577202E+03  0.00000000000E+00 0. -1.
         -5    1    5    5    0  502  0.49187603536E+02 -0.37273526024E+02  0.13936092604E+03  0.15248702827E+03  0.47000000000E+01 0.  1.
         11    1    6    6    0    0 -0.32458234070E+02  0.93339572440E+01  0.44412742644E+02  0.55795621924E+02  0.00000000000E+00 0. -1.
        -12    1    6    6    0    0  0.16790949126E+02  0.88864873221E+02  0.19106470693E+03  0.21138737876E+03  0.00000000000E+00 0.  1.
</event>
<event>
12    1  0.8251070E-002  0.2191868E+03  0.7818608E-02  0.1135417E+00
         21   -1    0    0  503  502  0.00000000000E+00  0.00000000000E+00  0.29240319124E+03  0.29240319124E+03  0.00000000000E+00 0. -1.
         21   -1    0    0  501  503 -0.00000000000E+00 -0.00000000000E+00 -0.53842382177E+03  0.53842382177E+03  0.00000000000E+00 0. -1.
          6    2    1    2  501    0  0.11810243498E+03 -0.58067301346E+02 -0.47054878248E+03  0.51705041672E+03  0.16913006858E+03 0.  0.
         24    2    3    3    0    0  0.97922114693E+02 -0.99820986307E+02 -0.30133851813E+03  0.34153739983E+03  0.79309035552E+02 0.  0.
         -6    2    1    2    0  502 -0.11810243498E+03  0.58067301346E+02  0.22452815195E+03  0.31377659629E+03  0.17527939048E+03 0.  0.
        -24    2    5    5    0    0 -0.51441673341E+02  0.96588298407E+02  0.10832835004E+03  0.17430613948E+03  0.81682640106E+02 0.  0.
          5    1    3    3  501    0  0.20180320291E+02  0.41753684960E+02 -0.16921026435E+03  0.17551301689E+03  0.47000000000E+01 0. -1.
        -13    1    4    4    0    0  0.77873721184E+02 -0.84187438304E+02 -0.29322064213E+03  0.31484946592E+03  0.00000000000E+00 0.  1.
         14    1    4    4    0    0  0.20048393509E+02 -0.15633548003E+02 -0.81178759961E+01  0.26687933905E+02  0.00000000000E+00 0. -1.
         -5    1    5    5    0  502 -0.66660761642E+02 -0.38520997061E+02  0.11619980191E+03  0.13947045681E+03  0.47000000000E+01 0.  1.
         11    1    6    6    0    0 -0.64591626077E+02  0.94032591870E+02  0.11255551556E+03  0.16025901091E+03  0.00000000000E+00 0. -1.
        -12    1    6    6    0    0  0.13149952736E+02  0.25557065368E+01 -0.42271655265E+01  0.14047128577E+02  0.00000000000E+00 0.  1.
</event>
<event>
12    1  0.8251070E-002  0.2263846E+03  0.7818608E-02  0.1129723E+00
         21   -1    0    0  501  502  0.00000000000E+00  0.00000000000E+00  0.11344853243E+03  0.11344853243E+03  0.00000000000E+00 0. -1.
         21   -1    0    0  502  503 -0.00000000000E+00 -0.00000000000E+00 -0.44645078307E+03  0.44645078307E+03  0.00000000000E+00 0.  1.
         -6    2    1    2    0  503  0.50136387212E+01  0.14459994157E+03 -0.17324423691E+03  0.28282057688E+03  0.17041019162E+03 0.  0.
        -24    2    3    3    0    0 -0.10611885942E+02  0.15086441459E+02 -0.11238368072E+03  0.13879279820E+03  0.79329290301E+02 0.  0.
          6    2    1    2  501    0 -0.50136387212E+01 -0.14459994157E+03 -0.15975801373E+03  0.27707873862E+03  0.17411411422E+03 0.  0.
         24    2    5    5    0    0 -0.68524460540E+02 -0.65189700089E+02 -0.75775487611E+02  0.14511372192E+03  0.79817097642E+02 0.  0.
          5    1    5    5  501    0  0.63510821819E+02 -0.79410241481E+02 -0.83982526120E+02  0.13196501670E+03  0.47000000000E+01 0. -1.
        -13    1    6    6    0    0  0.36889375531E+01 -0.38619650450E+02 -0.51402398070E+02  0.64399473511E+02  0.00000000000E+00 0.  1.
         14    1    6    6    0    0 -0.72213398094E+02 -0.26570049639E+02 -0.24373089542E+02  0.80714248406E+02  0.00000000000E+00 0. -1.
         -5    1    3    3    0  503  0.15625524663E+02  0.12951350011E+03 -0.60860556189E+02  0.14402777868E+03  0.47000000000E+01 0.  1.
         11    1    4    4    0    0 -0.40517346798E+02  0.20189550866E+02 -0.40390226474E+02  0.60668309276E+02  0.00000000000E+00 0. -1.
        -12    1    4    4    0    0  0.29905460857E+02 -0.51031094073E+01 -0.71993454249E+02  0.78124488922E+02  0.00000000000E+00 0.  1.
</event>
<event>
12    1  0.8251070E-002  0.2432571E+03  0.7818608E-02  0.1117649E+00
         21   -1    0    0  501  502  0.00000000000E+00  0.00000000000E+00  0.45107422333E+03  0.45107422333E+03  0.00000000000E+00 0.  1.
         21   -1    0    0  502  503 -0.00000000000E+00 -0.00000000000E+00 -0.32808243588E+03  0.32808243588E+03  0.00000000000E+00 0. -1.
         -6    2    1    2    0  503 -0.10349693954E-01  0.17217057096E+03 -0.24032748618E+03  0.34192112338E+03  0.17178488987E+03 0.  0.
        -24    2    3    3    0    0  0.92308434394E+01  0.56581158979E+02 -0.19121879506E+03  0.21590499205E+03  0.82241728965E+02 0.  0.
          6    2    1    2  501    0  0.10349693954E-01 -0.17217057096E+03  0.36331927363E+03  0.43723553583E+03  0.17184677359E+03 0.  0.
         24    2    5    5    0    0  0.45730112930E+02 -0.36297674941E+02  0.15148180875E+03  0.18140562721E+03  0.80947506226E+02 0.  0.
          5    1    5    5  501    0 -0.45719763236E+02 -0.13587289602E+03  0.21183746487E+03  0.25582990863E+03  0.47000000000E+01 0. -1.
        -11    1    6    6    0    0  0.23197447029E+02 -0.57425056150E+02  0.12933203164E+03  0.14339641917E+03  0.00000000000E+00 0.  1.
         12    1    6    6    0    0  0.22532665901E+02  0.21127381210E+02  0.22149777112E+02  0.38009208036E+02  0.00000000000E+00 0. -1.
         -5    1    3    3    0  503 -0.92411931334E+01  0.11558941198E+03 -0.49108691114E+02  0.12601613133E+03  0.47000000000E+01 0.  1.
         11    1    4    4    0    0  0.15668641552E+02  0.63390956967E+02 -0.75555436537E+02  0.99862624358E+02  0.00000000000E+00 0. -1.
        -12    1    4    4    0    0 -0.64377981127E+01 -0.68097979886E+01 -0.11566335853E+03  0.11604236769E+03  0.00000000000E+00 0.  1.
</event>
<event>
12    1  0.8251070E-002  0.1942288E+03  0.7818608E-02  0.1154772E+00
         21   -1    0    0  503  502  0.00000000000E+00  0.00000000000E+00  0.14644862031E+04  0.14644862031E+04  0.00000000000E+00 0.  1.
         21   -1    0    0  501  503 -0.00000000000E+00 -0.00000000000E+00 -0.25731975682E+02  0.25731975682E+02  0.00000000000E+00 0. -1.
          6    2    1    2  501    0  0.89467608938E+02 -0.12785712957E+02  0.70209172750E+03  0.72846250268E+03  0.17192119264E+03 0.  0.
         24    2    3    3    0    0  0.10075977316E+03 -0.61832126329E+02  0.46861185062E+03  0.48957339337E+03  0.78161993453E+02 0.  0.
         -6    2    1    2    0  502 -0.89467608938E+02  0.12785712957E+02  0.73666249987E+03  0.76175567605E+03  0.17155798956E+03 0.  0.
        -24    2    5    5    0    0  0.24322755350E+01 -0.11622134948E+02  0.50446125947E+03  0.51079584291E+03  0.79311038641E+02 0.  0.
          5    1    3    3  501    0 -0.11292164226E+02  0.49046413372E+02  0.23347987689E+03  0.23888910931E+03  0.47000000000E+01 0. -1.
        -11    1    4    4    0    0  0.36587260288E+02 -0.26093990382E+02  0.32672467445E+03  0.32980075325E+03  0.00000000000E+00 0.  1.
         12    1    4    4    0    0  0.64172512876E+02 -0.35738135947E+02  0.14188717617E+03  0.15977264012E+03  0.00000000000E+00 0. -1.
         -5    1    5    5    0  502 -0.91899884473E+02  0.24407847905E+02  0.23220124040E+03  0.25095983314E+03  0.47000000000E+01 0.  1.
         13    1    6    6    0    0 -0.86785471853E+01 -0.26162243398E+02  0.47700183501E+03  0.47779758346E+03  0.00000000000E+00 0. -1.
        -14    1    6    6    0    0  0.11110822720E+02  0.14540108450E+02  0.27459424458E+02  0.32998259451E+02  0.00000000000E+00 0.  1.
</event>
<event>
12    1  0.8251070E-002  0.1861445E+03  0.7818608E-02  0.1163232E+00
         21   -1    0    0  501  502  0.00000000000E+00  0.00000000000E+00  0.17834815273E+03  0.17834815273E+03  0.00000000000E+00 0.  1.
         21   -1    0    0  502  503 -0.00000000000E+00 -0.00000000000E+00 -0.21036146512E+03  0.21036146512E+03  0.00000000000E+00 0.  1.
         -6    2    1    2    0  503 -0.17889587174E+02  0.54772257555E+02 -0.78034028782E+02  0.19696062680E+03  0.17141803095E+03 0.  0.
        -24    2    3    3    0    0 -0.67803421250E+02  0.10941697361E+02 -0.78106330934E+02  0.13036780386E+03  0.78601149337E+02 0.  0.
          6    2    1    2  501    0  0.17889587174E+02 -0.54772257555E+02  0.46020716387E+02  0.19174899105E+03  0.17700206695E+03 0.  0.
         24    2    5    5    0    0 -0.57513533316E+02 -0.21983194954E+02  0.11898634001E+02  0.10260214752E+03  0.81206870455E+02 0.  0.
          5    1    5    5  501    0  0.75403120491E+02 -0.32789062601E+02  0.34122082386E+02  0.89146843535E+02  0.47000000000E+01 0. -1.
        -13    1    6    6    0    0 -0.98075178457E+01 -0.27670759750E+02  0.37926282178E+02  0.47961038680E+02  0.00000000000E+00 0.  1.
         14    1    6    6    0    0 -0.47706015470E+02  0.56875647954E+01 -0.26027648177E+02  0.54641108837E+02  0.00000000000E+00 0. -1.
         -5    1    3    3    0  503  0.49913834076E+02  0.43830560194E+02  0.72302152614E-01  0.66592822937E+02  0.47000000000E+01 0.  1.
         13    1    4    4    0    0 -0.18740071625E+02  0.15912657029E+01 -0.78191228547E+02  0.80421331951E+02  0.00000000000E+00 0. -1.
        -14    1    4    4    0    0 -0.49063349625E+02  0.93504316581E+01  0.84897613016E-01  0.49946471910E+02  0.00000000000E+00 0.  1.
</event>
<event>
12    1  0.8251070E-002  0.1908620E+03  0.7818608E-02  0.1157787E+00
         21   -1    0    0  503  502  0.00000000000E+00  0.00000000000E+00  0.10117651649E+04  0.10117651649E+04  0.00000000000E+00 0.  1.
         21   -1    0    0  501  503 -0.00000000000E+00 -0.00000000000E+00 -0.44565354081E+02  0.44565354081E+02  0.00000000000E+00 0. -1.
          6    2    1    2  501    0 -0.29355690842E+02 -0.76115769765E+02  0.25051289410E+03  0.31466452303E+03  0.17205140206E+03 0.  0.
         24    2    3    3    0    0  0.10146259107E+02 -0.46506721636E+00  0.20471867788E+03  0.21769734773E+03  0.73343270142E+02 0.  0.
         -6    2    1    2    0  502  0.29355690842E+02  0.76115769765E+02  0.71668691674E+03  0.74166599597E+03  0.17254838731E+03 0.  0.
        -24    2    5    5    0    0  0.33480614302E+02 -0.20026269098E+02  0.25165653902E+03  0.26676005914E+03  0.79422367986E+02 0.  0.
          5    1    3    3  501    0 -0.39501949949E+02 -0.75650702549E+02  0.45794216220E+02  0.96967175297E+02  0.47000000000E+01 0. -1.
        -11    1    4    4    0    0 -0.16345023268E+02 -0.31087047791E+01  0.18182517336E+03  0.18258482275E+03  0.00000000000E+00 0.  1.
         12    1    4    4    0    0  0.26491282376E+02  0.26436375628E+01  0.22893504523E+02  0.35112524985E+02  0.00000000000E+00 0. -1.
         -5    1    5    5    0  502 -0.41249234601E+01  0.96142038863E+02  0.46503037772E+03  0.47490593683E+03  0.47000000000E+01 0.  1.
         11    1    6    6    0    0  0.20505636377E+02  0.13903519933E+02  0.21013763349E+03  0.21159303863E+03  0.00000000000E+00 0. -1.
        -12    1    6    6    0    0  0.12974977925E+02 -0.33929789031E+02  0.41518905531E+02  0.55167020513E+02  0.00000000000E+00 0.  1.
</event>
<event>
12    1  0.8251070E-002  0.1814750E+03  0.7818608E-02  0.1166965E+00
         21   -1    0    0  501  502  0.00000000000E+00  0.00000000000E+00  0.58739530522E+03  0.58739530522E+03  0.00000000000E+00 0. -1.
         21   -1    0    0  502  503 -0.00000000000E+00 -0.00000000000E+00 -0.63821203316E+02  0.63821203316E+02  0.00000000000E+00 0. -1.
         -6    2    1    2    0  503  0.28652551095E+02  0.38950789678E+02  0.14145391294E+03  0.22819287065E+03  0.17240836415E+03 0.  0.
        -24    2    3    3    0    0  0.64170142842E+02 -0.12065358989E+02  0.46167412881E+02  0.11432560651E+03  0.81703942207E+02 0.  0.
          6    2    1    2  501    0 -0.28652551095E+02 -0.38950789678E+02  0.38212018896E+03  0.42302363789E+03  0.17491434103E+03 0.  0.
         24    2    5    5    0    0 -0.74220714399E+02  0.14969446162E+02  0.25321555061E+03  0.27597825330E+03  0.79454908334E+02 0.  0.
          5    1    5    5  501    0  0.45568163304E+02 -0.53920235841E+02  0.12890463835E+03  0.14704538459E+03  0.47000000000E+01 0. -1.
        -11    1    6    6    0    0 -0.47897655151E+02  0.15354219443E+02  0.49505940885E+02  0.70574610212E+02  0.00000000000E+00 0.  1.
         12    1    6    6    0    0 -0.26323059248E+02 -0.38477328018E+00  0.20370960973E+03  0.20540364309E+03  0.00000000000E+00 0. -1.
         -5    1    3    3    0  503 -0.35517591747E+02  0.51016148668E+02  0.95286500056E+02  0.11386726413E+03  0.47000000000E+01 0.  1.
         11    1    4    4    0    0  0.42507639065E+01  0.29870518169E+02  0.21849925201E+02  0.37252329871E+02  0.00000000000E+00 0. -1.
        -12    1    4    4    0    0  0.59919378935E+02 -0.41935877159E+02  0.24317487680E+02  0.77073276641E+02  0.00000000000E+00 0.  1.
</event>
<event>
12    1  0.8251070E-002  0.1727038E+03  0.7818608E-02  0.1177382E+00
         21   -1    0    0  501  502  0.00000000000E+00  0.00000000000E+00  0.69287871503E+02  0.69287871503E+02  0.00000000000E+00 0. -1.
         21   -1    0    0  502  503 -0.00000000000E+00 -0.00000000000E+00 -0.66735964263E+03  0.66735964263E+03  0.00000000000E+00 0. -1.
         -6    2    1    2    0  503  0.12168881854E+02 -0.13305674259E+02 -0.52347788783E+03  0.54852297205E+03  0.16285953813E+03 0.  0.
        -24    2    3    3    0    0  0.19541815189E+02 -0.52626545522E+02 -0.47982502719E+03  0.48912471193E+03  0.76547313896E+02 0.  0.
          6    2    1    2  501    0 -0.12168881854E+02  0.13305674259E+02 -0.74593883296E+02  0.18812454209E+03  0.17175992914E+03 0.  0.
         24    2    5    5    0    0 -0.68718118643E+02  0.21769884753E+02 -0.72867693535E+02  0.13072655631E+03  0.81139534453E+02 0.  0.
          5    1    5    5  501    0  0.56549236789E+02 -0.84642104932E+01 -0.17261897618E+01  0.57397985781E+02  0.47000000000E+01 0. -1.
        -13    1    6    6    0    0 -0.10130401100E+02  0.22478677177E+01 -0.67992552495E+02  0.68779830841E+02  0.00000000000E+00 0.  1.
         14    1    6    6    0    0 -0.58587717543E+02  0.19522017035E+02 -0.48751410393E+01  0.61946725467E+02  0.00000000000E+00 0. -1.
         -5    1    3    3    0  503 -0.73729333343E+01  0.39320871263E+02 -0.43652860641E+02  0.59398260117E+02  0.47000000000E+01 0.  1.
         13    1    4    4    0    0 -0.18035036387E+01  0.12481560050E+02 -0.22177041377E+03  0.22212869781E+03  0.00000000000E+00 0. -1.
        -14    1    4    4    0    0  0.21345318827E+02 -0.65108105573E+02 -0.25805461342E+03  0.26699601412E+03  0.00000000000E+00 0.  1.
</event>
<event>
12    1  0.8251070E-002  0.1846896E+03  0.7818608E-02  0.1164377E+00
         21   -1    0    0  501  502  0.00000000000E+00  0.00000000000E+00  0.41461204664E+03  0.41461204664E+03  0.00000000000E+00 0.  1.
         21   -1    0    0  502  503 -0.00000000000E+00 -0.00000000000E+00 -0.91667520414E+02  0.91667520414E+02  0.00000000000E+00 0.  1.
         -6    2    1    2    0  503  0.23548387045E+02  0.60726555120E+02  0.70766727030E+02  0.19370336439E+03  0.16813929550E+03 0.  0.
        -24    2    3    3    0    0 -0.27861322546E+02 -0.14292421481E+02  0.20913566157E+02  0.89885096538E+02  0.81617563824E+02 0.  0.
          6    2    1    2  501    0 -0.23548387045E+02 -0.60726555120E+02  0.25217779920E+03  0.31257620267E+03  0.17282360671E+03 0.  0.
         24    2    5    5    0    0  0.38664309280E+02 -0.79581999438E+02  0.15247497409E+03  0.19345991201E+03  0.79686237118E+02 0.  0.
          5    1    5    5  501    0 -0.62212696326E+02  0.18855444318E+02  0.99702825111E+02  0.11911629066E+03  0.47000000000E+01 0. -1.
        -13    1    6    6    0    0  0.58438944985E+02 -0.32033413831E+02  0.73874611223E+02  0.99492251336E+02  0.00000000000E+00 0.  1.
         14    1    6    6    0    0 -0.19774635704E+02 -0.47548585607E+02  0.78600362866E+02  0.93967660677E+02  0.00000000000E+00 0. -1.
         -5    1    3    3    0  503  0.51409709591E+02  0.75018976602E+02  0.49853160874E+02  0.10381826785E+03  0.47000000000E+01 0.  1.
         13    1    4    4    0    0  0.17298760008E+01 -0.28906679216E+02  0.41782995890E+02  0.50837066397E+02  0.00000000000E+00 0. -1.
        -14    1    4    4    0    0 -0.29591198547E+02  0.14614257734E+02 -0.20869429733E+02  0.39048030142E+02  0.00000000000E+00 0.  1.
</event>
<event>
12    1  0.8251070E-002  0.1766529E+03  0.7818608E-02  0.1171294E+00
         21   -1    0    0  501  502  0.00000000000E+00  0.00000000000E+00  0.17843488441E+03  0.17843488441E+03  0.00000000000E+00 0. -1.
         21   -1    0    0  502  503 -0.00000000000E+00 -0.00000000000E+00 -0.26167102727E+03  0.26167102727E+03  0.00000000000E+00 0. -1.
         -6    2    1    2    0  503  0.33043323762E+02  0.20631076387E+02 -0.16902453097E+03  0.24449038224E+03  0.17230424366E+03 0.  0.
        -24    2    3    3    0    0  0.72387589714E+02 -0.23463163377E+02 -0.14445433810E+03  0.18031828845E+03  0.76531994452E+02 0.  0.
          6    2    1    2  501    0 -0.33043323762E+02 -0.20631076387E+02  0.85788388103E+02  0.19561552944E+03  0.17143011773E+03 0.  0.
         24    2    5    5    0    0 -0.81659485415E+02 -0.53901375536E+01  0.27785970466E+02  0.11827092496E+03  0.80738010839E+02 0.  0.
          5    1    5    5  501    0  0.48616161653E+02 -0.15240938834E+02  0.58002417637E+02  0.77344604480E+02  0.47000000000E+01 0. -1.
        -11    1    6    6    0    0 -0.14136374379E+02 -0.17657625867E+02 -0.23484314893E+02  0.32605856496E+02  0.00000000000E+00 0.  1.
         12    1    6    6    0    0 -0.67523111036E+02  0.12267488313E+02  0.51270285360E+02  0.85665068460E+02  0.00000000000E+00 0. -1.
         -5    1    3    3    0  503 -0.39344265953E+02  0.44094239765E+02 -0.24570192874E+02  0.64172093792E+02  0.47000000000E+01 0.  1.
         11    1    4    4    0    0 -0.15335937370E+01 -0.32883521248E+02 -0.52397671449E+02  0.61880480385E+02  0.00000000000E+00 0. -1.
        -12    1    4    4    0    0  0.73921183451E+02  0.94203578709E+01 -0.92056666648E+02  0.11843780807E+03  0.00000000000E+00 0.  1.
</event>
<event>
12    1  0.8251070E-002  0.1871473E+03  0.7818608E-02  0.1163180E+00
         21   -1    0    0  501  502  0.00000000000E+00  0.00000000000E+00  0.58649228675E+03  0.58649228675E+03  0.00000000000E+00 0.  1.
         21   -1    0    0  502  503 -0.00000000000E+00 -0.00000000000E+00 -0.56891536632E+02  0.56891536632E+02  0.00000000000E+00 0.  1.
         -6    2    1    2    0  503  0.61471523036E+02 -0.45935319632E+02  0.26836712306E+03  0.32717733676E+03  0.17069064184E+03 0.  0.
        -24    2    3    3    0    0 -0.94856366178E+01  0.14494025396E+02  0.18493951754E+03  0.20200194137E+03  0.79385799084E+02 0.  0.
          6    2    1    2  501    0 -0.61471523036E+02  0.45935319632E+02  0.26123362706E+03  0.31620648663E+03  0.16079406875E+03 0.  0.
         24    2    5    5    0    0 -0.30012845915E-01  0.31418462538E+02  0.22910292206E+03  0.24521162401E+03  0.81568811225E+02 0.  0.
          5    1    5    5  501    0 -0.61441510190E+02  0.14516857094E+02  0.32130704999E+02  0.70994862617E+02  0.47000000000E+01 0. -1.
        -13    1    6    6    0    0  0.35870156666E+01  0.58968211561E+02  0.14251333347E+03  0.15427302704E+03  0.00000000000E+00 0.  1.
         14    1    6    6    0    0 -0.36170285125E+01 -0.27549749022E+02  0.86589588593E+02  0.90938596971E+02  0.00000000000E+00 0. -1.
         -5    1    3    3    0  503  0.70957159654E+02 -0.60429345028E+02  0.83427605525E+02  0.12517539539E+03  0.47000000000E+01 0.  1.
         13    1    4    4    0    0  0.15248059807E+02 -0.26530005784E+02  0.98903726921E+02  0.10352918301E+03  0.00000000000E+00 0. -1.
        -14    1    4    4    0    0 -0.24733696425E+02  0.41024031180E+02  0.86035790617E+02  0.98472758366E+02  0.00000000000E+00 0.  1.
</event>
<event>
12    1  0.8251070E-002  0.1885489E+03  0.7818608E-02  0.1160038E+00
         21   -1    0    0  501  502  0.00000000000E+00  0.00000000000E+00  0.11307874206E+03  0.11307874206E+03  0.00000000000E+00 0.  1.
         21   -1    0    0  502  503 -0.00000000000E+00 -0.00000000000E+00 -0.34044885679E+03  0.34044885679E+03  0.00000000000E+00 0.  1.
         -6    2    1    2    0  503  0.26626501845E+02  0.72129009228E+02 -0.17899695884E+03  0.25998189267E+03  0.17216012508E+03 0.  0.
        -24    2    3    3    0    0 -0.44485046030E+02  0.51741374481E+02 -0.14494981410E+03  0.17841102804E+03  0.78510872905E+02 0.  0.
          6    2    1    2  501    0 -0.26626501845E+02 -0.72129009228E+02 -0.48373155891E+02  0.19354570618E+03  0.17090469156E+03 0.  0.
         24    2    5    5    0    0 -0.91780643069E+01 -0.15783346379E+02 -0.89550317258E+02  0.12145596826E+03  0.79993387343E+02 0.  0.
          5    1    5    5  501    0 -0.17448437538E+02 -0.56345662848E+02  0.41177161367E+02  0.72089737915E+02  0.47000000000E+01 0. -1.
        -13    1    6    6    0    0 -0.35771712952E+00  0.24444103123E+02 -0.17888754582E+01  0.24512083029E+02  0.00000000000E+00 0.  1.
         14    1    6    6    0    0 -0.88203471774E+01 -0.40227449502E+02 -0.87761441800E+02  0.96943885235E+02  0.00000000000E+00 0. -1.
         -5    1    3    3    0  503  0.71111547875E+02  0.20387634746E+02 -0.34047144743E+02  0.81570864632E+02  0.47000000000E+01 0.  1.
         13    1    4    4    0    0  0.61782861092E+01  0.52923068917E+02 -0.71264119996E+02  0.88980881326E+02  0.00000000000E+00 0. -1.
        -14    1    4    4    0    0 -0.50663332139E+02 -0.11816944355E+01 -0.73685694102E+02  0.89430146710E+02  0.00000000000E+00 0.  1.
</event>
<event>
12    1  0.8251070E-002  0.2330363E+03  0.7818608E-02  0.1124603E+00
         21   -1    0    0  503  502  0.00000000000E+00  0.00000000000E+00  0.81539493412E+02  0.81539493412E+02  0.00000000000E+00 0. -1.
         21   -1    0    0  501  503 -0.00000000000E+00 -0.00000000000E+00 -0.67304814223E+03  0.67304814223E+03  0.00000000000E+00 0.  1.
          6    2    1    2  501    0 -0.14441907688E+03 -0.60114402740E+02 -0.25392779643E+03  0.34465235317E+03  0.17272900035E+03 0.  0.
         24    2    3    3    0    0 -0.70212165950E+02 -0.91591603257E+02 -0.10429958464E+03  0.17462832091E+03  0.79359165021E+02 0.  0.
         -6    2    1    2    0  502  0.14441907688E+03  0.60114402740E+02 -0.33758085239E+03  0.40993528247E+03  0.17209152429E+03 0.  0.
        -24    2    5    5    0    0  0.34984963988E+02  0.81436126442E+02 -0.19732601334E+03  0.23070372598E+03  0.80192663286E+02 0.  0.
          5    1    3    3  501    0 -0.74206910933E+02  0.31477200517E+02 -0.14962821179E+03  0.17002403226E+03  0.47000000000E+01 0. -1.
        -13    1    4    4    0    0  0.23664718654E+00 -0.15526477467E+02 -0.59837564831E+02  0.61819589690E+02  0.00000000000E+00 0.  1.
         14    1    4    4    0    0 -0.70448813137E+02 -0.76065125789E+02 -0.44462019805E+02  0.11280873122E+03  0.00000000000E+00 0. -1.
         -5    1    5    5    0  502  0.10943411289E+03 -0.21321723702E+02 -0.14025483905E+03  0.17923155650E+03  0.47000000000E+01 0.  1.
         13    1    6    6    0    0  0.19464046498E+02  0.84134837087E+02 -0.10006931417E+03  0.13217937644E+03  0.00000000000E+00 0. -1.
        -14    1    6    6    0    0  0.15520917490E+02 -0.26987106446E+01 -0.97256699164E+02  0.98524349535E+02  0.00000000000E+00 0.  1.
</event>
<event>
12    1  0.8251070E-002  0.1926775E+03  0.7818608E-02  0.1157246E+00
         21   -1    0    0  503  502  0.00000000000E+00  0.00000000000E+00  0.82704995063E+03  0.82704995063E+03  0.00000000000E+00 0.  1.
         21   -1    0    0  501  503 -0.00000000000E+00 -0.00000000000E+00 -0.61440222808E+02  0.61440222808E+02  0.00000000000E+00 0.  1.
          6    2    1    2  501    0  0.34454857454E+02 -0.70000775148E+02  0.14769441993E+03  0.24277202839E+03  0.17617426136E+03 0.  0.
         24    2    3    3    0    0  0.70016549866E+02 -0.80827376796E+02  0.15384076479E+03  0.20480208204E+03  0.82713540614E+02 0.  0.
         -6    2    1    2    0  502 -0.34454857454E+02  0.70000775148E+02  0.61791530790E+03  0.64571814505E+03  0.17042696205E+03 0.  0.
        -24    2    5    5    0    0 -0.22817585854E+02  0.11032448783E+03  0.50803723458E+03  0.52800362220E+03  0.89408380453E+02 0.  0.
          5    1    3    3  501    0 -0.35561692412E+02  0.10826601649E+02 -0.61463448648E+01  0.37969946348E+02  0.47000000000E+01 0. -1.
        -11    1    4    4    0    0  0.31166396887E+02 -0.52189757037E+02  0.22405185404E+02  0.64785085996E+02  0.00000000000E+00 0.  1.
         12    1    4    4    0    0  0.38850152979E+02 -0.28637619759E+02  0.13143557939E+03  0.14001699604E+03  0.00000000000E+00 0. -1.
         -5    1    5    5    0  502 -0.11637271599E+02 -0.40323712683E+02  0.10987807332E+03  0.11771452285E+03  0.47000000000E+01 0.  1.
         11    1    6    6    0    0  0.50089619309E+01  0.20167900012E+01 -0.20701491279E+01  0.57829628173E+01  0.00000000000E+00 0. -1.
        -12    1    6    6    0    0 -0.27826547785E+02  0.10830769783E+03  0.51010738371E+03  0.52222065938E+03  0.00000000000E+00 0.  1.
</event>
<event>
12    1  0.8251070E-002  0.2288276E+03  0.7818608E-02  0.1127604E+00
         21   -1    0    0  501  502  0.00000000000E+00  0.00000000000E+00  0.25591706358E+03  0.25591706358E+03  0.00000000000E+00 0. -1.
         21   -1    0    0  502  503 -0.00000000000E+00 -0.00000000000E+00 -0.28951594957E+03  0.28951594957E+03  0.00000000000E+00 0. -1.
         -6    2    1    2    0  503 -0.13808017496E+03 -0.59402350232E+02 -0.16510848017E+03  0.28217528414E+03  0.17253204579E+03 0.  0.
        -24    2    3    3    0    0 -0.41049388449E+02 -0.90470522266E+02 -0.98297336674E+02  0.16024897960E+03  0.78405365721E+02 0.  0.
          6    2    1    2  501    0  0.13808017496E+03  0.59402350232E+02  0.13150959418E+03  0.26325772901E+03  0.17150826392E+03 0.  0.
         24    2    5    5    0    0  0.11765657208E+02  0.51817066090E+02  0.30591596447E+02  0.10133359185E+03  0.80679687874E+02 0.  0.
          5    1    5    5  501    0  0.12631451775E+03  0.75852841419E+01  0.10091799773E+03  0.16192413716E+03  0.47000000000E+01 0. -1.
        -11    1    6    6    0    0 -0.98137543534E+00 -0.11491176610E+02  0.34757124250E+02  0.36620594257E+02  0.00000000000E+00 0.  1.
         12    1    6    6    0    0  0.12747032644E+02  0.63308242699E+02 -0.41655278036E+01  0.64712997588E+02  0.00000000000E+00 0. -1.
         -5    1    3    3    0  503 -0.97030786509E+02  0.31068172034E+02 -0.66811143495E+02  0.12192630454E+03  0.47000000000E+01 0.  1.
         11    1    4    4    0    0 -0.20240637794E+02 -0.66200838350E+02 -0.10670434928E+03  0.12719297376E+03  0.00000000000E+00 0. -1.
        -12    1    4    4    0    0 -0.20808750655E+02 -0.24269683916E+02  0.84070126105E+01  0.33056005842E+02  0.00000000000E+00 0.  1.
</event>
<event>
12    1  0.8251070E-002  0.1840233E+03  0.7818608E-02  0.1163992E+00
         21   -1    0    0  503  502  0.00000000000E+00  0.00000000000E+00  0.10256333941E+04  0.10256333941E+04  0.00000000000E+00 0.  1.
         21   -1    0    0  501  503 -0.00000000000E+00 -0.00000000000E+00 -0.36646002629E+02  0.36646002629E+02  0.00000000000E+00 0.  1.
          6    2    1    2  501    0  0.62215811115E+02  0.12293280292E+02  0.66222186350E+03  0.68731532598E+03  0.17275019229E+03 0.  0.
         24    2    3    3    0    0  0.18060856260E+02  0.22098976639E+02  0.13718990677E+03  0.16031773841E+03  0.77885476383E+02 0.  0.
         -6    2    1    2    0  502 -0.62215811115E+02 -0.12293280292E+02  0.32676552798E+03  0.37496407076E+03  0.17262795889E+03 0.  0.
        -24    2    5    5    0    0 -0.83880785641E+02  0.38890417526E+02  0.26423627001E+03  0.29117182681E+03  0.80073563457E+02 0.  0.
          5    1    3    3  501    0  0.44154954854E+02 -0.98056963478E+01  0.52503195673E+03  0.52699758758E+03  0.47000000000E+01 0. -1.
        -11    1    4    4    0    0  0.30285592277E+02  0.31768311371E+02  0.13789857375E+03  0.14471509717E+03  0.00000000000E+00 0.  1.
         12    1    4    4    0    0 -0.12224736017E+02 -0.96693347316E+01 -0.70866697469E+00  0.15602641242E+02  0.00000000000E+00 0. -1.
         -5    1    5    5    0  502  0.21664974526E+02 -0.51183697817E+02  0.62529257971E+02  0.83792243948E+02  0.47000000000E+01 0.  1.
         13    1    6    6    0    0  0.46755707607E+01 -0.31596612527E+01 -0.30925087670E+01  0.64349072755E+01  0.00000000000E+00 0. -1.
        -14    1    6    6    0    0 -0.88556356401E+02  0.42050078778E+02  0.26732877877E+03  0.28473691953E+03  0.00000000000E+00 0.  1.
</event>
<event>
12    1  0.8251070E-002  0.1798239E+03  0.7818608E-02  0.1169830E+00
         21   -1    0    0  501  502  0.00000000000E+00  0.00000000000E+00  0.28384457441E+02  0.28384457441E+02  0.00000000000E+00 0. -1.
         21   -1    0    0  502  503 -0.00000000000E+00 -0.00000000000E+00 -0.12368186225E+04  0.12368186225E+04  0.00000000000E+00 0. -1.
         -6    2    1    2    0  503  0.91499655097E+01  0.21201609334E+02 -0.83177680902E+03  0.85099311344E+03  0.17833504703E+03 0.  0.
        -24    2    3    3    0    0  0.14647886552E+02 -0.59727556596E+02 -0.54019674444E+03  0.54830386505E+03  0.71011718238E+02 0.  0.
          6    2    1    2  501    0 -0.91499655097E+01 -0.21201609334E+02 -0.37665735603E+03  0.41420996648E+03  0.17078027514E+03 0.  0.
         24    2    5    5    0    0 -0.58846883000E+01  0.43721467850E+02 -0.13997835986E+03  0.16872125959E+03  0.83226954172E+02 0.  0.
          5    1    5    5  501    0 -0.32652772097E+01 -0.64923077184E+02 -0.23667899617E+03  0.24548870689E+03  0.47000000000E+01 0. -1.
        -13    1    6    6    0    0  0.66964608696E+01 -0.17222566178E+02 -0.80659983984E+02  0.82749576375E+02  0.00000000000E+00 0.  1.
         14    1    6    6    0    0 -0.12581149170E+02  0.60944034028E+02 -0.59318375877E+02  0.85971683215E+02  0.00000000000E+00 0. -1.
         -5    1    3    3    0  503 -0.54979210426E+01  0.80929165929E+02 -0.29158006458E+03  0.30268924839E+03  0.47000000000E+01 0.  1.
         13    1    4    4    0    0  0.33301409977E+02 -0.21090387980E+01 -0.19544180630E+03  0.19826984542E+03  0.00000000000E+00 0. -1.
        -14    1    4    4    0    0 -0.18653523425E+02 -0.57618517798E+02 -0.34475493814E+03  0.35003401963E+03  0.00000000000E+00 0.  1.
</event>
<event>
12    1  0.8251070E-002  0.1814237E+03  0.7818608E-02  0.1166778E+00
         21   -1    0    0  501  502  0.00000000000E+00  0.00000000000E+00  0.80444784496E+03  0.80444784496E+03  0.00000000000E+00 0. -1.
         21   -1    0    0  502  503 -0.00000000000E+00 -0.00000000000E+00 -0.45257238753E+02  0.45257238753E+02  0.00000000000E+00 0. -1.
         -6    2    1    2    0  503 -0.51401359535E+02 -0.13105019624E+02  0.51463939036E+03  0.54520572742E+03  0.17199343532E+03 0.  0.
        -24    2    3    3    0    0 -0.42228177561E+02 -0.34387460182E+02  0.51235603816E+03  0.52144876547E+03  0.80214641872E+02 0.  0.
          6    2    1    2  501    0  0.51401359535E+02  0.13105019624E+02  0.24455121584E+03  0.30449935630E+03  0.17349558932E+03 0.  0.
         24    2    5    5    0    0  0.60156988804E+02  0.98882176323E+00  0.26251286938E+03  0.28066294943E+03  0.78986350230E+02 0.  0.
          5    1    5    5  501    0 -0.87556292687E+01  0.12116197861E+02 -0.17961653536E+02  0.23836406865E+02  0.47000000000E+01 0. -1.
        -13    1    6    6    0    0  0.23280035742E+02  0.31326677602E+02  0.18910042273E+03  0.19308622600E+03  0.00000000000E+00 0.  1.
         14    1    6    6    0    0  0.36876953062E+02 -0.30337855839E+02  0.73412446650E+02  0.87576723433E+02  0.00000000000E+00 0. -1.
         -5    1    3    3    0  503 -0.91731819739E+01  0.21282440558E+02  0.22833521982E+01  0.23756961945E+02  0.47000000000E+01 0.  1.
         13    1    4    4    0    0  0.54550149515E+01 -0.26415312427E+02  0.37244842173E+03  0.37342382459E+03  0.00000000000E+00 0. -1.
        -14    1    4    4    0    0 -0.47683192513E+02 -0.79721477551E+01  0.13990761643E+03  0.14802494088E+03  0.00000000000E+00 0.  1.
</event>
<event>
12    1  0.8251070E-002  0.1750279E+03  0.7818608E-02  0.1172749E+00
         21   -1    0    0  501  502  0.00000000000E+00  0.00000000000E+00  0.37380032471E+03  0.37380032471E+03  0.00000000000E+00 0.  1.
         21   -1    0    0  502  503 -0.00000000000E+00 -0.00000000000E+00 -0.88671170385E+02  0.88671170385E+02  0.00000000000E+00 0.  1.
         -6    2    1    2    0  503  0.29470164829E+01 -0.31277860633E+02  0.78454919460E+02  0.19164130658E+03  0.17200065851E+03 0.  0.
        -24    2    3    3    0    0  0.46949225161E+02 -0.27501587979E+02 -0.35520255174E+01  0.98379933935E+02  0.81886674320E+02 0.  0.
          6    2    1    2  501    0 -0.29470164829E+01  0.31277860633E+02  0.20667423487E+03  0.27083018851E+03  0.17218525541E+03 0.  0.
         24    2    5    5    0    0  0.39903119375E+02  0.58594731891E+02  0.67928010086E+02  0.12299598919E+03  0.74082368089E+02 0.  0.
          5    1    5    5  501    0 -0.42850135858E+02 -0.27316871257E+02  0.13874622478E+03  0.14783419932E+03  0.47000000000E+01 0. -1.
        -11    1    6    6    0    0  0.48002635703E+02  0.70283957035E+02  0.67731755727E+02  0.10877351877E+03  0.00000000000E+00 0.  1.
         12    1    6    6    0    0 -0.80995163280E+01 -0.11689225144E+02  0.19625435925E+00  0.14222470425E+02  0.00000000000E+00 0. -1.
         -5    1    3    3    0  503 -0.44002208678E+02 -0.37762726545E+01  0.82006944977E+02  0.93261372648E+02  0.47000000000E+01 0.  1.
         13    1    4    4    0    0  0.49097959931E+02 -0.39633132899E+02  0.24542060372E+02  0.67703084273E+02  0.00000000000E+00 0. -1.
        -14    1    4    4    0    0 -0.21487347699E+01  0.12131544920E+02 -0.28094085889E+02  0.30676849662E+02  0.00000000000E+00 0.  1.
</event>
<event>
12    1  0.8251070E-002  0.2527366E+03  0.7818608E-02  0.1112431E+00
         21   -1    0    0  501  502  0.00000000000E+00  0.00000000000E+00  0.93251258372E+03  0.93251258372E+03  0.00000000000E+00 0.  1.
         21   -1    0    0  502  503 -0.00000000000E+00 -0.00000000000E+00 -0.93852437593E+02  0.93852437593E+02  0.00000000000E+00 0.  1.
         -6    2    1    2    0  503  0.10226302119E+03 -0.14681239159E+03  0.14833146747E+03  0.29304953355E+03  0.17850546504E+03 0.  0.
        -24    2    3    3    0    0  0.42779350494E+02 -0.51978238940E+02 -0.17871978059E+02  0.92606277510E+02  0.61030360334E+02 0.  0.
          6    2    1    2  501    0 -0.10226302119E+03  0.14681239159E+03  0.69032867866E+03  0.73331548776E+03  0.17084003097E+03 0.  0.
         24    2    5    5    0    0 -0.77118144651E+02  0.14490674342E+03  0.68256930462E+03  0.70651634231E+03  0.79494111889E+02 0.  0.
          5    1    5    5  501    0 -0.25144876539E+02  0.19056481747E+01  0.77593740379E+01  0.26799145445E+02  0.47000000000E+01 0. -1.
        -11    1    6    6    0    0 -0.66738403104E+02  0.10177851420E+03  0.34080580908E+03  0.36188600402E+03  0.00000000000E+00 0.  1.
         12    1    6    6    0    0 -0.10379741548E+02  0.43128229216E+02  0.34176349554E+03  0.34463033830E+03  0.00000000000E+00 0. -1.
         -5    1    3    3    0  503  0.59483670696E+02 -0.94834152651E+02  0.16620344553E+03  0.20044325604E+03  0.47000000000E+01 0.  1.
         11    1    4    4    0    0  0.51757250163E+01 -0.22624349233E+02 -0.34935611057E+02  0.41942177192E+02  0.00000000000E+00 0. -1.
        -12    1    4    4    0    0  0.37603625477E+02 -0.29353889707E+02  0.17063632998E+02  0.50664100318E+02  0.00000000000E+00 0.  1.
</event>
<event>
12    1  0.8251070E-002  0.2253455E+03  0.7818608E-02  0.1130187E+00
         21   -1    0    0  501  502  0.00000000000E+00  0.00000000000E+00  0.35926676593E+02  0.35926676593E+02  0.00000000000E+00 0.  1.
         21   -1    0    0  502  503 -0.00000000000E+00 -0.00000000000E+00 -0.14117889166E+04  0.14117889166E+04  0.00000000000E+00 0. -1.
         -6    2    1    2    0  503 -0.65606501636E+02  0.12767248220E+03 -0.73402273733E+03  0.76746669754E+03  0.17207927577E+03 0.  0.
        -24    2    3    3    0    0 -0.42797209990E+02 -0.12746313854E+01 -0.35461745325E+03  0.36607152882E+03  0.80134887488E+02 0.  0.
          6    2    1    2  501    0  0.65606501636E+02 -0.12767248220E+03 -0.64183950265E+03  0.68024889562E+03  0.17371280054E+03 0.  0.
         24    2    5    5    0    0  0.19668719332E+02 -0.16157538416E+01 -0.33861806620E+03  0.34863781600E+03  0.80601878452E+02 0.  0.
          5    1    5    5  501    0  0.45937782304E+02 -0.12605672835E+03 -0.30322143645E+03  0.33161107962E+03  0.47000000000E+01 0. -1.
        -13    1    6    6    0    0  0.20914647451E+02 -0.18053922411E+02 -0.35087086002E+02  0.44659491673E+02  0.00000000000E+00 0.  1.
         14    1    6    6    0    0 -0.12459281185E+01  0.16438168569E+02 -0.30353098020E+03  0.30397832433E+03  0.00000000000E+00 0. -1.
         -5    1    3    3    0  503 -0.22809291647E+02  0.12894711358E+03 -0.37940528408E+03  0.40139516872E+03  0.47000000000E+01 0.  1.
         13    1    4    4    0    0  0.21235456605E+01 -0.25973633626E+02 -0.22778643200E+03  0.22927232213E+03  0.00000000000E+00 0. -1.
        -14    1    4    4    0    0 -0.44920755650E+02  0.24699002240E+02 -0.12683102125E+03  0.13679920669E+03  0.00000000000E+00 0.  1.
</event>
<event>
12    1  0.8251070E-002  0.1787559E+03  0.7818608E-02  0.1169729E+00
         21   -1    0    0  501  502  0.00000000000E+00  0.00000000000E+00  0.23189316223E+03  0.23189316223E+03  0.00000000000E+00 0. -1.
         21   -1    0    0  502  503 -0.00000000000E+00 -0.00000000000E+00 -0.36422458387E+03  0.36422458387E+03  0.00000000000E+00 0.  1.
         -6    2    1    2    0  503  0.44209366417E+02  0.14901485281E+02 -0.30212572445E+03  0.34957405258E+03  0.16954510466E+03 0.  0.
        -24    2    3    3    0    0  0.20785421312E+01 -0.94756639990E+01 -0.53345010428E+02  0.96032763171E+02  0.79262178365E+02 0.  0.
          6    2    1    2  501    0 -0.44209366417E+02 -0.14901485281E+02  0.16979430281E+03  0.24654369352E+03  0.17256061313E+03 0.  0.
         24    2    5    5    0    0  0.34532445055E+02 -0.31150074771E+02  0.12424851359E+03  0.15401911057E+03  0.78239225272E+02 0.  0.
          5    1    5    5  501    0 -0.78741811473E+02  0.16248589490E+02  0.45545789221E+02  0.92524582951E+02  0.47000000000E+01 0. -1.
        -13    1    6    6    0    0  0.12469356128E+02  0.15179768511E+02  0.58126051562E-01  0.19644683580E+02  0.00000000000E+00 0.  1.
         14    1    6    6    0    0  0.22063088927E+02 -0.46329843283E+02  0.12419038754E+03  0.13437442699E+03  0.00000000000E+00 0. -1.
         -5    1    3    3    0  503  0.42130824286E+02  0.24377149280E+02 -0.24878071402E+03  0.25354128940E+03  0.47000000000E+01 0.  1.
         11    1    4    4    0    0  0.39522884101E+01 -0.30575689461E+02 -0.64938006554E+02  0.71884894553E+02  0.00000000000E+00 0. -1.
        -12    1    4    4    0    0 -0.18737462789E+01  0.21100025462E+02  0.11592996126E+02  0.24147868618E+02  0.00000000000E+00 0.  1.
</event>
<event>
12    1  0.8251070E-002  0.2013137E+03  0.7818608E-02  0.1148648E+00
         21   -1    0    0  501  502  0.00000000000E+00  0.00000000000E+00  0.70928849834E+02  0.70928849834E+02  0.00000000000E+00 0. -1.
         21   -1    0    0  502  503 -0.00000000000E+00 -0.00000000000E+00 -0.58692500823E+03  0.58692500823E+03  0.00000000000E+00 0. -1.
         -6    2    1    2    0  503 -0.10613842874E+03  0.12274971549E+02 -0.31186197049E+03  0.37119413457E+03  0.17061991654E+03 0.  0.
        -24    2    3    3    0    0 -0.81702339322E+02 -0.18498781206E+00 -0.32189199946E+03  0.34161264484E+03  0.80058936566E+02 0.  0.
          6    2    1    2  501    0  0.10613842874E+03 -0.12274971549E+02 -0.20413418791E+03  0.28665972349E+03  0.17054908213E+03 0.  0.
         24    2    5    5    0    0  0.12233430430E+03 -0.45674870782E+02 -0.11987133366E+03  0.19446331218E+03  0.79968539561E+02 0.  0.
          5    1    5    5  501    0 -0.16195875555E+02  0.33399899233E+02 -0.84262854245E+02  0.92196411315E+02  0.47000000000E+01 0. -1.
        -13    1    6    6    0    0  0.93746588074E+01  0.20248493365E+02 -0.18624802373E+02  0.29064909681E+02  0.00000000000E+00 0.  1.
         14    1    6    6    0    0  0.11295964549E+03 -0.65923364147E+02 -0.10124653129E+03  0.16539840249E+03  0.00000000000E+00 0. -1.
         -5    1    3    3    0  503 -0.24436089421E+02  0.12459959361E+02  0.10030028977E+02  0.29581489731E+02  0.47000000000E+01 0.  1.
         11    1    4    4    0    0 -0.49503432641E+02  0.36076322958E+02 -0.13031580746E+03  0.14399409917E+03  0.00000000000E+00 0. -1.
        -12    1    4    4    0    0 -0.32198906681E+02 -0.36261310770E+02 -0.19157619201E+03  0.19761854567E+03  0.00000000000E+00 0.  1.
</event>
<event>
12    1  0.8251070E-002  0.2201906E+03  0.7818608E-02  0.1134227E+00
         21   -1    0    0  501  502  0.00000000000E+00  0.00000000000E+00  0.55537831468E+03  0.55537831468E+03  0.00000000000E+00 0.  1.
         21   -1    0    0  502  503 -0.00000000000E+00 -0.00000000000E+00 -0.19913809382E+03  0.19913809382E+03  0.00000000000E+00 0.  1.
         -6    2    1    2    0  503 -0.11308982483E+03 -0.73061720503E+02 -0.10635056616E+03  0.24219409912E+03  0.17093921506E+03 0.  0.
        -24    2    3    3    0    0 -0.70125169506E+02 -0.11479101730E+03 -0.89137306043E+02  0.17969864215E+03  0.79067222108E+02 0.  0.
          6    2    1    2  501    0  0.11308982483E+03  0.73061720503E+02  0.46259078702E+03  0.51232230938E+03  0.17423142359E+03 0.  0.
         24    2    5    5    0    0  0.34817229142E+02  0.24422210723E+02  0.90838428895E+02  0.12928927305E+03  0.81580709357E+02 0.  0.
          5    1    5    5  501    0  0.78272595691E+02  0.48639509780E+02  0.37175235813E+03  0.38303303633E+03  0.47000000000E+01 0. -1.
        -13    1    6    6    0    0  0.57717846770E+02  0.34017543702E+02  0.69732336008E+02  0.96701301958E+02  0.00000000000E+00 0.  1.
         14    1    6    6    0    0 -0.22900617628E+02 -0.95953329797E+01  0.21106092887E+02  0.32587971089E+02  0.00000000000E+00 0. -1.
         -5    1    3    3    0  503 -0.42964655327E+02  0.41729296794E+02 -0.17213260115E+02  0.62495456972E+02  0.47000000000E+01 0.  1.
         11    1    4    4    0    0 -0.20209381998E+02 -0.50189249600E+02 -0.81335405369E+02  0.97687399713E+02  0.00000000000E+00 0. -1.
        -12    1    4    4    0    0 -0.49915787508E+02 -0.64601767697E+02 -0.78019006749E+01  0.82011242438E+02  0.00000000000E+00 0.  1.
</event>
<event>
12    1  0.8251070E-002  0.2008993E+03  0.7818608E-02  0.1149533E+00
         21   -1    0    0  501  502  0.00000000000E+00  0.00000000000E+00  0.27651303655E+03  0.27651303655E+03  0.00000000000E+00 0.  1.
         21   -1    0    0  502  503 -0.00000000000E+00 -0.00000000000E+00 -0.14818134862E+03  0.14818134862E+03  0.00000000000E+00 0. -1.
         -6    2    1    2    0  503  0.84686914790E+02  0.54620801673E+02  0.99115712052E+02  0.22168178343E+03  0.17077348511E+03 0.  0.
        -24    2    3    3    0    0  0.71550625382E+02 -0.26674730361E+02  0.29766277282E+02  0.11391834004E+03  0.79122207391E+02 0.  0.
          6    2    1    2  501    0 -0.84686914790E+02 -0.54620801673E+02  0.29215975879E+02  0.20301260173E+03  0.17379654112E+03 0.  0.
         24    2    5    5    0    0 -0.86061614961E+02 -0.10315716887E+03  0.64062750240E+01  0.14916057118E+03  0.64496764068E+02 0.  0.
          5    1    5    5  501    0  0.13747001719E+01  0.48536367201E+02  0.22809700855E+02  0.53852030554E+02  0.47000000000E+01 0. -1.
        -11    1    6    6    0    0  0.47512268578E+00 -0.35930427506E+02  0.15642763909E+02  0.39190782399E+02  0.00000000000E+00 0.  1.
         12    1    6    6    0    0 -0.86536737647E+02 -0.67226741368E+02 -0.92364888853E+01  0.10996978878E+03  0.00000000000E+00 0. -1.
         -5    1    3    3    0  503  0.13136289408E+02  0.81295532035E+02  0.69349434770E+02  0.10776344339E+03  0.47000000000E+01 0.  1.
         13    1    4    4    0    0  0.28631240489E+02  0.21935164365E+02 -0.10527763356E+02  0.37573037792E+02  0.00000000000E+00 0. -1.
        -14    1    4    4    0    0  0.42919384893E+02 -0.48609894726E+02  0.40294040637E+02  0.76345302250E+02  0.00000000000E+00 0.  1.
</event>
<event>
12    1  0.8251070E-002  0.3155098E+03  0.7818608E-02  0.1077914E+00
         21   -1    0    0  503  502  0.00000000000E+00  0.00000000000E+00  0.27886700855E+03  0.27886700855E+03  0.00000000000E+00 0. -1.
         21   -1    0    0  501  503 -0.00000000000E+00 -0.00000000000E+00 -0.36268081403E+03  0.36268081403E+03  0.00000000000E+00 0.  1.
          6    2    1    2  501    0 -0.11425375292E+03  0.23713695710E+03 -0.87740032243E+02  0.32601355389E+03  0.17116853562E+03 0.  0.
         24    2    3    3    0    0 -0.57965199555E+02  0.96436108556E+02 -0.10463395540E+03  0.17345987593E+03  0.80499543736E+02 0.  0.
         -6    2    1    2    0  502  0.11425375292E+03 -0.23713695710E+03  0.39262267676E+01  0.31553426869E+03  0.17395000140E+03 0.  0.
        -24    2    5    5    0    0  0.10157201502E+03 -0.24973519065E+03 -0.26911867471E+02  0.27958124349E+03  0.68970163264E+02 0.  0.
          5    1    3    3  501    0 -0.56288553361E+02  0.14070084854E+03  0.16893923160E+02  0.15255367796E+03  0.47000000000E+01 0. -1.
        -13    1    4    4    0    0 -0.77760725673E+02  0.82758565487E+02 -0.79211069768E+02  0.13845614538E+03  0.00000000000E+00 0.  1.
         14    1    4    4    0    0  0.19795526118E+02  0.13677543068E+02 -0.25422885635E+02  0.35003730554E+02  0.00000000000E+00 0. -1.
         -5    1    5    5    0  502  0.12681737898E+02  0.12598233552E+02  0.30838094239E+02  0.35953025200E+02  0.47000000000E+01 0.  1.
         13    1    6    6    0    0  0.32640979977E+02 -0.13216918791E+03  0.15085311557E+02  0.13697333474E+03  0.00000000000E+00 0. -1.
        -14    1    6    6    0    0  0.68931035042E+02 -0.11756600274E+03 -0.41997179028E+02  0.14260790875E+03  0.00000000000E+00 0.  1.
</event>
<event>
12    1  0.8251070E-002  0.1985977E+03  0.7818608E-02  0.1150943E+00
         21   -1    0    0  503  502  0.00000000000E+00  0.00000000000E+00  0.92381954042E+03  0.92381954042E+03  0.00000000000E+00 0. -1.
         21   -1    0    0  501  503 -0.00000000000E+00 -0.00000000000E+00 -0.15449387610E+03  0.15449387610E+03  0.00000000000E+00 0. -1.
          6    2    1    2  501    0  0.97584413983E+02  0.11624747818E+02 -0.74038587989E+02  0.21188147934E+03  0.17249404674E+03 0.  0.
         24    2    3    3    0    0  0.11324504800E+03  0.22983438731E+02 -0.30035357679E+01  0.13810923550E+03  0.75580819992E+02 0.  0.
         -6    2    1    2    0  502 -0.97584413983E+02 -0.11624747818E+02  0.84336425230E+03  0.86643193717E+03  0.17257806082E+03 0.  0.
        -24    2    5    5    0    0 -0.48005402567E+02 -0.34376854017E+02  0.22966206129E+03  0.25029217546E+03  0.80095093065E+02 0.  0.
          5    1    3    3  501    0 -0.15660634020E+02 -0.11358690913E+02 -0.71035052221E+02  0.73772243840E+02  0.47000000000E+01 0. -1.
        -13    1    4    4    0    0  0.82365884232E+02 -0.15597468532E+02 -0.19396596363E+02  0.86044452816E+02  0.00000000000E+00 0.  1.
         14    1    4    4    0    0  0.30879163770E+02  0.38580907263E+02  0.16393060595E+02  0.52064782685E+02  0.00000000000E+00 0. -1.
         -5    1    5    5    0  502 -0.49579011415E+02  0.22752106199E+02  0.61370219102E+03  0.61613976172E+03  0.47000000000E+01 0.  1.
         13    1    6    6    0    0  0.13036476594E+02 -0.26024501343E+02  0.12923693561E+03  0.13247418586E+03  0.00000000000E+00 0. -1.
        -14    1    6    6    0    0 -0.61041879161E+02 -0.83523526736E+01  0.10042512568E+03  0.11781798960E+03  0.00000000000E+00 0.  1.
</event>
<event>
12    1  0.8251070E-002  0.1808471E+03  0.7818608E-02  0.1167592E+00
         21   -1    0    0  503  502  0.00000000000E+00  0.00000000000E+00  0.24400822805E+03  0.24400822805E+03  0.00000000000E+00 0. -1.
         21   -1    0    0  501  503 -0.00000000000E+00 -0.00000000000E+00 -0.13413963040E+03  0.13413963040E+03  0.00000000000E+00 0. -1.
          6    2    1    2  501    0 -0.21331146374E+02  0.54713264726E+02  0.31737334189E+02  0.18114492172E+03  0.16839734303E+03 0.  0.
         24    2    3    3    0    0 -0.71310413648E+02  0.60893433450E+02  0.49791328048E+01  0.12392418261E+03  0.80865480519E+02 0.  0.
         -6    2    1    2    0  502  0.21331146374E+02 -0.54713264726E+02  0.78131263462E+02  0.19700293673E+03  0.17104708009E+03 0.  0.
        -24    2    5    5    0    0  0.23120266408E+02 -0.77620931800E+01 -0.22256548948E+02  0.86064141256E+02  0.79478837622E+02 0.  0.
          5    1    3    3  501    0  0.49979267275E+02 -0.61801687236E+01  0.26758201384E+02  0.57220739108E+02  0.47000000000E+01 0. -1.
        -13    1    4    4    0    0  0.12241230833E+02  0.24490222864E+02 -0.14121601248E+02  0.30806466367E+02  0.00000000000E+00 0.  1.
         14    1    4    4    0    0 -0.83551644481E+02  0.36403210586E+02  0.19100734053E+02  0.93117716240E+02  0.00000000000E+00 0. -1.
         -5    1    5    5    0  502 -0.17891200348E+01 -0.46951171546E+02  0.10038781241E+03  0.11093879547E+03  0.47000000000E+01 0.  1.
         13    1    6    6    0    0  0.28148465009E+02 -0.24536161730E+02  0.18523614266E+02  0.41683133284E+02  0.00000000000E+00 0. -1.
        -14    1    6    6    0    0 -0.50281986009E+01  0.16774068550E+02 -0.40780163214E+02  0.44381007973E+02  0.00000000000E+00 0.  1.
</event>
<event>
12    1  0.8251070E-002  0.2134602E+03  0.7818608E-02  0.1140540E+00
         21   -1    0    0  501  502  0.00000000000E+00  0.00000000000E+00  0.84796313391E+02  0.84796313391E+02  0.00000000000E+00 0.  1.
         21   -1    0    0  502  503 -0.00000000000E+00 -0.00000000000E+00 -0.81155644012E+03  0.81155644012E+03  0.00000000000E+00 0. -1.
         -6    2    1    2    0  503  0.88520466989E+02  0.89251371712E+02 -0.62904103548E+03  0.66158842414E+03  0.16187939403E+03 0.  0.
        -24    2    3    3    0    0  0.57465093390E+02  0.58734473841E+02 -0.19891924913E+03  0.22924300856E+03  0.78939938695E+02 0.  0.
          6    2    1    2  501    0 -0.88520466989E+02 -0.89251371712E+02 -0.97719091252E+02  0.23476432937E+03  0.17252127151E+03 0.  0.
         24    2    5    5    0    0 -0.10487626628E+03 -0.97466805021E+02 -0.12154636394E+03  0.20435323865E+03  0.80547614782E+02 0.  0.
          5    1    5    5  501    0  0.16355799296E+02  0.82154333086E+01  0.23827272693E+02  0.30411090724E+02  0.47000000000E+01 0. -1.
        -11    1    6    6    0    0 -0.46681113100E+02  0.26574844719E+01 -0.48841825773E+02  0.67614439943E+02  0.00000000000E+00 0.  1.
         12    1    6    6    0    0 -0.58195153185E+02 -0.10012428949E+03 -0.72704538171E+02  0.13673879870E+03  0.00000000000E+00 0. -1.
         -5    1    3    3    0  503  0.31055373598E+02  0.30516897871E+02 -0.43012178635E+03  0.43234541558E+03  0.47000000000E+01 0.  1.
         11    1    4    4    0    0  0.19699229520E+02  0.34894431570E+02 -0.17305414598E+03  0.17763281915E+03  0.00000000000E+00 0. -1.
        -12    1    4    4    0    0  0.37765863870E+02  0.23840042271E+02 -0.25865103148E+02  0.51610189403E+02  0.00000000000E+00 0.  1.
</event>
<event>
12    1  0.8251070E-002  0.2144973E+03  0.7818608E-02  0.1141154E+00
         21   -1    0    0  501  502  0.00000000000E+00  0.00000000000E+00  0.28346803945E+03  0.28346803945E+03  0.00000000000E+00 0.  1.
         21   -1    0    0  502  503 -0.00000000000E+00 -0.00000000000E+00 -0.19882057035E+03  0.19882057035E+03  0.00000000000E+00 0.  1.
         -6    2    1    2    0  503  0.18947991671E+01  0.10041757604E+03 -0.77307919142E+02  0.21351614030E+03  0.17182941530E+03 0.  0.
        -24    2    3    3    0    0  0.10896046881E+02 -0.45541000498E+01  0.62762731339E+01  0.78948378774E+02  0.77807398373E+02 0.  0.
          6    2    1    2  501    0 -0.18947991671E+01 -0.10041757604E+03  0.16195538824E+03  0.26877246950E+03  0.18953050608E+03 0.  0.
         24    2    5    5    0    0 -0.38097526283E+02  0.16146690950E+02  0.45945796758E+02  0.10031422213E+03  0.78992340031E+02 0.  0.
          5    1    5    5  501    0  0.36202727116E+02 -0.11656426699E+03  0.11600959149E+03  0.16845824737E+03  0.47000000000E+01 0. -1.
        -13    1    6    6    0    0 -0.18700171623E+02  0.33231436034E+02  0.59848673662E+02  0.70963994382E+02  0.00000000000E+00 0.  1.
         14    1    6    6    0    0 -0.19397354660E+02 -0.17084745085E+02 -0.13902876904E+02  0.29350227744E+02  0.00000000000E+00 0. -1.
         -5    1    3    3    0  503 -0.90012477136E+01  0.10497167609E+03 -0.83584192276E+02  0.13456776152E+03  0.47000000000E+01 0.  1.
         13    1    4    4    0    0 -0.28699861608E+02 -0.14152890411E+02  0.17786780237E+02  0.36610871534E+02  0.00000000000E+00 0. -1.
        -14    1    4    4    0    0  0.39595908489E+02  0.95987903613E+01 -0.11510507103E+02  0.42337507239E+02  0.00000000000E+00 0.  1.
</event>
<event>
12    1  0.8251070E-002  0.1938416E+03  0.7818608E-02  0.1155054E+00
         21   -1    0    0  503  502  0.00000000000E+00  0.00000000000E+00  0.77136841604E+02  0.77136841604E+02  0.00000000000E+00 0. -1.
         21   -1    0    0  501  503 -0.00000000000E+00 -0.00000000000E+00 -0.51505740407E+03  0.51505740407E+03  0.00000000000E+00 0. -1.
          6    2    1    2  501    0 -0.75500690684E+02 -0.43925457052E+02 -0.28813780465E+03  0.34727217023E+03  0.17304555954E+03 0.  0.
         24    2    3    3    0    0 -0.57144489258E+02 -0.44095955111E+02 -0.73647158104E+02  0.13194612291E+03  0.82316034551E+02 0.  0.
         -6    2    1    2    0  502  0.75500690684E+02  0.43925457052E+02 -0.14978275781E+03  0.24492207544E+03  0.17298019664E+03 0.  0.
        -24    2    5    5    0    0  0.11230256530E+02  0.82948894540E+02 -0.11316503900E+03  0.16115773511E+03  0.78478352217E+02 0.  0.
          5    1    3    3  501    0 -0.18356201426E+02  0.17049805846E+00 -0.21449064654E+03  0.21532604732E+03  0.47000000000E+01 0. -1.
        -13    1    4    4    0    0 -0.90365395762E+01 -0.23266406442E+02  0.14881950086E+02  0.29059544983E+02  0.00000000000E+00 0.  1.
         14    1    4    4    0    0 -0.48107949682E+02 -0.20829548669E+02 -0.88529108191E+02  0.10288657793E+03  0.00000000000E+00 0. -1.
         -5    1    5    5    0  502  0.64270434154E+02 -0.39023437488E+02 -0.36617718811E+02  0.83764340328E+02  0.47000000000E+01 0.  1.
         13    1    6    6    0    0  0.30698441619E+02  0.13242609648E+02 -0.95516817522E+01  0.34770614784E+02  0.00000000000E+00 0. -1.
        -14    1    6    6    0    0 -0.19468185089E+02  0.69706284892E+02 -0.10361335725E+03  0.12638712033E+03  0.00000000000E+00 0.  1.
</event>
<event>
12    1  0.8251070E-002  0.2616587E+03  0.7818608E-02  0.1106425E+00
         21   -1    0    0  503  502  0.00000000000E+00  0.00000000000E+00  0.15404494160E+03  0.15404494160E+03  0.00000000000E+00 0. -1.
         21   -1    0    0  501  503 -0.00000000000E+00 -0.00000000000E+00 -0.58812131086E+03  0.58812131086E+03  0.00000000000E+00 0.  1.
          6    2    1    2  501    0  0.19528280958E+01 -0.19591736723E+03 -0.40184922977E+03  0.47853040068E+03  0.17064909195E+03 0.  0.
         24    2    3    3    0    0 -0.48776605401E+02 -0.14475861825E+03 -0.35039802121E+03  0.38987370390E+03  0.76736672692E+02 0.  0.
         -6    2    1    2    0  502 -0.19528280958E+01  0.19591736723E+03 -0.32227139491E+02  0.26363585178E+03  0.17342965577E+03 0.  0.
        -24    2    5    5    0    0 -0.47333138451E+01  0.10371996027E+03  0.50614541876E+02  0.13956761602E+03  0.78339346275E+02 0.  0.
          5    1    3    3  501    0  0.50729433497E+02 -0.51158748983E+02 -0.51451208558E+02  0.88656696772E+02  0.47000000000E+01 0. -1.
        -13    1    4    4    0    0 -0.45548823765E+02 -0.34201444060E+02 -0.15794490691E+03  0.16790183960E+03  0.00000000000E+00 0.  1.
         14    1    4    4    0    0 -0.32277816362E+01 -0.11055717419E+03 -0.19245311430E+03  0.22197186431E+03  0.00000000000E+00 0. -1.
         -5    1    5    5    0  502  0.27804857493E+01  0.92197406963E+02 -0.82841681367E+02  0.12406823576E+03  0.47000000000E+01 0.  1.
         11    1    6    6    0    0  0.28479341076E+02  0.89528247274E+02  0.36567474068E+02  0.10081448352E+03  0.00000000000E+00 0. -1.
        -12    1    6    6    0    0 -0.33212654921E+02  0.14191712995E+02  0.14047067807E+02  0.38753132500E+02  0.00000000000E+00 0.  1.
</event>
<event>
12    1  0.8251070E-002  0.1804217E+03  0.7818608E-02  0.1167814E+00
         21   -1    0    0  501  502  0.00000000000E+00  0.00000000000E+00  0.14208327959E+04  0.14208327959E+04  0.00000000000E+00 0.  1.
         21   -1    0    0  502  503 -0.00000000000E+00 -0.00000000000E+00 -0.23460360801E+02  0.23460360801E+02  0.00000000000E+00 0. -1.
         -6    2    1    2    0  503  0.37541194106E+02  0.31331083756E+02  0.57121972551E+03  0.59903586410E+03  0.17366926501E+03 0.  0.
        -24    2    3    3    0    0 -0.23615336622E+02  0.11915799367E+02  0.48062325469E+03  0.48791932599E+03  0.79792764849E+02 0.  0.
          6    2    1    2  501    0 -0.37541194106E+02 -0.31331083756E+02  0.82615270958E+03  0.84525729259E+03  0.17187382890E+03 0.  0.
         24    2    5    5    0    0 -0.79516969521E+02  0.26342873659E+01  0.68235986977E+03  0.69158854840E+03  0.79685886476E+02 0.  0.
          5    1    5    5  501    0  0.41975775416E+02 -0.33965371122E+02  0.14379283981E+03  0.15366874418E+03  0.47000000000E+01 0. -1.
        -11    1    6    6    0    0 -0.23681145272E+02 -0.34274779272E+02  0.35648456390E+03  0.35891057582E+03  0.00000000000E+00 0.  1.
         12    1    6    6    0    0 -0.55835824250E+02  0.36909066637E+02  0.32587530587E+03  0.33267797259E+03  0.00000000000E+00 0. -1.
         -5    1    3    3    0  503  0.61156530728E+02  0.19415284390E+02  0.90596470817E+02  0.11111653812E+03  0.47000000000E+01 0.  1.
         13    1    4    4    0    0 -0.35082438230E+02  0.25503755605E+02  0.13409102756E+03  0.14093126940E+03  0.00000000000E+00 0. -1.
        -14    1    4    4    0    0  0.11467101607E+02 -0.13587956238E+02  0.34653222713E+03  0.34698805659E+03  0.00000000000E+00 0.  1.
</event>
<event>
12    1  0.8251070E-002  0.1975775E+03  0.7818608E-02  0.1151990E+00
         21   -1    0    0  501  502  0.00000000000E+00  0.00000000000E+00  0.21943369007E+04  0.21943369007E+04  0.00000000000E+00 0. -1.
         21   -1    0    0  502  503 -0.00000000000E+00 -0.00000000000E+00 -0.22026250763E+02  0.22026250763E+02  0.00000000000E+00 0. -1.
         -6    2    1    2    0  503  0.27066287759E+02  0.93914175281E+02  0.59363294585E+03  0.62536969859E+03  0.17068898399E+03 0.  0.
        -24    2    3    3    0    0  0.38163045342E+02  0.36234840894E+02  0.15127360078E+03  0.17910304756E+03  0.80154960100E+02 0.  0.
          6    2    1    2  501    0 -0.27066287759E+02 -0.93914175281E+02  0.15786777041E+04  0.15909934529E+04  0.17171027188E+03 0.  0.
         24    2    5    5    0    0  0.50214545268E+02 -0.38858913576E+02  0.95122514454E+03  0.95638947126E+03  0.76289117344E+02 0.  0.
          5    1    5    5  501    0 -0.77280833027E+02 -0.55055261705E+02  0.62745255957E+03  0.63460398164E+03  0.47000000000E+01 0. -1.
        -13    1    6    6    0    0  0.34421223343E+02  0.70894054962E+01  0.16685261847E+03  0.17051356714E+03  0.00000000000E+00 0.  1.
         14    1    6    6    0    0  0.15793321925E+02 -0.45948319072E+02  0.78437252606E+03  0.78587590413E+03  0.00000000000E+00 0. -1.
         -5    1    3    3    0  503 -0.11096757583E+02  0.57679334386E+02  0.44235934507E+03  0.44626665102E+03  0.47000000000E+01 0.  1.
         11    1    4    4    0    0 -0.20252230284E+02  0.12072342441E+02  0.12674347384E+02  0.26768140860E+02  0.00000000000E+00 0. -1.
        -12    1    4    4    0    0  0.58415275626E+02  0.24162498453E+02  0.13859925340E+03  0.15233490670E+03  0.00000000000E+00 0.  1.
</event>
<event>
12    1  0.8251070E-002  0.1795119E+03  0.7818608E-02  0.1169971E+00
         21   -1    0    0  503  502  0.00000000000E+00  0.00000000000E+00  0.12677294674E+04  0.12677294674E+04  0.00000000000E+00 0. -1.
         21   -1    0    0  501  503 -0.00000000000E+00 -0.00000000000E+00 -0.38544514346E+02  0.38544514346E+02  0.00000000000E+00 0. -1.
          6    2    1    2  501    0 -0.34982561604E+02 -0.36729459668E+02  0.21225614488E+03  0.27362267085E+03  0.16505714811E+03 0.  0.
         24    2    3    3    0    0 -0.38932402883E+02 -0.42379047457E+02  0.47594697768E+02  0.10874998891E+03  0.79054343168E+02 0.  0.
         -6    2    1    2    0  502  0.34982561604E+02  0.36729459668E+02  0.10169288082E+04  0.10326513109E+04  0.17219667873E+03 0.  0.
        -24    2    5    5    0    0  0.36340129372E+02 -0.44607485690E+02  0.57887873776E+03  0.58708706652E+03  0.79121412173E+02 0.  0.
          5    1    3    3  501    0  0.39498412787E+01  0.56495877895E+01  0.16466144711E+03  0.16487268195E+03  0.47000000000E+01 0. -1.
        -13    1    4    4    0    0  0.15740363966E+02 -0.40020772176E+02  0.22731111594E+02  0.48642827813E+02  0.00000000000E+00 0.  1.
         14    1    4    4    0    0 -0.54672766848E+02 -0.23582752812E+01  0.24863586174E+02  0.60107161092E+02  0.00000000000E+00 0. -1.
         -5    1    5    5    0  502 -0.13575677678E+01  0.81336945358E+02  0.43805007045E+03  0.44556424440E+03  0.47000000000E+01 0.  1.
         13    1    6    6    0    0  0.47774720107E+02  0.39373400949E+01  0.28958044771E+03  0.29352131477E+03  0.00000000000E+00 0. -1.
        -14    1    6    6    0    0 -0.11434590735E+02 -0.48544825785E+02  0.28929829005E+03  0.29356575176E+03  0.00000000000E+00 0.  1.
</event>
<event>
12    1  0.8251070E-002  0.1740541E+03  0.7818608E-02  0.1174230E+00
         21   -1    0    0  501  502  0.00000000000E+00  0.00000000000E+00  0.16295417990E+03  0.16295417990E+03  0.00000000000E+00 0. -1.
         21   -1    0    0  502  503 -0.00000000000E+00 -0.00000000000E+00 -0.19463772155E+03  0.19463772155E+03  0.00000000000E+00 0. -1.
         -6    2    1    2    0  503  0.23142177207E+02  0.17432219827E+01  0.26589709411E+02  0.17607341313E+03  0.17249995645E+03 0.  0.
        -24    2    3    3    0    0  0.26844426358E+02  0.49812808896E+02  0.67770185739E+02  0.11249422263E+03  0.69715227121E+02 0.  0.
          6    2    1    2  501    0 -0.23142177207E+02 -0.17432219827E+01 -0.58273251058E+02  0.18151848832E+03  0.17033669782E+03 0.  0.
         24    2    5    5    0    0 -0.55064402017E+02 -0.20369413000E+02  0.12173154540E+02  0.10182689849E+03  0.82301459337E+02 0.  0.
          5    1    5    5  501    0  0.31922224810E+02  0.18626191018E+02 -0.70446405599E+02  0.79691589835E+02  0.47000000000E+01 0. -1.
        -13    1    6    6    0    0  0.13394210499E+02  0.13667135494E+02 -0.10829935409E+02  0.21988246144E+02  0.00000000000E+00 0.  1.
         14    1    6    6    0    0 -0.68458612517E+02 -0.34036548494E+02  0.23003089950E+02  0.79838652345E+02  0.00000000000E+00 0. -1.
         -5    1    3    3    0  503 -0.37022491508E+01 -0.48069586913E+02 -0.41180476328E+02  0.63579190506E+02  0.47000000000E+01 0.  1.
         13    1    4    4    0    0  0.83198097995E+01 -0.13652962263E+02  0.35480532939E+02  0.38916459645E+02  0.00000000000E+00 0. -1.
        -14    1    4    4    0    0  0.18524616558E+02  0.63465771159E+02  0.32289652800E+02  0.73577762982E+02  0.00000000000E+00 0.  1.
</event>
<event>
12    1  0.8251070E-002  0.2005538E+03  0.7818608E-02  0.1149681E+00
         21   -1    0    0  503  502  0.00000000000E+00  0.00000000000E+00  0.16011827610E+03  0.16011827610E+03  0.00000000000E+00 0.  1.
         21   -1    0    0  501  503 -0.00000000000E+00 -0.00000000000E+00 -0.25417732249E+03  0.25417732249E+03  0.00000000000E+00 0. -1.
          6    2    1    2  501    0 -0.86148160121E+02  0.50285862876E+02 -0.77425959524E+02  0.21498050023E+03  0.17398753626E+03 0.  0.
         24    2    3    3    0    0 -0.12863873741E+02 -0.34254013428E+02 -0.23789784745E+02  0.90817274755E+02  0.79642996253E+02 0.  0.
         -6    2    1    2    0  502  0.86148160121E+02 -0.50285862876E+02 -0.16633086868E+02  0.19931509836E+03  0.17175469530E+03 0.  0.
        -24    2    5    5    0    0 -0.44944229739E+00 -0.64089202591E+02 -0.37751840158E+02  0.10899473148E+03  0.79668200484E+02 0.  0.
          5    1    3    3  501    0 -0.73284286380E+02  0.84539876304E+02 -0.53636174778E+02  0.12416322548E+03  0.47000000000E+01 0. -1.
        -13    1    4    4    0    0 -0.39719120086E+02  0.37297731004E+01 -0.18578624448E+02  0.44007783336E+02  0.00000000000E+00 0.  1.
         14    1    4    4    0    0  0.26855246345E+02 -0.37983786528E+02 -0.52111602975E+01  0.46809491419E+02  0.00000000000E+00 0. -1.
         -5    1    5    5    0  502  0.86597602419E+02  0.13803339715E+02  0.21118753290E+02  0.90320366875E+02  0.47000000000E+01 0.  1.
         13    1    6    6    0    0  0.14794343937E+02  0.11464651813E+02 -0.24430079452E+02  0.30775633799E+02  0.00000000000E+00 0. -1.
        -14    1    6    6    0    0 -0.15243786234E+02 -0.75553854404E+02 -0.13321760706E+02  0.78219097683E+02  0.00000000000E+00 0.  1.
</event>
<event>
12    1  0.8251070E-002  0.1788718E+03  0.7818608E-02  0.1169051E+00
         21   -1    0    0  503  502  0.00000000000E+00  0.00000000000E+00  0.19387046204E+03  0.19387046204E+03  0.00000000000E+00 0.  1.
         21   -1    0    0  501  503 -0.00000000000E+00 -0.00000000000E+00 -0.24647699258E+03  0.24647699258E+03  0.00000000000E+00 0.  1.
          6    2    1    2  501    0 -0.14533554922E+02 -0.42398276113E+02 -0.15327965226E+03  0.23509099235E+03  0.17252328785E+03 0.  0.
         24    2    3    3    0    0  0.43359009507E+02 -0.56424824252E+02 -0.58693226124E+02  0.12321170437E+03  0.81685156568E+02 0.  0.
         -6    2    1    2    0  502  0.14533554922E+02  0.42398276113E+02  0.10067312171E+03  0.20525646228E+03  0.17316552727E+03 0.  0.
        -24    2    5    5    0    0  0.38022964498E+02  0.39251543209E+02  0.13314851119E+03  0.16477936737E+03  0.80232689135E+02 0.  0.
          5    1    3    3  501    0 -0.57892564430E+02  0.14026548139E+02 -0.94586426136E+02  0.11187928798E+03  0.47000000000E+01 0. -1.
        -13    1    4    4    0    0 -0.60740464460E+01 -0.20790693651E+02 -0.58384862194E+02  0.62273101064E+02  0.00000000000E+00 0.  1.
         14    1    4    4    0    0  0.49433055953E+02 -0.35634130601E+02 -0.30836392979E+00  0.60938603306E+02  0.00000000000E+00 0. -1.
         -5    1    5    5    0  502 -0.23489409576E+02  0.31467329040E+01 -0.32475389477E+02  0.40477094904E+02  0.47000000000E+01 0.  1.
         11    1    6    6    0    0  0.28420719550E+02  0.60099439266E+02  0.65434936898E+02  0.93281353264E+02  0.00000000000E+00 0. -1.
        -12    1    6    6    0    0  0.96022449482E+01 -0.20847896057E+02  0.67713574291E+02  0.71498014108E+02  0.00000000000E+00 0.  1.
</event>
<event>
12    1  0.8251070E-002  0.2679884E+03  0.7818608E-02  0.1102497E+00
         21   -1    0    0  503  502  0.00000000000E+00  0.00000000000E+00  0.12098451850E+03  0.12098451850E+03  0.00000000000E+00 0. -1.
         21   -1    0    0  501  503 -0.00000000000E+00 -0.00000000000E+00 -0.62121180617E+03  0.62121180617E+03  0.00000000000E+00 0.  1.
          6    2    1    2  501    0 -0.13459312383E+03  0.15562619807E+03 -0.17078086221E+03  0.31777962418E+03  0.17170603990E+03 0.  0.
         24    2    3    3    0    0 -0.88475454208E+02  0.26776298264E+02 -0.35974742851E+02  0.12562365641E+03  0.77085957093E+02 0.  0.
         -6    2    1    2    0  502  0.13459312383E+03 -0.15562619807E+03 -0.32944642546E+03  0.42441670050E+03  0.17105486228E+03 0.  0.
        -24    2    5    5    0    0  0.13280373008E+03 -0.17903298452E+03 -0.26333307679E+03  0.35410208997E+03  0.79714117427E+02 0.  0.
          5    1    3    3  501    0 -0.46117669621E+02  0.12884989980E+03 -0.13480611936E+03  0.19215596776E+03  0.47000000000E+01 0. -1.
        -13    1    4    4    0    0 -0.20997436913E+02  0.33324125433E+02  0.13564144208E+02  0.41657840809E+02  0.00000000000E+00 0.  1.
         14    1    4    4    0    0 -0.67478017295E+02 -0.65478271687E+01 -0.49538887059E+02  0.83965815602E+02  0.00000000000E+00 0. -1.
         -5    1    5    5    0  502  0.17893937515E+01  0.23406786459E+02 -0.66113348666E+02  0.70314610531E+02  0.47000000000E+01 0.  1.
         13    1    6    6    0    0  0.76913970904E+02 -0.50150871534E+02 -0.71719232056E+02  0.11650972956E+03  0.00000000000E+00 0. -1.
        -14    1    6    6    0    0  0.55889759174E+02 -0.12888211299E+03 -0.19161384473E+03  0.23759236041E+03  0.00000000000E+00 0.  1.
</event>
<event>
12    1  0.8251070E-002  0.1949072E+03  0.7818608E-02  0.1154518E+00
         21   -1    0    0  503  502  0.00000000000E+00  0.00000000000E+00  0.27155460881E+03  0.27155460881E+03  0.00000000000E+00 0.  1.
         21   -1    0    0  501  503 -0.00000000000E+00 -0.00000000000E+00 -0.26231122096E+03  0.26231122096E+03  0.00000000000E+00 0.  1.
          6    2    1    2  501    0 -0.14850720170E+02 -0.84881360334E+02 -0.17871232071E+03  0.26443695461E+03  0.17482396909E+03 0.  0.
         24    2    3    3    0    0 -0.13223167566E+02 -0.91252367536E+02 -0.20430376896E+03  0.23759946435E+03  0.78813886514E+02 0.  0.
         -6    2    1    2    0  502  0.14850720170E+02  0.84881360334E+02  0.18795570857E+03  0.26942887516E+03  0.17274021294E+03 0.  0.
        -24    2    5    5    0    0 -0.70315745015E+01  0.11769777782E+03  0.17974567019E+03  0.22886723309E+03  0.78546129675E+02 0.  0.
          5    1    3    3  501    0 -0.16275526036E+01  0.63710072024E+01  0.25591448245E+02  0.26837490261E+02  0.47000000000E+01 0. -1.
        -13    1    4    4    0    0 -0.60191012169E+01 -0.95967580064E+02 -0.12438593395E+03  0.15721916730E+03  0.00000000000E+00 0.  1.
         14    1    4    4    0    0 -0.72040663491E+01  0.47152125275E+01 -0.79917835004E+02  0.80380297044E+02  0.00000000000E+00 0. -1.
         -5    1    5    5    0  502  0.21882294671E+02 -0.32816417491E+02  0.82100383778E+01  0.40561642067E+02  0.47000000000E+01 0.  1.
         13    1    6    6    0    0  0.12931641611E+02  0.64784284633E+02  0.37897380323E+02  0.76160635012E+02  0.00000000000E+00 0. -1.
        -14    1    6    6    0    0 -0.19963216112E+02  0.52913493192E+02  0.14184828987E+03  0.15270659808E+03  0.00000000000E+00 0.  1.
</event>
<event>
12    1  0.8251070E-002  0.2389293E+03  0.7818608E-02  0.1120622E+00
         21   -1    0    0  501  502  0.00000000000E+00  0.00000000000E+00  0.47017949210E+03  0.47017949210E+03  0.00000000000E+00 0. -1.
         21   -1    0    0  502  503 -0.00000000000E+00 -0.00000000000E+00 -0.12529102276E+03  0.12529102276E+03  0.00000000000E+00 0. -1.
         -6    2    1    2    0  503  0.15533807835E+03  0.51551642453E+02  0.22731872843E+03  0.32978938454E+03  0.17406821488E+03 0.  0.
        -24    2    3    3    0    0  0.61012354594E+02  0.91765453022E+02  0.13464639258E+03  0.19149714125E+03  0.79988113419E+02 0.  0.
          6    2    1    2  501    0 -0.15533807835E+03 -0.51551642453E+02  0.11756974091E+03  0.26568113033E+03  0.17313673385E+03 0.  0.
         24    2    5    5    0    0 -0.13912413824E+03 -0.88726498152E+02  0.12790206835E+03  0.22356570868E+03  0.79967303901E+02 0.  0.
          5    1    5    5  501    0 -0.16213940117E+02  0.37174855699E+02 -0.10332327441E+02  0.42115421650E+02  0.47000000000E+01 0. -1.
        -13    1    6    6    0    0 -0.87398231729E+02 -0.97457036440E+02  0.90889660868E+02  0.15936516343E+03  0.00000000000E+00 0.  1.
         14    1    6    6    0    0 -0.51725906508E+02  0.87305382880E+01  0.37012407481E+02  0.64200545250E+02  0.00000000000E+00 0. -1.
         -5    1    3    3    0  503  0.94325723760E+02 -0.40213810570E+02  0.92672335850E+02  0.13829224329E+03  0.47000000000E+01 0.  1.
         13    1    4    4    0    0  0.70576959393E+02  0.69362106467E+02  0.13469492308E+03  0.16713746233E+03  0.00000000000E+00 0. -1.
        -14    1    4    4    0    0 -0.95646047986E+01  0.22403346555E+02 -0.48530493542E-01  0.24359678918E+02  0.00000000000E+00 0.  1.
</event>
<event>
12    1  0.8251070E-002  0.2670059E+03  0.7818608E-02  0.1103047E+00
         21   -1    0    0  501  502  0.00000000000E+00  0.00000000000E+00  0.30699210126E+03  0.30699210126E+03  0.00000000000E+00 0.  1.
         21   -1    0    0  502  503 -0.00000000000E+00 -0.00000000000E+00 -0.62996818797E+03  0.62996818797E+03  0.00000000000E+00 0.  1.
         -6    2    1    2    0  503 -0.72632115753E+02 -0.19061283576E+03 -0.53382057703E+03  0.59674337310E+03  0.17184169310E+03 0.  0.
        -24    2    3    3    0    0 -0.36670867881E+02 -0.18887677680E+02 -0.16640024031E+03  0.18955479872E+03  0.80873263978E+02 0.  0.
          6    2    1    2  501    0  0.72632115753E+02  0.19061283576E+03  0.21084449032E+03  0.34021691613E+03  0.17228892457E+03 0.  0.
         24    2    5    5    0    0  0.16184089664E+02  0.39475559009E+02  0.23988082586E+02  0.93303443064E+02  0.79434626355E+02 0.  0.
          5    1    5    5  501    0  0.56448026089E+02  0.15113727675E+03  0.18685640773E+03  0.24691347307E+03  0.47000000000E+01 0. -1.
        -13    1    6    6    0    0 -0.25917322534E+01  0.56537500920E+02  0.34005665951E+02  0.66027201994E+02  0.00000000000E+00 0.  1.
         14    1    6    6    0    0  0.18775821917E+02 -0.17061941911E+02 -0.10017583365E+02  0.27276241070E+02  0.00000000000E+00 0. -1.
         -5    1    3    3    0  503 -0.35961247871E+02 -0.17172515808E+03 -0.36742033672E+03  0.40718857437E+03  0.47000000000E+01 0.  1.
         13    1    4    4    0    0 -0.58831612111E+02 -0.92875046827E+01 -0.14689696132E+03  0.15851225055E+03  0.00000000000E+00 0. -1.
        -14    1    4    4    0    0  0.22160744230E+02 -0.96001729972E+01 -0.19503278982E+02  0.31042548179E+02  0.00000000000E+00 0.  1.
</event>
<event>
12    1  0.8251070E-002  0.1885003E+03  0.7818608E-02  0.1159943E+00
         21   -1    0    0  503  502  0.00000000000E+00  0.00000000000E+00  0.10162351349E+03  0.10162351349E+03  0.00000000000E+00 0. -1.
         21   -1    0    0  501  503 -0.00000000000E+00 -0.00000000000E+00 -0.37921584919E+03  0.37921584919E+03  0.00000000000E+00 0. -1.
          6    2    1    2  501    0  0.44919760391E+02  0.61988033524E+02 -0.70360775419E+02  0.20070139578E+03  0.17166860626E+03 0.  0.
         24    2    3    3    0    0 -0.28373986004E+02  0.54777488924E+02 -0.13257632796E+01  0.99647508592E+02  0.78244564960E+02 0.  0.
         -6    2    1    2    0  502 -0.44919760391E+02 -0.61988033524E+02 -0.20723156028E+03  0.28013796690E+03  0.17225579744E+03 0.  0.
        -24    2    5    5    0    0 -0.93336974666E+02 -0.29665619110E+02 -0.16594808559E+03  0.20861607938E+03  0.79937861305E+02 0.  0.
          5    1    3    3  501    0  0.73293746395E+02  0.72105446004E+01 -0.69035012139E+02  0.10105388718E+03  0.47000000000E+01 0. -1.
        -11    1    4    4    0    0 -0.19738422237E+02  0.33800332931E+02 -0.39265961116E+02  0.55442614666E+02  0.00000000000E+00 0.  1.
         12    1    4    4    0    0 -0.86355637674E+01  0.20977155992E+02  0.37940197837E+02  0.44204893926E+02  0.00000000000E+00 0. -1.
         -5    1    5    5    0  502  0.48417214275E+02 -0.32322414414E+02 -0.41283474693E+02  0.71521887520E+02  0.47000000000E+01 0.  1.
         11    1    6    6    0    0 -0.28132902692E+02  0.10916876297E+02 -0.54172469855E+01  0.30659174269E+02  0.00000000000E+00 0. -1.
        -12    1    6    6    0    0 -0.65204071974E+02 -0.40582495407E+02 -0.16053083860E+03  0.17795690511E+03  0.00000000000E+00 0.  1.
</event>
<event>
12    1  0.8251070E-002  0.1946803E+03  0.7818608E-02  0.1154557E+00
         21   -1    0    0  501  502  0.00000000000E+00  0.00000000000E+00  0.92170415040E+03  0.92170415040E+03  0.00000000000E+00 0.  1.
         21   -1    0    0  502  503 -0.00000000000E+00 -0.00000000000E+00 -0.13841656995E+03  0.13841656995E+03  0.00000000000E+00 0.  1.
         -6    2    1    2    0  503  0.89823747727E+02  0.12273002448E+02 -0.53651506739E+02  0.20083760932E+03  0.17099218958E+03 0.  0.
        -24    2    3    3    0    0  0.73923135159E+02 -0.26334422649E+02  0.21833820648E+02  0.11444613171E+03  0.80393218687E+02 0.  0.
          6    2    1    2  501    0 -0.89823747727E+02 -0.12273002448E+02  0.83693908719E+03  0.85928311103E+03  0.17228318837E+03 0.  0.
         24    2    5    5    0    0 -0.24576692613E+02 -0.54958558157E+02  0.65080716216E+03  0.65742569011E+03  0.70951524018E+02 0.  0.
          5    1    5    5  501    0 -0.65247055113E+02  0.42685555709E+02  0.18613192502E+03  0.20185742092E+03  0.47000000000E+01 0. -1.
        -13    1    6    6    0    0  0.63413334054E+01  0.10309887844E+02  0.24097005954E+03  0.24127386077E+03  0.00000000000E+00 0.  1.
         14    1    6    6    0    0 -0.30918026019E+02 -0.65268446001E+02  0.40983710263E+03  0.41615182934E+03  0.00000000000E+00 0. -1.
         -5    1    3    3    0  503  0.15900612568E+02  0.38607425097E+02 -0.75485327387E+02  0.86391477609E+02  0.47000000000E+01 0.  1.
         11    1    4    4    0    0  0.43458855699E+01 -0.33734278414E+02 -0.12840431910E+02  0.36356085504E+02  0.00000000000E+00 0. -1.
        -12    1    4    4    0    0  0.69577249589E+02  0.73998557650E+01  0.34674252559E+02  0.78090046204E+02  0.00000000000E+00 0.  1.
</event>
<event>
12    1  0.8251070E-002  0.2057110E+03  0.7818608E-02  0.1145723E+00
         21   -1    0    0  501  502  0.00000000000E+00  0.00000000000E+00  0.53979890891E+02  0.53979890891E+02  0.00000000000E+00 0.  1.
         21   -1    0    0  502  503 -0.00000000000E+00 -0.00000000000E+00 -0.10227433612E+04  0.10227433612E+04  0.00000000000E+00 0.  1.
         -6    2    1    2    0  503  0.56682330030E+02  0.98103884370E+02 -0.75474030569E+03  0.78227229103E+03  0.17169667911E+03 0.  0.
        -24    2    3    3    0    0 -0.13640989330E+02  0.74193663088E+02 -0.60731001371E+03  0.61712130278E+03  0.79513982169E+02 0.  0.
          6    2    1    2  501    0 -0.56682330030E+02 -0.98103884370E+02 -0.21402316465E+03  0.29445096109E+03  0.16750580531E+03 0.  0.
         24    2    5    5    0    0 -0.70307681710E+02 -0.68334786608E+01 -0.11095322808E+03  0.15602611147E+03  0.83926528000E+02 0.  0.
          5    1    5    5  501    0  0.13625351681E+02 -0.91270405709E+02 -0.10306993657E+03  0.13842484962E+03  0.47000000000E+01 0. -1.
        -11    1    6    6    0    0 -0.16344260102E+02  0.66638083261E+01  0.11817640495E+02  0.21241417245E+02  0.00000000000E+00 0.  1.
         12    1    6    6    0    0 -0.53963421608E+02 -0.13497286987E+02 -0.12277086857E+03  0.13478469423E+03  0.00000000000E+00 0. -1.
         -5    1    3    3    0  503  0.70323319360E+02  0.23910221282E+02 -0.14743029198E+03  0.16515098825E+03  0.47000000000E+01 0.  1.
         11    1    4    4    0    0 -0.11934445287E+02  0.16712191360E+02 -0.26768040861E+02  0.33738054714E+02  0.00000000000E+00 0. -1.
        -12    1    4    4    0    0 -0.17065440433E+01  0.57481471728E+02 -0.58054197285E+03  0.58338324807E+03  0.00000000000E+00 0.  1.
</event>
<event>
12    1  0.8251070E-002  0.1863094E+03  0.7818608E-02  0.1163415E+00
         21   -1    0    0  503  502  0.00000000000E+00  0.00000000000E+00  0.70986640842E+02  0.70986640842E+02  0.00000000000E+00 0. -1.
         21   -1    0    0  501  503 -0.00000000000E+00 -0.00000000000E+00 -0.15683660799E+04  0.15683660799E+04  0.00000000000E+00 0. -1.
          6    2    1    2  501    0  0.20138149794E+02  0.47255320055E+02 -0.14382480506E+04  0.14502650294E+04  0.17908821882E+03 0.  0.
         24    2    3    3    0    0  0.79479408835E+02  0.66292472135E+01 -0.78535997611E+03  0.79341132376E+03  0.79688852672E+02 0.  0.
         -6    2    1    2    0  502 -0.20138149794E+02 -0.47255320055E+02 -0.59131388520E+02  0.18908769140E+03  0.17210178261E+03 0.  0.
        -24    2    5    5    0    0 -0.57070685826E+02 -0.19232563095E+02  0.16948530981E+02  0.99871486160E+02  0.77846685103E+02 0.  0.
          5    1    3    3  501    0 -0.59341259041E+02  0.40626072841E+02 -0.65288807447E+03  0.65685370563E+03  0.47000000000E+01 0. -1.
        -13    1    4    4    0    0  0.56347112274E+01  0.33557311878E+02 -0.25409817917E+03  0.25636639368E+03  0.00000000000E+00 0.  1.
         14    1    4    4    0    0  0.73844697608E+02 -0.26928064664E+02 -0.53126179694E+03  0.53704493007E+03  0.00000000000E+00 0. -1.
         -5    1    5    5    0  502  0.36932536032E+02 -0.28022756960E+02 -0.76079919502E+02  0.89216205236E+02  0.47000000000E+01 0.  1.
         13    1    6    6    0    0 -0.63607797707E+02 -0.14776939510E+02 -0.14962927649E+02  0.66994022675E+02  0.00000000000E+00 0. -1.
        -14    1    6    6    0    0  0.65371118807E+01 -0.44556235853E+01  0.31911458630E+02  0.32877463485E+02  0.00000000000E+00 0.  1.
</event>
<event>
12    1  0.8251070E-002  0.1920669E+03  0.7818608E-02  0.1157053E+00
         21   -1    0    0  503  502  0.00000000000E+00  0.00000000000E+00  0.33877948846E+03  0.33877948846E+03  0.00000000000E+00 0.  1.
         21   -1    0    0  501  503 -0.00000000000E+00 -0.00000000000E+00 -0.10812488170E+03  0.10812488170E+03  0.00000000000E+00 0.  1.
          6    2    1    2  501    0  0.71835789826E+02  0.34534804649E+02  0.10312078755E+03  0.21799902487E+03  0.17474737362E+03 0.  0.
         24    2    3    3    0    0  0.76505490354E+01  0.77273621545E+02  0.39381884117E+02  0.11784369842E+03  0.79413229212E+02 0.  0.
         -6    2    1    2    0  502 -0.71835789826E+02 -0.34534804649E+02  0.12753381921E+03  0.22890534529E+03  0.17256809852E+03 0.  0.
        -24    2    5    5    0    0 -0.22763767764E+02  0.82172549723E+00 -0.53910915947E+01  0.82791453119E+02  0.79413452799E+02 0.  0.
          5    1    3    3  501    0  0.64185240790E+02 -0.42738816896E+02  0.63738903436E+02  0.10015532645E+03  0.47000000000E+01 0. -1.
        -13    1    4    4    0    0  0.13457876242E+02  0.13339183276E+01  0.39427357426E+02  0.41682253833E+02  0.00000000000E+00 0.  1.
         14    1    4    4    0    0 -0.58073272061E+01  0.75939703218E+02 -0.45473308348E-01  0.76161444589E+02  0.00000000000E+00 0. -1.
         -5    1    5    5    0  502 -0.49072022061E+02 -0.35356530147E+02  0.13292491080E+03  0.14611389217E+03  0.47000000000E+01 0.  1.
         13    1    6    6    0    0 -0.39175065272E+02 -0.82325324113E+01  0.24919801096E+02  0.47153545102E+02  0.00000000000E+00 0. -1.
        -14    1    6    6    0    0  0.16411297508E+02  0.90542579085E+01 -0.30310892690E+02  0.35637908018E+02  0.00000000000E+00 0.  1.
</event>
<event>
12    1  0.8251070E-002  0.2143178E+03  0.7818608E-02  0.1138378E+00
         21   -1    0    0  501  502  0.00000000000E+00  0.00000000000E+00  0.11351496116E+04  0.11351496116E+04  0.00000000000E+00 0. -1.
         21   -1    0    0  502  503 -0.00000000000E+00 -0.00000000000E+00 -0.40302960429E+02  0.40302960429E+02  0.00000000000E+00 0. -1.
         -6    2    1    2    0  503  0.91803406999E+02  0.89536842509E+02  0.53507717654E+03  0.57640238208E+03  0.17171898415E+03 0.  0.
        -24    2    3    3    0    0  0.13124404061E+03  0.68410027138E+02  0.33936112197E+03  0.37558213927E+03  0.63174696090E+02 0.  0.
          6    2    1    2  501    0 -0.91803406999E+02 -0.89536842509E+02  0.55976947462E+03  0.59905018993E+03  0.17051262017E+03 0.  0.
         24    2    5    5    0    0 -0.35090054534E+02 -0.12396467078E+03  0.40061122601E+03  0.42655347168E+03  0.69713400935E+02 0.  0.
          5    1    5    5  501    0 -0.56713352466E+02  0.34427828267E+02  0.15915824861E+03  0.17249671826E+03  0.47000000000E+01 0. -1.
        -11    1    6    6    0    0 -0.98530657710E+01 -0.91965733042E+02  0.34755770570E+03  0.35965419190E+03  0.00000000000E+00 0.  1.
         12    1    6    6    0    0 -0.25236988763E+02 -0.31998937734E+02  0.53053520304E+02  0.66899279776E+02  0.00000000000E+00 0. -1.
         -5    1    3    3    0  503 -0.39440633611E+02  0.21126815371E+02  0.19571605456E+03  0.20082024281E+03  0.47000000000E+01 0.  1.
         11    1    4    4    0    0  0.43279106343E+02 -0.49084553512E+01  0.64596406344E+02  0.77909368450E+02  0.00000000000E+00 0. -1.
        -12    1    4    4    0    0  0.87964934268E+02  0.73318482489E+02  0.27476471563E+03  0.29767277082E+03  0.00000000000E+00 0.  1.
</event>
<event>
12    1  0.8251070E-002  0.1813924E+03  0.7818608E-02  0.1166536E+00
         21   -1    0    0  501  502  0.00000000000E+00  0.00000000000E+00  0.36545612124E+03  0.36545612124E+03  0.00000000000E+00 0. -1.
         21   -1    0    0  502  503 -0.00000000000E+00 -0.00000000000E+00 -0.28316896061E+03  0.28316896061E+03  0.00000000000E+00 0.  1.
         -6    2    1    2    0  503  0.45617133130E+02  0.33324470574E+02 -0.22681140820E+03  0.29023263672E+03  0.17204686965E+03 0.  0.
        -24    2    3    3    0    0 -0.31122994373E+02 -0.18931656932E+02 -0.11168156618E+03  0.14225723149E+03  0.80232781785E+02 0.  0.
          6    2    1    2  501    0 -0.45617133130E+02 -0.33324470574E+02  0.30909856882E+03  0.35839244513E+03  0.17237104253E+03 0.  0.
         24    2    5    5    0    0 -0.67608748829E+02 -0.28044969590E+02  0.90478675463E+02  0.13855556910E+03  0.75191700185E+02 0.  0.
          5    1    5    5  501    0  0.21991615699E+02 -0.52795009849E+01  0.21861989336E+03  0.21983687604E+03  0.47000000000E+01 0. -1.
        -11    1    6    6    0    0 -0.19889487835E+02  0.23503099566E+02  0.11522422023E+02  0.32874817488E+02  0.00000000000E+00 0.  1.
         12    1    6    6    0    0 -0.47719260993E+02 -0.51548069155E+02  0.78956253440E+02  0.10568075161E+03  0.00000000000E+00 0. -1.
         -5    1    3    3    0  503  0.76740127503E+02  0.52256127507E+02 -0.11512984202E+03  0.14797540523E+03  0.47000000000E+01 0.  1.
         11    1    4    4    0    0 -0.41530882871E+02 -0.10542907687E+01 -0.11410199438E+03  0.12142977757E+03  0.00000000000E+00 0. -1.
        -12    1    4    4    0    0  0.10407888497E+02 -0.17877366164E+02  0.24204281945E+01  0.20827453915E+02  0.00000000000E+00 0.  1.
</event>
<event>
12    1  0.8251070E-002  0.2109555E+03  0.7818608E-02  0.1142320E+00
         21   -1    0    0  501  502  0.00000000000E+00  0.00000000000E+00  0.89214128525E+03  0.89214128525E+03  0.00000000000E+00 0. -1.
         21   -1    0    0  502  503 -0.00000000000E+00 -0.00000000000E+00 -0.83397039238E+02  0.83397039238E+02  0.00000000000E+00 0. -1.
         -6    2    1    2    0  503 -0.91919160411E+02 -0.68480953020E+02  0.82938725770E+02  0.21969715716E+03  0.16807508933E+03 0.  0.
        -24    2    3    3    0    0 -0.12161516058E+03 -0.38114795626E+02  0.32929897059E+02  0.15391776153E+03  0.79770384640E+02 0.  0.
          6    2    1    2  501    0  0.91919160411E+02  0.68480953020E+02  0.72580552024E+03  0.75584116733E+03  0.17709727281E+03 0.  0.
         24    2    5    5    0    0  0.93551000526E+02 -0.14101508619E+02  0.50947394007E+03  0.52422949134E+03  0.79386533742E+02 0.  0.
          5    1    5    5  501    0 -0.16318401151E+01  0.82582461640E+02  0.21633158018E+03  0.23161167599E+03  0.47000000000E+01 0. -1.
        -11    1    6    6    0    0  0.38513292937E+02 -0.77261854350E+00  0.60662841497E+02  0.71859940236E+02  0.00000000000E+00 0.  1.
         12    1    6    6    0    0  0.55037707589E+02 -0.13328890076E+02  0.44881109857E+03  0.45236955110E+03  0.00000000000E+00 0. -1.
         -5    1    3    3    0  503  0.29696000166E+02 -0.30366157395E+02  0.50008828711E+02  0.65779395633E+02  0.47000000000E+01 0.  1.
         13    1    4    4    0    0 -0.79705992532E+02  0.16200959630E+02  0.12171597330E+02  0.82241498771E+02  0.00000000000E+00 0. -1.
        -14    1    4    4    0    0 -0.41909168045E+02 -0.54315755255E+02  0.20758299728E+02  0.71676262757E+02  0.00000000000E+00 0.  1.
</event>
<event>
12    1  0.8251070E-002  0.1896945E+03  0.7818608E-02  0.1158797E+00
         21   -1    0    0  503  502  0.00000000000E+00  0.00000000000E+00  0.45021416448E+03  0.45021416448E+03  0.00000000000E+00 0. -1.
         21   -1    0    0  501  503 -0.00000000000E+00 -0.00000000000E+00 -0.19389739558E+03  0.19389739558E+03  0.00000000000E+00 0. -1.
          6    2    1    2  501    0 -0.75243353891E+02 -0.24867341914E+02 -0.11891028844E+03  0.22366019894E+03  0.17205894599E+03 0.  0.
         24    2    3    3    0    0  0.17733447072E+01 -0.10536596498E+02  0.10945412138E+02  0.71931707552E+02  0.70286583977E+02 0.  0.
         -6    2    1    2    0  502  0.75243353891E+02  0.24867341914E+02  0.37522705733E+03  0.42045136112E+03  0.17234864523E+03 0.  0.
        -24    2    5    5    0    0 -0.26652916679E+02  0.64032996550E+01  0.18922210941E+03  0.20751075563E+03  0.80649406696E+02 0.  0.
          5    1    3    3  501    0 -0.77016698598E+02 -0.14330745416E+02 -0.12985570058E+03  0.15172849139E+03  0.47000000000E+01 0. -1.
        -13    1    4    4    0    0 -0.17349353156E+01  0.16952663005E+02  0.32584631138E+02  0.36771741459E+02  0.00000000000E+00 0.  1.
         14    1    4    4    0    0  0.35082800228E+01 -0.27489259503E+02 -0.21639219000E+02  0.35159966093E+02  0.00000000000E+00 0. -1.
         -5    1    5    5    0  502  0.10189627057E+03  0.18464042259E+02  0.18600494792E+03  0.21294060549E+03  0.47000000000E+01 0.  1.
         13    1    6    6    0    0 -0.11453337233E+02 -0.30082998842E+02  0.14352930169E+03  0.14709461647E+03  0.00000000000E+00 0. -1.
        -14    1    6    6    0    0 -0.15199579446E+02  0.36486298497E+02  0.45692807723E+02  0.60416139159E+02  0.00000000000E+00 0.  1.
</event>
<event>
12    1  0.8251070E-002  0.1760150E+03  0.7818608E-02  0.1171915E+00
         21   -1    0    0  503  502  0.00000000000E+00  0.00000000000E+00  0.19868154363E+02  0.19868154363E+02  0.00000000000E+00 0. -1.
         21   -1    0    0  501  503 -0.00000000000E+00 -0.00000000000E+00 -0.18623487297E+04  0.18623487297E+04  0.00000000000E+00 0. -1.
          6    2    1    2  501    0 -0.31877580964E+02  0.10180598918E+02 -0.13034962903E+04  0.13152201167E+04  0.17199288293E+03 0.  0.
         24    2    3    3    0    0  0.74269380768E+01  0.32513101915E+02 -0.34620384779E+03  0.35684936568E+03  0.79825461861E+02 0.  0.
         -6    2    1    2    0  502  0.31877580964E+02 -0.10180598918E+02 -0.53898428502E+03  0.56699676735E+03  0.17280465828E+03 0.  0.
        -24    2    5    5    0    0  0.30177294502E+02 -0.70379556576E+02 -0.41963350075E+03  0.43323016022E+03  0.75710935037E+02 0.  0.
          5    1    3    3  501    0 -0.39304519041E+02 -0.22332502997E+02 -0.95729244253E+03  0.95837075103E+03  0.47000000000E+01 0. -1.
        -11    1    4    4    0    0  0.22975363221E+01 -0.22257303487E+02 -0.40819204802E+02  0.46549690786E+02  0.00000000000E+00 0.  1.
         12    1    4    4    0    0  0.51294017546E+01  0.54770405402E+02 -0.30538464298E+03  0.31029967490E+03  0.00000000000E+00 0. -1.
         -5    1    5    5    0  502  0.17002864619E+01  0.60198957658E+02 -0.11935078428E+03  0.13376660713E+03  0.47000000000E+01 0.  1.
         13    1    6    6    0    0  0.18543758717E+02 -0.32219026269E+02 -0.54783407075E+02  0.66205425245E+02  0.00000000000E+00 0. -1.
        -14    1    6    6    0    0  0.11633535785E+02 -0.38160530307E+02 -0.36485009367E+03  0.36702473497E+03  0.00000000000E+00 0.  1.
</event>
<event>
12    1  0.8251070E-002  0.1987491E+03  0.7818608E-02  0.1151441E+00
         21   -1    0    0  501  502  0.00000000000E+00  0.00000000000E+00  0.14888616084E+03  0.14888616084E+03  0.00000000000E+00 0.  1.
         21   -1    0    0  502  503 -0.00000000000E+00 -0.00000000000E+00 -0.26546015467E+03  0.26546015467E+03  0.00000000000E+00 0. -1.
         -6    2    1    2    0  503  0.46259358371E+02 -0.80175768539E+02 -0.84566781824E+02  0.21599250575E+03  0.17587819607E+03 0.  0.
        -24    2    3    3    0    0 -0.22819644645E+02  0.63784915114E+01 -0.43560327794E+02  0.97809732627E+02  0.84307889924E+02 0.  0.
          6    2    1    2  501    0 -0.46259358371E+02  0.80175768539E+02 -0.32007212011E+02  0.19835380976E+03  0.17248678247E+03 0.  0.
         24    2    5    5    0    0  0.29162959046E+02  0.60628430684E+02  0.17736607981E+02  0.10579484472E+03  0.79697409742E+02 0.  0.
          5    1    5    5  501    0 -0.75422317417E+02  0.19547337855E+02 -0.49743819991E+02  0.92558965039E+02  0.47000000000E+01 0. -1.
        -13    1    6    6    0    0  0.12716994684E+01  0.51211419885E+02  0.43092933435E+02  0.66941972321E+02  0.00000000000E+00 0.  1.
         14    1    6    6    0    0  0.27891259578E+02  0.94170107987E+01 -0.25356325455E+02  0.38852872401E+02  0.00000000000E+00 0. -1.
         -5    1    3    3    0  503  0.69079003016E+02 -0.86554260050E+02 -0.41006454031E+02  0.11818277312E+03  0.47000000000E+01 0.  1.
         11    1    4    4    0    0  0.26470501497E+02  0.16659486828E+02 -0.34647052483E+02  0.46675948803E+02  0.00000000000E+00 0. -1.
        -12    1    4    4    0    0 -0.49290146142E+02 -0.10280995317E+02 -0.89132753102E+01  0.51133783824E+02  0.00000000000E+00 0.  1.
</event>
<event>
12    1  0.8251070E-002  0.2428956E+03  0.7818608E-02  0.1117906E+00
         21   -1    0    0  501  502  0.00000000000E+00  0.00000000000E+00  0.17411413524E+04  0.17411413524E+04  0.00000000000E+00 0. -1.
         21   -1    0    0  502  503 -0.00000000000E+00 -0.00000000000E+00 -0.49959056161E+02  0.49959056161E+02  0.00000000000E+00 0.  1.
         -6    2    1    2    0  503  0.10416633993E+03  0.13572956040E+03  0.33705524662E+03  0.41536121937E+03  0.17217887020E+03 0.  0.
        -24    2    3    3    0    0  0.83661700843E+02  0.15869982814E+03  0.32918343903E+03  0.38323445826E+03  0.79510991898E+02 0.  0.
          6    2    1    2  501    0 -0.10416633993E+03 -0.13572956040E+03  0.13541270496E+04  0.13757391891E+04  0.17240971614E+03 0.  0.
         24    2    5    5    0    0 -0.10974798766E+03 -0.95541130911E+02  0.65774940710E+03  0.67816469449E+03  0.78104685009E+02 0.  0.
          5    1    5    5  501    0  0.55816477301E+01 -0.40188429486E+02  0.69637764248E+03  0.69757449466E+03  0.47000000000E+01 0. -1.
        -11    1    6    6    0    0 -0.36825869688E+02 -0.58878224109E+02  0.17007183220E+03  0.18370415907E+03  0.00000000000E+00 0.  1.
         12    1    6    6    0    0 -0.72922117969E+02 -0.36662906802E+02  0.48767757490E+03  0.49446053542E+03  0.00000000000E+00 0. -1.
         -5    1    3    3    0  503  0.20504639084E+02 -0.22970267745E+02  0.78718075909E+01  0.32126761103E+02  0.47000000000E+01 0.  1.
         13    1    4    4    0    0  0.76556912362E+02  0.13497835083E+03  0.32201590738E+03  0.35745539670E+03  0.00000000000E+00 0. -1.
        -14    1    4    4    0    0  0.71047884811E+01  0.23721477314E+02  0.71675316431E+01  0.25779061565E+02  0.00000000000E+00 0.  1.
</event>
<event>
12    1  0.8251070E-002  0.1888678E+03  0.7818608E-02  0.1159737E+00
         21   -1    0    0  503  502  0.00000000000E+00  0.00000000000E+00  0.12830892794E+04  0.12830892794E+04  0.00000000000E+00 0. -1.
         21   -1    0    0  501  503 -0.00000000000E+00 -0.00000000000E+00 -0.28954721643E+02  0.28954721643E+02  0.00000000000E+00 0. -1.
          6    2    1    2  501    0  0.54704089550E+01  0.72756153297E+02  0.48898049552E+03  0.52418793248E+03  0.17420585624E+03 0.  0.
         24    2    3    3    0    0  0.54826638874E+02  0.32494009140E+02  0.21843927484E+03  0.24621002010E+03  0.94031038743E+02 0.  0.
         -6    2    1    2    0  502 -0.54704089550E+01 -0.72756153297E+02  0.76515406229E+03  0.78785606861E+03  0.17301174119E+03 0.  0.
        -24    2    5    5    0    0 -0.68600064439E+01 -0.11900568850E+03  0.59381899137E+03  0.61032086924E+03  0.75240649514E+02 0.  0.
          5    1    3    3  501    0 -0.49356229919E+02  0.40262144156E+02  0.27054122068E+03  0.27797791238E+03  0.47000000000E+01 0. -1.
        -13    1    4    4    0    0  0.19824808366E+02 -0.32140530092E+02  0.52024090402E+02  0.64284855786E+02  0.00000000000E+00 0.  1.
         14    1    4    4    0    0  0.35001830508E+02  0.64634539232E+02  0.16641518444E+03  0.18192516432E+03  0.00000000000E+00 0. -1.
         -5    1    5    5    0  502  0.13895974889E+01  0.46249535198E+02  0.17133507092E+03  0.17753519936E+03  0.47000000000E+01 0.  1.
         11    1    6    6    0    0  0.30302876350E+02 -0.54245972998E+02  0.19798666399E+03  0.20750809386E+03  0.00000000000E+00 0. -1.
        -12    1    6    6    0    0 -0.37162882794E+02 -0.64759715497E+02  0.39583232738E+03  0.40281277538E+03  0.00000000000E+00 0.  1.
</event>
<event>
12    1  0.8251070E-002  0.1837267E+03  0.7818608E-02  0.1164429E+00
         21   -1    0    0  503  502  0.00000000000E+00  0.00000000000E+00  0.84521772127E+02  0.84521772127E+02  0.00000000000E+00 0. -1.
         21   -1    0    0  501  503 -0.00000000000E+00 -0.00000000000E+00 -0.40018131726E+03  0.40018131726E+03  0.00000000000E+00 0. -1.
          6    2    1    2  501    0  0.42557209812E+02 -0.38789892814E+02 -0.17733872941E+03  0.25535174211E+03  0.17446981217E+03 0.  0.
         24    2    3    3    0    0  0.83022423292E+02 -0.92133245217E+01 -0.67526297650E+02  0.13454997448E+03  0.81032627004E+02 0.  0.
         -6    2    1    2    0  502 -0.42557209812E+02  0.38789892814E+02 -0.13832081572E+03  0.22935134727E+03  0.17364797881E+03 0.  0.
        -24    2    5    5    0    0  0.47481399038E+00  0.86606532530E+02 -0.79977759160E+02  0.14237900480E+03  0.79839978227E+02 0.  0.
          5    1    3    3  501    0 -0.40465213480E+02 -0.29576568293E+02 -0.10981243176E+03  0.12080176763E+03  0.47000000000E+01 0. -1.
        -13    1    4    4    0    0  0.65918484159E+02  0.28226828396E+02 -0.26538172372E+02  0.76460937661E+02  0.00000000000E+00 0.  1.
         14    1    4    4    0    0  0.17103939132E+02 -0.37440152917E+02 -0.40988125278E+02  0.58089036815E+02  0.00000000000E+00 0. -1.
         -5    1    5    5    0  502 -0.43032023802E+02 -0.47816639716E+02 -0.58343056559E+02  0.86972342471E+02  0.47000000000E+01 0.  1.
         13    1    6    6    0    0 -0.96238843132E+01  0.90351758502E+02 -0.89837699206E+02  0.12777664737E+03  0.00000000000E+00 0. -1.
        -14    1    6    6    0    0  0.10098698304E+02 -0.37452259721E+01  0.98599400456E+01  0.14602357437E+02  0.00000000000E+00 0.  1.
</event>
<event>
12    1  0.8251070E-002  0.1902754E+03  0.7818608E-02  0.1160791E+00
         21   -1    0    0  503  502  0.00000000000E+00  0.00000000000E+00  0.10654686023E+03  0.10654686023E+03  0.00000000000E+00 0.  1.
         21   -1    0    0  501  503 -0.00000000000E+00 -0.00000000000E+00 -0.48657943100E+03  0.48657943100E+03  0.00000000000E+00 0.  1.
          6    2    1    2  501    0  0.31544662406E+02 -0.72599802116E+02 -0.35958324042E+03  0.40175515501E+03  0.16075229638E+03 0.  0.
         24    2    3    3    0    0  0.60902060230E+02 -0.69384522930E+02 -0.17047508520E+03  0.21029711992E+03  0.81485280959E+02 0.  0.
         -6    2    1    2    0  502 -0.31544662406E+02  0.72599802116E+02 -0.20449330349E+02  0.19137113623E+03  0.17302872500E+03 0.  0.
        -24    2    5    5    0    0 -0.49122105454E+02  0.75946767021E+02 -0.68617522848E+02  0.13977236253E+03  0.81529480689E+02 0.  0.
          5    1    3    3  501    0 -0.29357397824E+02 -0.32152791857E+01 -0.18910815522E+03  0.19145803509E+03  0.47000000000E+01 0. -1.
        -11    1    4    4    0    0  0.40588114940E+02 -0.10620669235E+02 -0.18038878328E+02  0.45668313092E+02  0.00000000000E+00 0.  1.
         12    1    4    4    0    0  0.20313945291E+02 -0.58763853695E+02 -0.15243620687E+03  0.16462880683E+03  0.00000000000E+00 0. -1.
         -5    1    5    5    0  502  0.17577443048E+02 -0.33469649052E+01  0.48168192499E+02  0.51598773694E+02  0.47000000000E+01 0.  1.
         11    1    6    6    0    0 -0.60300905689E+01  0.34126975706E+02 -0.71709228210E+02  0.79644371261E+02  0.00000000000E+00 0. -1.
        -12    1    6    6    0    0 -0.43092014886E+02  0.41819791315E+02  0.30917053620E+01  0.60127991273E+02  0.00000000000E+00 0.  1.
</event>
<event>
12    1  0.8251070E-002  0.1813729E+03  0.7818608E-02  0.1167166E+00
         21   -1    0    0  503  502  0.00000000000E+00  0.00000000000E+00  0.16740075545E+03  0.16740075545E+03  0.00000000000E+00 0.  1.
         21   -1    0    0  501  503 -0.00000000000E+00 -0.00000000000E+00 -0.22637240760E+03  0.22637240760E+03  0.00000000000E+00 0.  1.
          6    2    1    2  501    0 -0.79122029000E+01  0.47214833389E+02 -0.10476606848E+03  0.20945658930E+03  0.17494081928E+03 0.  0.
         24    2    3    3    0    0 -0.23146593645E+02 -0.14736428242E+02 -0.11777265557E+03  0.14417790375E+03  0.78510778988E+02 0.  0.
         -6    2    1    2    0  502  0.79122029000E+01 -0.47214833389E+02  0.45794416330E+02  0.18431657375E+03  0.17199891670E+03 0.  0.
        -24    2    5    5    0    0 -0.37609270282E+02  0.26623382737E+02  0.17706703037E+02  0.93018729753E+02  0.78839679306E+02 0.  0.
          5    1    3    3  501    0  0.15234390745E+02  0.61951261631E+02  0.13006587081E+02  0.65278685546E+02  0.47000000000E+01 0. -1.
        -13    1    4    4    0    0 -0.49614223937E+02 -0.83756896186E+01 -0.49083886530E+02  0.70291900745E+02  0.00000000000E+00 0.  1.
         14    1    4    4    0    0  0.26467630292E+02 -0.63607386236E+01 -0.68688769036E+02  0.73886003009E+02  0.00000000000E+00 0. -1.
         -5    1    5    5    0  502  0.45521473182E+02 -0.73838216126E+02  0.28087713293E+02  0.91297844001E+02  0.47000000000E+01 0.  1.
         13    1    6    6    0    0 -0.51758894756E+02  0.85454752810E+01  0.36034129493E+02  0.63643277905E+02  0.00000000000E+00 0. -1.
        -14    1    6    6    0    0  0.14149624475E+02  0.18077907456E+02 -0.18327426457E+02  0.29375451848E+02  0.00000000000E+00 0.  1.
</event>
<event>
12    1  0.8251070E-002  0.2399417E+03  0.7818608E-02  0.1121361E+00
         21   -1    0    0  503  502  0.00000000000E+00  0.00000000000E+00  0.33869474679E+03  0.33869474679E+03  0.00000000000E+00 0.  1.
         21   -1    0    0  501  503 -0.00000000000E+00 -0.00000000000E+00 -0.18858669344E+03  0.18858669344E+03  0.00000000000E+00 0. -1.
          6    2    1    2  501    0 -0.15014391170E+03 -0.33881374558E+02 -0.22006530452E+02  0.23199271524E+03  0.17217778829E+03 0.  0.
         24    2    3    3    0    0 -0.12822391881E+03  0.38415980856E+02 -0.16736592151E+02  0.15611613164E+03  0.78580990728E+02 0.  0.
         -6    2    1    2    0  502  0.15014391170E+03  0.33881374558E+02  0.17211458380E+03  0.29528872499E+03  0.18406754029E+03 0.  0.
        -24    2    5    5    0    0  0.98976845571E+02 -0.14247260795E+02  0.18329131080E+03  0.22400448113E+03  0.81135088290E+02 0.  0.
          5    1    3    3  501    0 -0.21919992893E+02 -0.72297355413E+02 -0.52699383016E+01  0.75876583594E+02  0.47000000000E+01 0. -1.
        -11    1    4    4    0    0 -0.56383330981E+02  0.10685864735E+01  0.28693263553E+02  0.63273416715E+02  0.00000000000E+00 0.  1.
         12    1    4    4    0    0 -0.71840587825E+02  0.37347394382E+02 -0.45429855704E+02  0.92842714929E+02  0.00000000000E+00 0. -1.
         -5    1    5    5    0  502  0.51167066126E+02  0.48128635352E+02 -0.11176726994E+02  0.71284243863E+02  0.47000000000E+01 0.  1.
         11    1    6    6    0    0  0.10221555769E+02 -0.35695319156E+02  0.45891405776E+02  0.59030984543E+02  0.00000000000E+00 0. -1.
        -12    1    6    6    0    0  0.88755289802E+02  0.21448058361E+02  0.13739990502E+03  0.16497349658E+03  0.00000000000E+00 0.  1.
</event>
<event>
12    1  0.8251070E-002  0.2916482E+03  0.7818608E-02  0.1089544E+00
         21   -1    0    0  503  502  0.00000000000E+00  0.00000000000E+00  0.30597114980E+03  0.30597114980E+03  0.00000000000E+00 0.  1.
         21   -1    0    0  501  503 -0.00000000000E+00 -0.00000000000E+00 -0.59209871334E+03  0.59209871334E+03  0.00000000000E+00 0. -1.
          6    2    1    2  501    0 -0.23317239168E+03 -0.29593677755E+02 -0.47036146088E+03  0.55344248008E+03  0.17266593433E+03 0.  0.
         24    2    3    3    0    0 -0.20950361335E+03  0.26021292854E+02 -0.41703561914E+03  0.47270233257E+03  0.70426670365E+02 0.  0.
         -6    2    1    2    0  502  0.23317239168E+03  0.29593677755E+02  0.18423389734E+03  0.34462738306E+03  0.17199056433E+03 0.  0.
        -24    2    5    5    0    0  0.60377978261E+02  0.47465467108E+02  0.31474243658E+02  0.11325125647E+03  0.77050296888E+02 0.  0.
          5    1    3    3  501    0 -0.23668778335E+02 -0.55614970609E+02 -0.53325841735E+02  0.80740147513E+02  0.47000000000E+01 0. -1.
        -13    1    4    4    0    0 -0.13612270856E+02 -0.86025817928E+01 -0.82707993560E+01  0.18102609021E+02  0.00000000000E+00 0.  1.
         14    1    4    4    0    0 -0.19589134249E+03  0.34623874646E+02 -0.40876481978E+03  0.45459972355E+03  0.00000000000E+00 0. -1.
         -5    1    5    5    0  502  0.17279441342E+03 -0.17871789352E+02  0.15275965368E+03  0.23137612659E+03  0.47000000000E+01 0.  1.
         11    1    6    6    0    0 -0.12356486324E+02  0.32122536662E+02  0.11348425403E+02  0.36239852027E+02  0.00000000000E+00 0. -1.
        -12    1    6    6    0    0  0.72734464585E+02  0.15342930446E+02  0.20125818255E+02  0.77011404438E+02  0.00000000000E+00 0.  1.
</event>
<event>
12    1  0.8251070E-002  0.2136918E+03  0.7818608E-02  0.1138713E+00
         21   -1    0    0  501  502  0.00000000000E+00  0.00000000000E+00  0.20078267160E+03  0.20078267160E+03  0.00000000000E+00 0. -1.
         21   -1    0    0  502  503 -0.00000000000E+00 -0.00000000000E+00 -0.26289161172E+03  0.26289161172E+03  0.00000000000E+00 0.  1.
         -6    2    1    2    0  503 -0.94858010492E+02 -0.83202616206E+02 -0.11643400144E+03  0.24318529277E+03  0.17222512136E+03 0.  0.
        -24    2    3    3    0    0 -0.11194169744E+03 -0.35661980817E+02 -0.12797054731E+03  0.19115504903E+03  0.79756324451E+02 0.  0.
          6    2    1    2  501    0  0.94858010492E+02  0.83202616206E+02  0.54325061319E+02  0.22048899055E+03  0.17246293854E+03 0.  0.
         24    2    5    5    0    0  0.12518933340E+02 -0.16160756466E+02  0.26721972949E+02  0.88440423948E+02  0.81790898078E+02 0.  0.
          5    1    5    5  501    0  0.82339077152E+02  0.99363372672E+02  0.27603088370E+02  0.13204856661E+03  0.47000000000E+01 0. -1.
        -13    1    6    6    0    0 -0.26007576503E+02  0.43801113299E+01 -0.13009696511E+02  0.29408019554E+02  0.00000000000E+00 0.  1.
         14    1    6    6    0    0  0.38526509842E+02 -0.20540867796E+02  0.39731669460E+02  0.59032404394E+02  0.00000000000E+00 0. -1.
         -5    1    3    3    0  503  0.17083686948E+02 -0.47540635389E+02  0.11536545864E+02  0.52030243737E+02  0.47000000000E+01 0.  1.
         11    1    4    4    0    0 -0.46768271358E+02 -0.35729481329E+02 -0.15005001092E+02  0.60737279323E+02  0.00000000000E+00 0. -1.
        -12    1    4    4    0    0 -0.65173426083E+02  0.67500511152E-01 -0.11296554622E+03  0.13041776971E+03  0.00000000000E+00 0.  1.
</event>
<event>
12    1  0.8251070E-002  0.2144661E+03  0.7818608E-02  0.1138477E+00
         21   -1    0    0  503  502  0.00000000000E+00  0.00000000000E+00  0.14236802086E+03  0.14236802086E+03  0.00000000000E+00 0.  1.
         21   -1    0    0  501  503 -0.00000000000E+00 -0.00000000000E+00 -0.37493374790E+03  0.37493374790E+03  0.00000000000E+00 0.  1.
          6    2    1    2  501    0  0.15911654178E+02 -0.12142674632E+03 -0.21483083046E+03  0.30210360042E+03  0.17354153455E+03 0.  0.
         24    2    3    3    0    0 -0.44468055977E+02 -0.91484789895E+02 -0.82889047398E+02  0.15387082986E+03  0.80366431535E+02 0.  0.
         -6    2    1    2    0  502 -0.15911654178E+02  0.12142674632E+03 -0.17734896584E+02  0.21519816834E+03  0.17606274347E+03 0.  0.
        -24    2    5    5    0    0 -0.74641737120E+02  0.55867126814E+02  0.47208751086E+01  0.12423862769E+03  0.81978199363E+02 0.  0.
          5    1    3    3  501    0  0.60379710155E+02 -0.29941956427E+02 -0.13194178306E+03  0.14823277057E+03  0.47000000000E+01 0. -1.
        -11    1    4    4    0    0 -0.33220404024E+02 -0.14630403726E+02  0.49276175238E+01  0.36632299561E+02  0.00000000000E+00 0.  1.
         12    1    4    4    0    0 -0.11247651953E+02 -0.76854386169E+02 -0.87816664922E+02  0.11723853030E+03  0.00000000000E+00 0. -1.
         -5    1    5    5    0  502  0.58730082942E+02  0.65559619508E+02 -0.22455771693E+02  0.90959540647E+02  0.47000000000E+01 0.  1.
         11    1    6    6    0    0 -0.25252411553E+02  0.29431292990E+02  0.41831875817E+02  0.57042011980E+02  0.00000000000E+00 0. -1.
        -12    1    6    6    0    0 -0.49389325566E+02  0.26435833824E+02 -0.37111000709E+02  0.67196615715E+02  0.00000000000E+00 0.  1.
</event>
<event>
12    1  0.8251070E-002  0.4912218E+03  0.7818608E-02  0.1016152E+00
         21   -1    0    0  503  502  0.00000000000E+00  0.00000000000E+00  0.53636755326E+03  0.53636755326E+03  0.00000000000E+00 0. -1.
         21   -1    0    0  501  503 -0.00000000000E+00 -0.00000000000E+00 -0.48295452265E+03  0.48295452265E+03  0.00000000000E+00 0.  1.
          6    2    1    2  501    0  0.39249584505E+03  0.23999612412E+03 -0.10819981394E+03  0.50299707935E+03  0.17218517393E+03 0.  0.
         24    2    3    3    0    0  0.15147756764E+03  0.16105572857E+03 -0.80637027371E+02  0.24784380521E+03  0.77716281412E+02 0.  0.
         -6    2    1    2    0  502 -0.39249584505E+03 -0.23999612412E+03  0.16161284454E+03  0.51632499656E+03  0.16976943946E+03 0.  0.
        -24    2    5    5    0    0 -0.12393334148E+03 -0.78075789346E+02  0.10722013934E+03  0.19800963482E+03  0.79097125046E+02 0.  0.
          5    1    3    3  501    0  0.24101827742E+03  0.78940395546E+02 -0.27562786567E+02  0.25515327413E+03  0.47000000000E+01 0. -1.
        -13    1    4    4    0    0  0.13832054972E+03  0.10840564636E+03 -0.81153228553E+02  0.19357222204E+03  0.00000000000E+00 0.  1.
         14    1    4    4    0    0  0.13157017912E+02  0.52650082208E+02  0.51620118187E+00  0.54271583176E+02  0.00000000000E+00 0. -1.
         -5    1    5    5    0  502 -0.26856250357E+03 -0.16192033477E+03  0.54392705201E+02  0.31831536174E+03  0.47000000000E+01 0.  1.
         13    1    6    6    0    0 -0.13123060410E+03 -0.55276329338E+02  0.88956217932E+02  0.16789923390E+03  0.00000000000E+00 0. -1.
        -14    1    6    6    0    0  0.72972626168E+01 -0.22799460008E+02  0.18263921408E+02  0.30110400920E+02  0.00000000000E+00 0.  1.
</event>
<event>
12    1  0.8251070E-002  0.1965281E+03  0.7818608E-02  0.1152733E+00
         21   -1    0    0  501  502  0.00000000000E+00  0.00000000000E+00  0.19545387553E+04  0.19545387553E+04  0.00000000000E+00 0. -1.
         21   -1    0    0  502  503 -0.00000000000E+00 -0.00000000000E+00 -0.32073323816E+02  0.32073323816E+02  0.00000000000E+00 0.  1.
         -6    2    1    2    0  503  0.87515618766E+02  0.30703951398E+02  0.34565065918E+03  0.39761500163E+03  0.17326740943E+03 0.  0.
        -24    2    3    3    0    0  0.10328303375E+03  0.21279980572E+02  0.14834851506E+03  0.19940388016E+03  0.81451843863E+02 0.  0.
          6    2    1    2  501    0 -0.87515618766E+02 -0.30703951398E+02  0.15768147723E+04  0.15889970775E+04  0.17310450585E+03 0.  0.
         24    2    5    5    0    0 -0.28103408823E+02 -0.66365703069E+02  0.50904092234E+03  0.51896686488E+03  0.70779503356E+02 0.  0.
          5    1    5    5  501    0 -0.59412209943E+02  0.35661751671E+02  0.10677738500E+04  0.10700302126E+04  0.47000000000E+01 0. -1.
        -13    1    6    6    0    0  0.13424440166E+02 -0.38682996983E+02  0.12124254190E+03  0.12797008953E+03  0.00000000000E+00 0.  1.
         14    1    6    6    0    0 -0.41527848989E+02 -0.27682706086E+02  0.38779838044E+03  0.39099677535E+03  0.00000000000E+00 0. -1.
         -5    1    3    3    0  503 -0.15767414979E+02  0.94239708257E+01  0.19730214411E+03  0.19821112146E+03  0.47000000000E+01 0.  1.
         13    1    4    4    0    0  0.62496498484E+02  0.29199179891E+01  0.14075765406E+03  0.15403589004E+03  0.00000000000E+00 0. -1.
        -14    1    4    4    0    0  0.40786535262E+02  0.18360062583E+02  0.75908610018E+01  0.45367990119E+02  0.00000000000E+00 0.  1.
</event>
<event>
12    1  0.8251070E-002  0.1749986E+03  0.7818608E-02  0.1173104E+00
         21   -1    0    0  501  502  0.00000000000E+00  0.00000000000E+00  0.99084817942E+03  0.99084817942E+03  0.00000000000E+00 0.  1.
         21   -1    0    0  502  503 -0.00000000000E+00 -0.00000000000E+00 -0.39676075006E+02  0.39676075006E+02  0.00000000000E+00 0.  1.
         -6    2    1    2    0  503  0.21956399134E+02  0.27967505057E+02  0.22824599019E+03  0.28671871459E+03  0.16984441250E+03 0.  0.
        -24    2    3    3    0    0 -0.29435551792E+02  0.61732245046E+02  0.18159200944E+03  0.20938906823E+03  0.78681651068E+02 0.  0.
          6    2    1    2  501    0 -0.21956399134E+02 -0.27967505057E+02  0.72292611422E+03  0.74380553983E+03  0.17134832843E+03 0.  0.
         24    2    5    5    0    0 -0.71074885852E+02 -0.23151340831E+02  0.33003573709E+03  0.34779953026E+03  0.80332443694E+02 0.  0.
          5    1    5    5  501    0  0.49118486717E+02 -0.48161642256E+01  0.39289037713E+03  0.39600600957E+03  0.47000000000E+01 0. -1.
        -11    1    6    6    0    0 -0.35189792036E+02 -0.10183822314E+02  0.29069605130E+03  0.29299526608E+03  0.00000000000E+00 0.  1.
         12    1    6    6    0    0 -0.35885093815E+02 -0.12967518517E+02  0.39339685790E+02  0.54804264184E+02  0.00000000000E+00 0. -1.
         -5    1    3    3    0  503  0.51391950927E+02 -0.33764739989E+02  0.46653980754E+02  0.77329646364E+02  0.47000000000E+01 0.  1.
         11    1    4    4    0    0 -0.18385471746E+02  0.34411984199E+02  0.17485974701E+03  0.17915954162E+03  0.00000000000E+00 0. -1.
        -12    1    4    4    0    0 -0.11050080047E+02  0.27320260847E+02  0.67322624262E+01  0.30229526612E+02  0.00000000000E+00 0.  1.
</event>
<event>
12    1  0.8251070E-002  0.1857880E+03  0.7818608E-02  0.1162679E+00
         21   -1    0    0  503  502  0.00000000000E+00  0.00000000000E+00  0.20859913062E+03  0.20859913062E+03  0.00000000000E+00 0. -1.
         21   -1    0    0  501  503 -0.00000000000E+00 -0.00000000000E+00 -0.32552768775E+03  0.32552768775E+03  0.00000000000E+00 0. -1.
          6    2    1    2  501    0 -0.62638071815E+02  0.21095196208E+02 -0.24665895655E+03  0.30880060032E+03  0.17363362166E+03 0.  0.
         24    2    3    3    0    0 -0.10020187745E+03 -0.20046524668E+02 -0.17401697575E+03  0.21713475028E+03  0.80145570900E+02 0.  0.
         -6    2    1    2    0  502  0.62638071815E+02 -0.21095196208E+02  0.12973039941E+03  0.22532621804E+03  0.17196916195E+03 0.  0.
        -24    2    5    5    0    0  0.73658030844E+02  0.42083339375E+02  0.10856899783E+03  0.15762938080E+03  0.76572066981E+02 0.  0.
          5    1    3    3  501    0  0.37563805633E+02  0.41141720876E+02 -0.72641980793E+02  0.91665850041E+02  0.47000000000E+01 0. -1.
        -13    1    4    4    0    0 -0.73136179751E+02  0.19828198944E+02 -0.73039859213E+02  0.10524675432E+03  0.00000000000E+00 0.  1.
         14    1    4    4    0    0 -0.27065697697E+02 -0.39874723612E+02 -0.10097711654E+03  0.11188799596E+03  0.00000000000E+00 0. -1.
         -5    1    5    5    0  502 -0.11019959029E+02 -0.63178535583E+02  0.21161401584E+02  0.67696837241E+02  0.47000000000E+01 0.  1.
         13    1    6    6    0    0  0.18619945159E+02  0.53153037507E+02  0.68375253561E+02  0.88583988697E+02  0.00000000000E+00 0. -1.
        -14    1    6    6    0    0  0.55038085685E+02 -0.11069698132E+02  0.40193744266E+02  0.69045392103E+02  0.00000000000E+00 0.  1.
</event>
<event>
12    1  0.8251070E-002  0.1834298E+03  0.7818608E-02  0.1164932E+00
         21   -1    0    0  501  502  0.00000000000E+00  0.00000000000E+00  0.14579324827E+03  0.14579324827E+03  0.00000000000E+00 0. -1.
         21   -1    0    0  502  503 -0.00000000000E+00 -0.00000000000E+00 -0.23318394397E+03  0.23318394397E+03  0.00000000000E+00 0.  1.
         -6    2    1    2    0  503  0.48444168226E+02  0.31755519438E+02 -0.70385350298E+02  0.19647028354E+03  0.17404374257E+03 0.  0.
        -24    2    3    3    0    0  0.18313328105E+02  0.19596159188E+02  0.32311496650E+02  0.88653541145E+02  0.78077077946E+02 0.  0.
          6    2    1    2  501    0 -0.48444168226E+02 -0.31755519438E+02 -0.17005345399E+02  0.18250690870E+03  0.17223338672E+03 0.  0.
         24    2    5    5    0    0 -0.25117495349E+02 -0.14239846617E+02  0.57689998402E+02  0.10217997145E+03  0.79239818562E+02 0.  0.
          5    1    5    5  501    0 -0.23326672878E+02 -0.17515672821E+02 -0.74695343801E+02  0.80326937247E+02  0.47000000000E+01 0. -1.
        -11    1    6    6    0    0  0.22175977799E+02 -0.26791576725E+02  0.30169653378E+02  0.46040966103E+02  0.00000000000E+00 0.  1.
         12    1    6    6    0    0 -0.47293473148E+02  0.12551730108E+02  0.27520345024E+02  0.56139005347E+02  0.00000000000E+00 0. -1.
         -5    1    3    3    0  503  0.30130840121E+02  0.12159360250E+02 -0.10269684695E+03  0.10781674240E+03  0.47000000000E+01 0.  1.
         13    1    4    4    0    0 -0.20251728155E+02 -0.17576211409E+02  0.20625789896E+02  0.33830147940E+02  0.00000000000E+00 0. -1.
        -14    1    4    4    0    0  0.38565056260E+02  0.37172370598E+02  0.11685706754E+02  0.54823393205E+02  0.00000000000E+00 0.  1.
</event>
<event>
12    1  0.8251070E-002  0.1887134E+03  0.7818608E-02  0.1159847E+00
         21   -1    0    0  501  502  0.00000000000E+00  0.00000000000E+00  0.65906189242E+02  0.65906189242E+02  0.00000000000E+00 0. -1.
         21   -1    0    0  502  503 -0.00000000000E+00 -0.00000000000E+00 -0.57394883447E+03  0.57394883447E+03  0.00000000000E+00 0. -1.
         -6    2    1    2    0  503  0.70974892747E+02 -0.32635060921E+02 -0.33392394782E+03  0.38308648496E+03  0.17072659261E+03 0.  0.
        -24    2    3    3    0    0  0.10280417531E+03 -0.63827746792E+02 -0.28458898902E+03  0.31643729111E+03  0.67074487056E+02 0.  0.
          6    2    1    2  501    0 -0.70974892747E+02  0.32635060921E+02 -0.17411869741E+03  0.25676853876E+03  0.17178556140E+03 0.  0.
         24    2    5    5    0    0 -0.10945715569E+03 -0.22047660370E+01 -0.11562686690E+03  0.17842262412E+03  0.80494288763E+02 0.  0.
          5    1    5    5  501    0  0.38482262947E+02  0.34839826958E+02 -0.58491830509E+02  0.78345914637E+02  0.47000000000E+01 0. -1.
        -13    1    6    6    0    0  0.12948893950E+02 -0.26491861008E+01 -0.81502808220E+01  0.15528010787E+02  0.00000000000E+00 0.  1.
         14    1    6    6    0    0 -0.12240604964E+03  0.44442006374E+00 -0.10747658608E+03  0.16289461333E+03  0.00000000000E+00 0. -1.
         -5    1    3    3    0  503 -0.31829282560E+02  0.31192685871E+02 -0.49334958801E+02  0.66649193843E+02  0.47000000000E+01 0.  1.
         11    1    4    4    0    0  0.34773517036E+02  0.85874485893E+01 -0.48500234108E+02  0.60292739769E+02  0.00000000000E+00 0. -1.
        -12    1    4    4    0    0  0.68030658271E+02 -0.72415195381E+02 -0.23608875491E+03  0.25614455134E+03  0.00000000000E+00 0.  1.
</event>
<event>
12    1  0.8251070E-002  0.2313308E+03  0.7818608E-02  0.1125810E+00
         21   -1    0    0  503  502  0.00000000000E+00  0.00000000000E+00  0.13412966116E+03  0.13412966116E+03  0.00000000000E+00 0. -1.
         21   -1    0    0  501  503 -0.00000000000E+00 -0.00000000000E+00 -0.68100678786E+03  0.68100678786E+03  0.00000000000E+00 0. -1.
          6    2    1    2  501    0  0.15347826071E+03  0.19715496279E+02 -0.53599281724E+03  0.58354978025E+03  0.17116590952E+03 0.  0.
         24    2    3    3    0    0  0.70839135358E+02 -0.28374544949E+02 -0.15522917360E+03  0.19093684181E+03  0.80854705027E+02 0.  0.
         -6    2    1    2    0  502 -0.15347826071E+03 -0.19715496279E+02 -0.10884309464E+02  0.23158666877E+03  0.17195824975E+03 0.  0.
        -24    2    5    5    0    0 -0.47359381459E+02 -0.51553181592E+02  0.33922247281E+02  0.11198494526E+03  0.80555990224E+02 0.  0.
          5    1    3    3  501    0  0.82639125349E+02  0.48090041228E+02 -0.38076364365E+03  0.39261293844E+03  0.47000000000E+01 0. -1.
        -11    1    4    4    0    0  0.14061634839E+02  0.26850454885E+02 -0.58769974388E+02  0.66125535094E+02  0.00000000000E+00 0.  1.
         12    1    4    4    0    0  0.56777500519E+02 -0.55224999834E+02 -0.96459199208E+02  0.12481130671E+03  0.00000000000E+00 0. -1.
         -5    1    5    5    0  502 -0.10611887925E+03  0.31837685313E+02 -0.44806556745E+02  0.11960172351E+03  0.47000000000E+01 0.  1.
         13    1    6    6    0    0 -0.16373373240E+02 -0.46740248775E+01  0.50583726599E+02  0.53372720152E+02  0.00000000000E+00 0. -1.
        -14    1    6    6    0    0 -0.30986008220E+02 -0.46879156714E+02 -0.16661479318E+02  0.58612225113E+02  0.00000000000E+00 0.  1.
</event>
<event>
12    1  0.8251070E-002  0.2306109E+03  0.7818608E-02  0.1126818E+00
         21   -1    0    0  503  502  0.00000000000E+00  0.00000000000E+00  0.94927506795E+02  0.94927506795E+02  0.00000000000E+00 0. -1.
         21   -1    0    0  501  503 -0.00000000000E+00 -0.00000000000E+00 -0.55236400988E+03  0.55236400988E+03  0.00000000000E+00 0.  1.
          6    2    1    2  501    0  0.69502943686E+01  0.14801725786E+03 -0.23972897730E+03  0.33264302334E+03  0.17670309337E+03 0.  0.
         24    2    3    3    0    0  0.65019036773E+02  0.92489246765E+02 -0.19320762819E+03  0.23968246835E+03  0.85654901413E+02 0.  0.
         -6    2    1    2    0  502 -0.69502943686E+01 -0.14801725786E+03 -0.21770752579E+03  0.31464849333E+03  0.17219086026E+03 0.  0.
        -24    2    5    5    0    0  0.56239772981E+02 -0.12334598026E+03 -0.13610854057E+03  0.20843107038E+03  0.80875418849E+02 0.  0.
          5    1    3    3  501    0 -0.58068742404E+02  0.55528011093E+02 -0.46521349109E+02  0.92960554986E+02  0.47000000000E+01 0. -1.
        -11    1    4    4    0    0  0.49294405901E+02  0.10857425436E+03 -0.16581655080E+03  0.20423867333E+03  0.00000000000E+00 0.  1.
         12    1    4    4    0    0  0.15724630872E+02 -0.16085007596E+02 -0.27391077384E+02  0.35443795023E+02  0.00000000000E+00 0. -1.
         -5    1    5    5    0  502 -0.63190067349E+02 -0.24671277602E+02 -0.81598985213E+02  0.10621742295E+03  0.47000000000E+01 0.  1.
         11    1    6    6    0    0  0.53519859525E+02 -0.31942167573E+02 -0.78970947754E+02  0.10060361833E+03  0.00000000000E+00 0. -1.
        -12    1    6    6    0    0  0.27199134560E+01 -0.91403812683E+02 -0.57137592818E+02  0.10782745205E+03  0.00000000000E+00 0.  1.
</event>
<event>
12    1  0.8251070E-002  0.1944113E+03  0.7818608E-02  0.1154852E+00
         21   -1    0    0  503  502  0.00000000000E+00  0.00000000000E+00  0.21995818532E+03  0.21995818532E+03  0.00000000000E+00 0. -1.
         21   -1    0    0  501  503 -0.00000000000E+00 -0.00000000000E+00 -0.26725650352E+03  0.26725650352E+03  0.00000000000E+00 0. -1.
          6    2    1    2  501    0 -0.47339810680E+02 -0.82282614399E+02 -0.17021587654E+03  0.25839732863E+03  0.16965921285E+03 0.  0.
         24    2    3    3    0    0 -0.87726812040E+02 -0.94456767006E+02 -0.12260008215E+03  0.19461117224E+03  0.78896475425E+02 0.  0.
         -6    2    1    2    0  502  0.47339810680E+02  0.82282614399E+02  0.12291755834E+03  0.22881736022E+03  0.16803919745E+03 0.  0.
        -24    2    5    5    0    0  0.12230457179E+02  0.71081211331E+02  0.68907066507E+01  0.10698773144E+03  0.78719566527E+02 0.  0.
          5    1    3    3  501    0  0.40387001360E+02  0.12174152607E+02 -0.47615794395E+02  0.63786156385E+02  0.47000000000E+01 0. -1.
        -13    1    4    4    0    0  0.83292305521E+01 -0.54974392684E+01 -0.36680531370E+02  0.38013935625E+02  0.00000000000E+00 0.  1.
         14    1    4    4    0    0 -0.96056042592E+02 -0.88959327738E+02 -0.85919550778E+02  0.15659723662E+03  0.00000000000E+00 0. -1.
         -5    1    5    5    0  502  0.35109353501E+02  0.11201403068E+02  0.11602685169E+03  0.12182962877E+03  0.47000000000E+01 0.  1.
         11    1    6    6    0    0  0.12086687136E+02  0.82141251835E+02  0.24169195122E+02  0.86472095220E+02  0.00000000000E+00 0. -1.
        -12    1    6    6    0    0  0.14377004254E+00 -0.11060040504E+02 -0.17278488472E+02  0.20515636223E+02  0.00000000000E+00 0.  1.
</event>
<event>
12    1  0.8251070E-002  0.2113179E+03  0.7818608E-02  0.1140574E+00
         21   -1    0    0  501  502  0.00000000000E+00  0.00000000000E+00  0.26292251726E+03  0.26292251726E+03  0.00000000000E+00 0. -1.
         21   -1    0    0  502  503 -0.00000000000E+00 -0.00000000000E+00 -0.17438122159E+03  0.17438122159E+03  0.00000000000E+00 0.  1.
         -6    2    1    2    0  503 -0.11748675453E+03 -0.35774280677E+02  0.82285434227E+01  0.21123868273E+03  0.17167159202E+03 0.  0.
        -24    2    3    3    0    0 -0.57400026962E+01 -0.52617063534E+02 -0.25171376033E+00  0.97814608378E+02  0.82256496683E+02 0.  0.
          6    2    1    2  501    0  0.11748675453E+03  0.35774280677E+02  0.80312752248E+02  0.22606505613E+03  0.17196608613E+03 0.  0.
         24    2    5    5    0    0  0.46900305625E+01 -0.24327414688E+02  0.27213168860E+02  0.87584117078E+02  0.79477050228E+02 0.  0.
          5    1    5    5  501    0  0.11279672397E+03  0.60101695365E+02  0.53099583388E+02  0.13848093905E+03  0.47000000000E+01 0. -1.
        -11    1    6    6    0    0  0.65887439814E+01  0.25501426952E+02 -0.68257313491E+01  0.27208912737E+02  0.00000000000E+00 0.  1.
         12    1    6    6    0    0 -0.18987134190E+01 -0.49828841641E+02  0.34038900209E+02  0.60375204342E+02  0.00000000000E+00 0. -1.
         -5    1    3    3    0  503 -0.11174675184E+03  0.16842782857E+02  0.84802571830E+01  0.11342407435E+03  0.47000000000E+01 0.  1.
         11    1    4    4    0    0  0.15689813853E+02 -0.43306404949E+02  0.33364917185E+02  0.56875589378E+02  0.00000000000E+00 0. -1.
        -12    1    4    4    0    0 -0.21429816549E+02 -0.93106585851E+01 -0.33616630945E+02  0.40939019000E+02  0.00000000000E+00 0.  1.
</event>
<event>
12    1  0.8251070E-002  0.2085422E+03  0.7818608E-02  0.1143575E+00
         21   -1    0    0  503  502  0.00000000000E+00  0.00000000000E+00  0.39581776328E+03  0.39581776328E+03  0.00000000000E+00 0.  1.
         21   -1    0    0  501  503 -0.00000000000E+00 -0.00000000000E+00 -0.19439114033E+03  0.19439114033E+03  0.00000000000E+00 0.  1.
          6    2    1    2  501    0 -0.11510010120E+03  0.24096376797E+02 -0.95819458302E+02  0.22950212928E+03  0.17222424360E+03 0.  0.
         24    2    3    3    0    0 -0.62981399742E+02  0.84770661299E+02 -0.41838430053E+02  0.13289069490E+03  0.68969274547E+02 0.  0.
         -6    2    1    2    0  502  0.11510010120E+03 -0.24096376797E+02  0.29724608125E+03  0.36070677433E+03  0.16710917259E+03 0.  0.
        -24    2    5    5    0    0 -0.68057107286E+01 -0.11994315084E+02  0.11054159096E+03  0.13735023520E+03  0.80345892772E+02 0.  0.
          5    1    3    3  501    0 -0.52118701456E+02 -0.60674284502E+02 -0.53981028249E+02  0.96611434375E+02  0.47000000000E+01 0. -1.
        -11    1    4    4    0    0 -0.45573247066E+02  0.66971498903E+01 -0.17565622762E+02  0.49298314046E+02  0.00000000000E+00 0.  1.
         12    1    4    4    0    0 -0.17408152676E+02  0.78073511409E+02 -0.24272807291E+02  0.83592380855E+02  0.00000000000E+00 0. -1.
         -5    1    5    5    0  502  0.12190581193E+03 -0.12102061713E+02  0.18670449029E+03  0.22335653913E+03  0.47000000000E+01 0.  1.
         11    1    6    6    0    0 -0.19570640476E+02 -0.24649877313E+02  0.69782520223E+01  0.32238523872E+02  0.00000000000E+00 0. -1.
        -12    1    6    6    0    0  0.12764929747E+02  0.12655562229E+02  0.10356333894E+03  0.10511171133E+03  0.00000000000E+00 0.  1.
</event>
<event>
12    1  0.8251070E-002  0.1996617E+03  0.7818608E-02  0.1153246E+00
         21   -1    0    0  503  502  0.00000000000E+00  0.00000000000E+00  0.29873971617E+03  0.29873971617E+03  0.00000000000E+00 0. -1.
         21   -1    0    0  501  503 -0.00000000000E+00 -0.00000000000E+00 -0.15741598211E+03  0.15741598211E+03  0.00000000000E+00 0. -1.
          6    2    1    2  501    0 -0.69473997975E+02 -0.74590874609E+01 -0.32492081542E+02  0.20228819205E+03  0.18703610052E+03 0.  0.
         24    2    3    3    0    0  0.24950255159E+02  0.35508240716E+02  0.62063039455E+01  0.91464972863E+02  0.80274358677E+02 0.  0.
         -6    2    1    2    0  502  0.69473997975E+02  0.74590874609E+01  0.17381581561E+03  0.25386750623E+03  0.17133154580E+03 0.  0.
        -24    2    5    5    0    0  0.30435474386E+02  0.69596303852E+02  0.89845605302E+02  0.14225152976E+03  0.79958122267E+02 0.  0.
          5    1    3    3  501    0 -0.94424253134E+02 -0.42967328177E+02 -0.38698385487E+02  0.11082321918E+03  0.47000000000E+01 0. -1.
        -11    1    4    4    0    0  0.18597725393E+02 -0.10838898897E+02 -0.26680634399E+02  0.34281385197E+02  0.00000000000E+00 0.  1.
         12    1    4    4    0    0  0.63525297657E+01  0.46347139613E+02  0.32886938344E+02  0.57183587666E+02  0.00000000000E+00 0. -1.
         -5    1    5    5    0  502  0.39038523589E+02 -0.62137216391E+02  0.83970210307E+02  0.11161597647E+03  0.47000000000E+01 0.  1.
         11    1    6    6    0    0  0.20696352454E+02  0.35335469818E+01  0.69261936738E+02  0.72374310635E+02  0.00000000000E+00 0. -1.
        -12    1    6    6    0    0  0.97391219316E+01  0.66062756871E+02  0.20583668564E+02  0.69877219127E+02  0.00000000000E+00 0.  1.
</event>
<event>
12    1  0.8251070E-002  0.2125936E+03  0.7818608E-02  0.1140538E+00
         21   -1    0    0  503  502  0.00000000000E+00  0.00000000000E+00  0.25404911492E+03  0.25404911492E+03  0.00000000000E+00 0.  1.
         21   -1    0    0  501  503 -0.00000000000E+00 -0.00000000000E+00 -0.28959217172E+03  0.28959217172E+03  0.00000000000E+00 0.  1.
          6    2    1    2  501    0  0.11989825136E+03  0.37858160500E+02 -0.18962812320E+03  0.28108033540E+03  0.16504090052E+03 0.  0.
         24    2    3    3    0    0  0.82130073828E+02  0.21403625194E+02 -0.30245977425E+02  0.11639291828E+03  0.73681938603E+02 0.  0.
         -6    2    1    2    0  502 -0.11989825136E+03 -0.37858160500E+02  0.15408506640E+03  0.26256095124E+03  0.17142699447E+03 0.  0.
        -24    2    5    5    0    0 -0.50174303373E+02 -0.45956038900E+02  0.13681851377E+02  0.10551905445E+03  0.79483706286E+02 0.  0.
          5    1    3    3  501    0  0.37768177535E+02  0.16454535306E+02 -0.15938214577E+03  0.16468741712E+03  0.47000000000E+01 0. -1.
        -13    1    4    4    0    0  0.50686405995E+01  0.32567362108E+02 -0.18048299664E+02  0.37577457511E+02  0.00000000000E+00 0.  1.
         14    1    4    4    0    0  0.77061433228E+02 -0.11163736914E+02 -0.12197677761E+02  0.78815460767E+02  0.00000000000E+00 0. -1.
         -5    1    5    5    0  502 -0.69723947989E+02  0.80978783996E+01  0.14040321503E+03  0.15704189679E+03  0.47000000000E+01 0.  1.
         11    1    6    6    0    0 -0.67324549776E+02 -0.46940785540E+02 -0.22298380828E+01  0.82103620673E+02  0.00000000000E+00 0. -1.
        -12    1    6    6    0    0  0.17150246403E+02  0.98474664002E+00  0.15911689460E+02  0.23415433779E+02  0.00000000000E+00 0.  1.
</event>
<event>
12    1  0.8251070E-002  0.2251632E+03  0.7818608E-02  0.1130274E+00
         21   -1    0    0  503  502  0.00000000000E+00  0.00000000000E+00  0.28145171029E+03  0.28145171029E+03  0.00000000000E+00 0. -1.
         21   -1    0    0  501  503 -0.00000000000E+00 -0.00000000000E+00 -0.27460150374E+03  0.27460150374E+03  0.00000000000E+00 0. -1.
          6    2    1    2  501    0  0.14372158009E+03 -0.15930860778E+02 -0.16034609922E+03  0.27560168546E+03  0.17127677188E+03 0.  0.
         24    2    3    3    0    0  0.52597657086E+02  0.51882297213E+02 -0.69816145994E+02  0.13027461926E+03  0.81479420015E+02 0.  0.
         -6    2    1    2    0  502 -0.14372158009E+03  0.15930860778E+02  0.16719630578E+03  0.28045152856E+03  0.17259423599E+03 0.  0.
        -24    2    5    5    0    0 -0.17185094647E+03  0.31755291636E+02  0.14244779649E+03  0.23950946491E+03  0.80822414606E+02 0.  0.
          5    1    3    3  501    0  0.91123923009E+02 -0.67813157991E+02 -0.90529953226E+02  0.14532706621E+03  0.47000000000E+01 0. -1.
        -11    1    4    4    0    0  0.38265500142E+02  0.27091107164E+01  0.59501698606E+01  0.38819998755E+02  0.00000000000E+00 0.  1.
         12    1    4    4    0    0  0.14332156944E+02  0.49173186497E+02 -0.75766315854E+02  0.91454620501E+02  0.00000000000E+00 0. -1.
         -5    1    5    5    0  502  0.28129366379E+02 -0.15824430859E+02  0.24748509284E+02  0.40942063659E+02  0.47000000000E+01 0.  1.
         11    1    6    6    0    0 -0.83575941877E+01  0.26178258070E+02  0.31730688608E+02  0.41976030967E+02  0.00000000000E+00 0. -1.
        -12    1    6    6    0    0 -0.16349335229E+03  0.55770335661E+01  0.11071710789E+03  0.19753343394E+03  0.00000000000E+00 0.  1.
</event>
<event>
12    1  0.8251070E-002  0.1984591E+03  0.7818608E-02  0.1152552E+00
         21   -1    0    0  503  502  0.00000000000E+00  0.00000000000E+00  0.58274418457E+03  0.58274418457E+03  0.00000000000E+00 0. -1.
         21   -1    0    0  501  503 -0.00000000000E+00 -0.00000000000E+00 -0.70645198336E+02  0.70645198336E+02  0.00000000000E+00 0. -1.
          6    2    1    2  501    0  0.69091279666E+02  0.70885917222E+02  0.16994401343E+03  0.26127952850E+03  0.17201048262E+03 0.  0.
         24    2    3    3    0    0  0.58262409819E+02  0.58501254639E+02  0.19767587641E+03  0.22869440132E+03  0.80052931789E+02 0.  0.
         -6    2    1    2    0  502 -0.69091279666E+02 -0.70885917222E+02  0.34215497281E+03  0.39210985440E+03  0.16395637931E+03 0.  0.
        -24    2    5    5    0    0 -0.67779633833E+02 -0.16495857855E+02  0.31279859168E+03  0.33011077307E+03  0.79145255411E+02 0.  0.
          5    1    3    3  501    0  0.10828869846E+02  0.12384662583E+02 -0.27731862981E+02  0.32585127188E+02  0.47000000000E+01 0. -1.
        -13    1    4    4    0    0  0.49508215493E+02  0.25837032289E+00  0.53191441421E+02  0.72666770927E+02  0.00000000000E+00 0.  1.
         14    1    4    4    0    0  0.87541943262E+01  0.58242884316E+02  0.14448443499E+03  0.15602763039E+03  0.00000000000E+00 0. -1.
         -5    1    5    5    0  502 -0.13116458327E+01 -0.54390059367E+02  0.29356381131E+02  0.61999081331E+02  0.47000000000E+01 0.  1.
         11    1    6    6    0    0 -0.51791851071E+02 -0.35694087191E+02  0.11801146522E+03  0.13372796873E+03  0.00000000000E+00 0. -1.
        -12    1    6    6    0    0 -0.15987782762E+02  0.19198229336E+02  0.19478712645E+03  0.19638280434E+03  0.00000000000E+00 0.  1.
</event>
<event>
12    1  0.8251070E-002  0.2138043E+03  0.7818608E-02  0.1138687E+00
         21   -1    0    0  503  502  0.00000000000E+00  0.00000000000E+00  0.12714217553E+04  0.12714217553E+04  0.00000000000E+00 0.  1.
         21   -1    0    0  501  503 -0.00000000000E+00 -0.00000000000E+00 -0.25768356745E+03  0.25768356745E+03  0.00000000000E+00 0.  1.
          6    2    1    2  501    0  0.69467238112E+02  0.10589863519E+03 -0.20239578868E+03  0.29440841519E+03  0.17225574461E+03 0.  0.
         24    2    3    3    0    0  0.86558998948E+02  0.63903527975E+02 -0.64831567553E+02  0.14948870551E+03  0.81040852274E+02 0.  0.
         -6    2    1    2    0  502 -0.69467238112E+02 -0.10589863519E+03  0.12161339765E+04  0.12346969076E+04  0.17162280319E+03 0.  0.
        -24    2    5    5    0    0  0.24962136849E+02 -0.24629320368E+02  0.57737533130E+03  0.58388487230E+03  0.79558526963E+02 0.  0.
          5    1    3    3  501    0 -0.17091760835E+02  0.41995107212E+02 -0.13756422113E+03  0.14491970968E+03  0.47000000000E+01 0. -1.
        -13    1    4    4    0    0  0.34172912455E+02  0.25225730755E+02 -0.72393037673E+02  0.83933767587E+02  0.00000000000E+00 0.  1.
         14    1    4    4    0    0  0.52386086492E+02  0.38677797219E+02  0.75614701204E+01  0.65554937923E+02  0.00000000000E+00 0. -1.
         -5    1    5    5    0  502 -0.94429374961E+02 -0.81269314818E+02  0.63875864523E+03  0.65081203526E+03  0.47000000000E+01 0.  1.
         11    1    6    6    0    0  0.22997415655E+02  0.10085572099E+02  0.56249718481E+02  0.61600574028E+02  0.00000000000E+00 0. -1.
        -12    1    6    6    0    0  0.19647211935E+01 -0.34714892468E+02  0.52112561282E+03  0.52228429828E+03  0.00000000000E+00 0.  1.
</event>
<event>
12    1  0.8251070E-002  0.2762369E+03  0.7818608E-02  0.1097810E+00
         21   -1    0    0  501  502  0.00000000000E+00  0.00000000000E+00  0.20289483734E+03  0.20289483734E+03  0.00000000000E+00 0. -1.
         21   -1    0    0  502  503 -0.00000000000E+00 -0.00000000000E+00 -0.41580095773E+03  0.41580095773E+03  0.00000000000E+00 0.  1.
         -6    2    1    2    0  503  0.20992945065E+03 -0.51163860606E+02 -0.20255825337E+03  0.34226515795E+03  0.17154438918E+03 0.  0.
        -24    2    3    3    0    0  0.89495158981E+02  0.26919047085E+02 -0.50486290307E+02  0.13310175046E+03  0.80207181041E+02 0.  0.
          6    2    1    2  501    0 -0.20992945065E+03  0.51163860606E+02 -0.10347867022E+02  0.27643063711E+03  0.17210085387E+03 0.  0.
         24    2    5    5    0    0 -0.93121700481E+02  0.30908541468E+02 -0.68502042907E+02  0.14430067600E+03  0.80642210873E+02 0.  0.
          5    1    5    5  501    0 -0.11680775017E+03  0.20255319139E+02  0.58154175885E+02  0.13212996112E+03  0.47000000000E+01 0. -1.
        -11    1    6    6    0    0 -0.39976037805E+02  0.55329048482E+02 -0.41455460843E+02  0.79862021251E+02  0.00000000000E+00 0.  1.
         12    1    6    6    0    0 -0.53145662676E+02 -0.24420507014E+02 -0.27046582064E+02  0.64438654746E+02  0.00000000000E+00 0. -1.
         -5    1    3    3    0  503  0.12043429166E+03 -0.78082907692E+02 -0.15207196306E+03  0.20916340749E+03  0.47000000000E+01 0.  1.
         13    1    4    4    0    0  0.81780606804E+02 -0.12383301196E+02 -0.28994697030E+02  0.87647625488E+02  0.00000000000E+00 0. -1.
        -14    1    4    4    0    0  0.77145521771E+01  0.39302348282E+02 -0.21491593277E+02  0.45454124976E+02  0.00000000000E+00 0.  1.
</event>
<event>
12    1  0.8251070E-002  0.1717072E+03  0.7818608E-02  0.1176619E+00
         21   -1    0    0  501  502  0.00000000000E+00  0.00000000000E+00  0.26373700898E+03  0.26373700898E+03  0.00000000000E+00 0. -1.
         21   -1    0    0  502  503 -0.00000000000E+00 -0.00000000000E+00 -0.76819992098E+03  0.76819992098E+03  0.00000000000E+00 0. -1.
         -6    2    1    2    0  503 -0.13214134804E+02  0.36327049521E+01 -0.72989288651E+03  0.74981797730E+03  0.17115946778E+03 0.  0.
        -24    2    3    3    0    0 -0.34720436762E+02  0.37960082070E+02 -0.66287020370E+03  0.67136404270E+03  0.93200291432E+02 0.  0.
          6    2    1    2  501    0  0.13214134804E+02 -0.36327049521E+01  0.22542997450E+03  0.28211895266E+03  0.16906986763E+03 0.  0.
         24    2    5    5    0    0  0.50145436670E+02 -0.43499629069E+02  0.19692120243E+03  0.22057114375E+03  0.73938399635E+02 0.  0.
          5    1    5    5  501    0 -0.36931301866E+02  0.39866924117E+02  0.28508772074E+02  0.61547808907E+02  0.47000000000E+01 0. -1.
        -11    1    6    6    0    0  0.39319368367E+02 -0.17107278096E+02  0.32791985299E+02  0.53981348561E+02  0.00000000000E+00 0.  1.
         12    1    6    6    0    0  0.10826068302E+02 -0.26392350972E+02  0.16412921713E+03  0.16658979519E+03  0.00000000000E+00 0. -1.
         -5    1    3    3    0  503  0.21506301958E+02 -0.34327377118E+02 -0.67022682807E+02  0.78453934601E+02  0.47000000000E+01 0.  1.
         11    1    4    4    0    0  0.20931417963E+02  0.28911619383E+02 -0.44098953158E+03  0.44243165908E+03  0.00000000000E+00 0. -1.
        -12    1    4    4    0    0 -0.55651854725E+02  0.90484626864E+01 -0.22188067212E+03  0.22893238363E+03  0.00000000000E+00 0.  1.
</event>
<event>
12    1  0.8251070E-002  0.2222041E+03  0.7818608E-02  0.1132322E+00
         21   -1    0    0  501  502  0.00000000000E+00  0.00000000000E+00  0.11633079530E+03  0.11633079530E+03  0.00000000000E+00 0.  1.
         21   -1    0    0  502  503 -0.00000000000E+00 -0.00000000000E+00 -0.47664664485E+03  0.47664664485E+03  0.00000000000E+00 0.  1.
         -6    2    1    2    0  503 -0.31348462956E+02 -0.13728113740E+03 -0.81194012105E+02  0.23620906886E+03  0.17138675502E+03 0.  0.
        -24    2    3    3    0    0 -0.54607675043E+02 -0.85640502383E+02 -0.11271594325E+03  0.17122085243E+03  0.79343573292E+02 0.  0.
          6    2    1    2  501    0  0.31348462956E+02  0.13728113740E+03 -0.27912183745E+03  0.35676837129E+03  0.17188901592E+03 0.  0.
         24    2    5    5    0    0 -0.13758926373E+02  0.95464321785E+02 -0.27010555784E+03  0.29442491984E+03  0.66530265713E+02 0.  0.
          5    1    5    5  501    0  0.45107389329E+02  0.41816815615E+02 -0.90162796061E+01  0.62343451446E+02  0.47000000000E+01 0. -1.
        -11    1    6    6    0    0  0.26964506368E+02  0.41428295522E+02 -0.10877371059E+03  0.11947848505E+03  0.00000000000E+00 0.  1.
         12    1    6    6    0    0 -0.40723432741E+02  0.54036026263E+02 -0.16133184725E+03  0.17494643479E+03  0.00000000000E+00 0. -1.
         -5    1    3    3    0  503  0.23259212087E+02 -0.51640635017E+02  0.31521931144E+02  0.64988216431E+02  0.47000000000E+01 0.  1.
         13    1    4    4    0    0 -0.34813557907E+02 -0.93145813899E+02 -0.64401745790E+02  0.11847240743E+03  0.00000000000E+00 0. -1.
        -14    1    4    4    0    0 -0.19794117136E+02  0.75053115158E+01 -0.48314197459E+02  0.52748445003E+02  0.00000000000E+00 0.  1.
</event>
<event>
12    1  0.8251070E-002  0.1828701E+03  0.7818608E-02  0.1165526E+00
         21   -1    0    0  501  502  0.00000000000E+00  0.00000000000E+00  0.62679621493E+03  0.62679621493E+03  0.00000000000E+00 0.  1.
         21   -1    0    0  502  503 -0.00000000000E+00 -0.00000000000E+00 -0.53208113064E+02  0.53208113064E+02  0.00000000000E+00 0.  1.
         -6    2    1    2    0  503  0.19553014268E+02  0.56760851876E+02  0.25773859502E+03  0.31602316718E+03  0.17273489559E+03 0.  0.
        -24    2    3    3    0    0 -0.51383837644E+01 -0.37971635082E+02  0.11029153902E+03  0.13897336191E+03  0.75373229213E+02 0.  0.
          6    2    1    2  501    0 -0.19553014268E+02 -0.56760851876E+02  0.31584950685E+03  0.36398116082E+03  0.17063780291E+03 0.  0.
         24    2    5    5    0    0 -0.74451399790E+02 -0.91187258774E+01  0.17028942426E+03  0.20121312788E+03  0.76564173909E+02 0.  0.
          5    1    5    5  501    0  0.54898385522E+02 -0.47642125998E+02  0.14556008259E+03  0.16276803294E+03  0.47000000000E+01 0. -1.
        -13    1    6    6    0    0 -0.44048176866E+02 -0.97768146932E+01  0.16408600728E+03  0.17017651358E+03  0.00000000000E+00 0.  1.
         14    1    6    6    0    0 -0.30403222924E+02  0.65808881581E+00  0.62034169801E+01  0.31036614301E+02  0.00000000000E+00 0. -1.
         -5    1    3    3    0  503  0.24691398032E+02  0.94732486958E+02  0.14744705601E+03  0.17704980527E+03  0.47000000000E+01 0.  1.
         13    1    4    4    0    0 -0.39480665166E+02 -0.14738794148E+02  0.45201843445E+02  0.61799365901E+02  0.00000000000E+00 0. -1.
        -14    1    4    4    0    0  0.34342281401E+02 -0.23232840934E+02  0.65089695572E+02  0.77173996005E+02  0.00000000000E+00 0.  1.
</event>
<event>
12    1  0.8251070E-002  0.2123015E+03  0.7818608E-02  0.1141543E+00
         21   -1    0    0  503  502  0.00000000000E+00  0.00000000000E+00  0.68253809463E+03  0.68253809463E+03  0.00000000000E+00 0. -1.
         21   -1    0    0  501  503 -0.00000000000E+00 -0.00000000000E+00 -0.10484040059E+03  0.10484040059E+03  0.00000000000E+00 0. -1.
          6    2    1    2  501    0 -0.64637896842E+01  0.10495162204E+03  0.37265575146E+02  0.20674193682E+03  0.17405999485E+03 0.  0.
         24    2    3    3    0    0  0.34693029866E+02  0.10115461263E+03 -0.21489453266E+02  0.13475204559E+03  0.79123038442E+02 0.  0.
         -6    2    1    2    0  502  0.64637896842E+01 -0.10495162204E+03  0.54043211890E+03  0.58063655840E+03  0.18443241112E+03 0.  0.
        -24    2    5    5    0    0  0.60104194032E+02 -0.31087243181E+02  0.39628144017E+03  0.40994752061E+03  0.80243747468E+02 0.  0.
          5    1    3    3  501    0 -0.41156819550E+02  0.37970094086E+01  0.58755028412E+02  0.71989891232E+02  0.47000000000E+01 0. -1.
        -13    1    4    4    0    0 -0.17442031287E+02  0.70325594009E+02 -0.11244428602E+02  0.73323603312E+02  0.00000000000E+00 0.  1.
         14    1    4    4    0    0  0.52135061154E+02  0.30829018619E+02 -0.10245024664E+02  0.61428442279E+02  0.00000000000E+00 0. -1.
         -5    1    5    5    0  502 -0.53640404347E+02 -0.73864378856E+02  0.14415067873E+03  0.17068903779E+03  0.47000000000E+01 0.  1.
         11    1    6    6    0    0  0.17134920785E+02  0.26410308131E+02  0.89333274845E+02  0.94718234150E+02  0.00000000000E+00 0. -1.
        -12    1    6    6    0    0  0.42969273246E+02 -0.57497551312E+02  0.30694816532E+03  0.31522928646E+03  0.00000000000E+00 0.  1.
</event>
<event>
12    1  0.8251070E-002  0.1748221E+03  0.7818608E-02  0.1172992E+00
         21   -1    0    0  503  502  0.00000000000E+00  0.00000000000E+00  0.44316436533E+02  0.44316436533E+02  0.00000000000E+00 0.  1.
         21   -1    0    0  501  503 -0.00000000000E+00 -0.00000000000E+00 -0.19231097872E+04  0.19231097872E+04  0.00000000000E+00 0.  1.
          6    2    1    2  501    0 -0.24994848227E+02 -0.12735709108E+02 -0.17273167295E+04  0.17361084158E+04  0.17222777564E+03 0.  0.
         24    2    3    3    0    0  0.50830138225E+02 -0.23480473664E+02 -0.10843855134E+04  0.10886151593E+04  0.77820227939E+02 0.  0.
         -6    2    1    2    0  502  0.24994848227E+02  0.12735709108E+02 -0.15147662110E+03  0.23131780786E+03  0.17255671754E+03 0.  0.
        -24    2    5    5    0    0 -0.38703801780E+02 -0.22921506517E+01 -0.13804098759E+03  0.16434049207E+03  0.80307190552E+02 0.  0.
          5    1    3    3  501    0 -0.75824986451E+02  0.10744764555E+02 -0.64293121613E+03  0.64749325650E+03  0.47000000000E+01 0. -1.
        -11    1    4    4    0    0  0.12788809788E+02 -0.29955268933E+02 -0.88096641669E+03  0.88156831790E+03  0.00000000000E+00 0.  1.
         12    1    4    4    0    0  0.38041328437E+02  0.64747952691E+01 -0.20341909671E+03  0.20704684144E+03  0.00000000000E+00 0. -1.
         -5    1    5    5    0  502  0.63698650007E+02  0.15027859760E+02 -0.13435633510E+02  0.66977315783E+02  0.47000000000E+01 0.  1.
         11    1    6    6    0    0 -0.68827584896E+01 -0.36501879776E+02 -0.89820258152E+02  0.97197933960E+02  0.00000000000E+00 0. -1.
        -12    1    6    6    0    0 -0.31821043291E+02  0.34209729124E+02 -0.48220729434E+02  0.67142558113E+02  0.00000000000E+00 0.  1.
</event>
<event>
12    1  0.8251070E-002  0.2205601E+03  0.7818608E-02  0.1133805E+00
         21   -1    0    0  503  502  0.00000000000E+00  0.00000000000E+00  0.40257446312E+03  0.40257446312E+03  0.00000000000E+00 0.  1.
         21   -1    0    0  501  503 -0.00000000000E+00 -0.00000000000E+00 -0.15457689731E+03  0.15457689731E+03  0.00000000000E+00 0. -1.
          6    2    1    2  501    0  0.90810477528E+02 -0.10276049070E+03 -0.84448117671E+01  0.21890672671E+03  0.17041883368E+03 0.  0.
         24    2    3    3    0    0  0.99325145397E+02 -0.27857975423E+02 -0.40200838040E+02  0.13697125473E+03  0.80644069469E+02 0.  0.
         -6    2    1    2    0  502 -0.90810477528E+02  0.10276049070E+03  0.25644237757E+03  0.33824463372E+03  0.17274396646E+03 0.  0.
        -24    2    5    5    0    0 -0.94694329741E+02  0.13510688295E+03  0.18642931230E+03  0.26087996021E+03  0.77984480803E+02 0.  0.
          5    1    3    3  501    0 -0.85146678687E+01 -0.74902515274E+02  0.31756026273E+02  0.81935471976E+02  0.47000000000E+01 0. -1.
        -13    1    4    4    0    0  0.44364765658E+02  0.27349604790E+02 -0.24119154764E+02  0.57427928228E+02  0.00000000000E+00 0.  1.
         14    1    4    4    0    0  0.54960379739E+02 -0.55207580213E+02 -0.16081683276E+02  0.79543326502E+02  0.00000000000E+00 0. -1.
         -5    1    5    5    0  502  0.38838522128E+01 -0.32346392252E+02  0.70013065267E+02  0.77364673514E+02  0.47000000000E+01 0.  1.
         11    1    6    6    0    0 -0.44927640696E+02  0.12251986514E+03  0.12353143903E+03  0.17969314589E+03  0.00000000000E+00 0. -1.
        -12    1    6    6    0    0 -0.49766689045E+02  0.12587017809E+02  0.62897873278E+02  0.81186814315E+02  0.00000000000E+00 0.  1.
</event>
<event>
12    1  0.8251070E-002  0.1888885E+03  0.7818608E-02  0.1159748E+00
         21   -1    0    0  501  502  0.00000000000E+00  0.00000000000E+00  0.96450804378E+03  0.96450804378E+03  0.00000000000E+00 0. -1.
         21   -1    0    0  502  503 -0.00000000000E+00 -0.00000000000E+00 -0.36969131799E+02  0.36969131799E+02  0.00000000000E+00 0. -1.
         -6    2    1    2    0  503  0.27592687142E+02  0.67989925235E+02  0.42684526270E+03  0.46677161697E+03  0.17405423812E+03 0.  0.
        -24    2    3    3    0    0  0.55090614432E+02  0.57177316806E+02  0.14622227388E+03  0.18455822190E+03  0.79853381495E+02 0.  0.
          6    2    1    2  501    0 -0.27592687142E+02 -0.67989925235E+02  0.50069364928E+03  0.53470555861E+03  0.17271918728E+03 0.  0.
         24    2    5    5    0    0  0.13459870588E+02  0.55490398421E+01  0.37357914341E+03  0.38214907895E+03  0.79149113665E+02 0.  0.
          5    1    5    5  501    0 -0.41052557730E+02 -0.73538965077E+02  0.12711450588E+03  0.15255647966E+03  0.47000000000E+01 0. -1.
        -13    1    6    6    0    0  0.14433298864E+01  0.17350402994E+02  0.14451348238E+02  0.22626558535E+02  0.00000000000E+00 0.  1.
         14    1    6    6    0    0  0.12016540701E+02 -0.11801363152E+02  0.35912779517E+03  0.35952252041E+03  0.00000000000E+00 0. -1.
         -5    1    3    3    0  503 -0.27497927290E+02  0.10812608429E+02  0.28062298881E+03  0.28221339507E+03  0.47000000000E+01 0.  1.
         13    1    4    4    0    0  0.67536860836E+02  0.49107513360E+02  0.14768028983E+03  0.16965330366E+03  0.00000000000E+00 0. -1.
        -14    1    4    4    0    0 -0.12446246404E+02  0.80698034463E+01 -0.14580159451E+01  0.14904918239E+02  0.00000000000E+00 0.  1.
</event>
<event>
12    1  0.8251070E-002  0.2045862E+03  0.7818608E-02  0.1148956E+00
         21   -1    0    0  501  502  0.00000000000E+00  0.00000000000E+00  0.37828433274E+03  0.37828433274E+03  0.00000000000E+00 0. -1.
         21   -1    0    0  502  503 -0.00000000000E+00 -0.00000000000E+00 -0.14870329755E+03  0.14870329755E+03  0.00000000000E+00 0. -1.
         -6    2    1    2    0  503 -0.44717067771E+02  0.65616103063E+02 -0.33960734185E+02  0.19335645097E+03  0.17299796685E+03 0.  0.
        -24    2    3    3    0    0 -0.26962901717E+01 -0.24348073332E+02 -0.45107253363E+02  0.93328286563E+02  0.77944891501E+02 0.  0.
          6    2    1    2  501    0  0.44717067771E+02 -0.65616103063E+02  0.26354176937E+03  0.33363117932E+03  0.18854816489E+03 0.  0.
         24    2    5    5    0    0  0.87514260629E+02 -0.95808091736E+02  0.19615445230E+03  0.24815430293E+03  0.79158402259E+02 0.  0.
          5    1    5    5  501    0 -0.42797192857E+02  0.30191988673E+02  0.67387317069E+02  0.85476876395E+02  0.47000000000E+01 0. -1.
        -11    1    6    6    0    0 -0.94306534311E+01 -0.10429831992E+02  0.97228666503E+00  0.14094820356E+02  0.00000000000E+00 0.  1.
         12    1    6    6    0    0  0.96944914060E+02 -0.85378259744E+02  0.19518216564E+03  0.23405948257E+03  0.00000000000E+00 0. -1.
         -5    1    3    3    0  503 -0.42020777600E+02  0.89964176395E+02  0.11146519178E+02  0.10002816441E+03  0.47000000000E+01 0.  1.
         11    1    4    4    0    0 -0.71404882777E+01  0.27804040341E+02 -0.10431283020E+02  0.30542804350E+02  0.00000000000E+00 0. -1.
        -12    1    4    4    0    0  0.44441981060E+01 -0.52152113673E+02 -0.34675970343E+02  0.62785482212E+02  0.00000000000E+00 0.  1.
</event>
<event>
12    1  0.8251070E-002  0.1805711E+03  0.7818608E-02  0.1167545E+00
         21   -1    0    0  503  502  0.00000000000E+00  0.00000000000E+00  0.43626024190E+02  0.43626024190E+02  0.00000000000E+00 0. -1.
         21   -1    0    0  501  503 -0.00000000000E+00 -0.00000000000E+00 -0.14980937299E+04  0.14980937299E+04  0.00000000000E+00 0. -1.
          6    2    1    2  501    0 -0.43218018345E+02  0.41559838715E+02 -0.12735179907E+04  0.12860857657E+04  0.16903699772E+03 0.  0.
         24    2    3    3    0    0 -0.36184475663E+02 -0.39668746958E+02 -0.59765290940E+03  0.60530441161E+03  0.79507891651E+02 0.  0.
         -6    2    1    2    0  502  0.43218018345E+02 -0.41559838715E+02 -0.18094971500E+03  0.25563398845E+03  0.17032592108E+03 0.  0.
        -24    2    5    5    0    0  0.79721946360E+02  0.11416425020E+02 -0.13395487487E+03  0.17582404999E+03  0.80524931294E+02 0.  0.
          5    1    3    3  501    0 -0.70335426824E+01  0.81228585673E+02 -0.67586508134E+03  0.68078135406E+03  0.47000000000E+01 0. -1.
        -13    1    4    4    0    0 -0.34629645937E+02 -0.12258816538E+02 -0.94289743898E+02  0.10119311619E+03  0.00000000000E+00 0.  1.
         14    1    4    4    0    0 -0.15548297258E+01 -0.27409930421E+02 -0.50336316551E+03  0.50411129542E+03  0.00000000000E+00 0. -1.
         -5    1    5    5    0  502 -0.36503928015E+02 -0.52976263735E+02 -0.46994840124E+02  0.79809938467E+02  0.47000000000E+01 0.  1.
         11    1    6    6    0    0  0.84989233981E+02 -0.72726356892E+01 -0.13079448302E+03  0.15615139420E+03  0.00000000000E+00 0. -1.
        -12    1    6    6    0    0 -0.52672876202E+01  0.18689060709E+02 -0.31603918544E+01  0.19672655787E+02  0.00000000000E+00 0.  1.
</event>
<event>
12    1  0.8251070E-002  0.1894509E+03  0.7818608E-02  0.1159053E+00
         21   -1    0    0  503  502  0.00000000000E+00  0.00000000000E+00  0.83875738131E+03  0.83875738131E+03  0.00000000000E+00 0. -1.
         21   -1    0    0  501  503 -0.00000000000E+00 -0.00000000000E+00 -0.51703776939E+02  0.51703776939E+02  0.00000000000E+00 0. -1.
          6    2    1    2  501    0  0.80607942907E+02 -0.11589430045E+02  0.20733447554E+03  0.28057108035E+03  0.17058895342E+03 0.  0.
         24    2    3    3    0    0  0.30202094825E+02  0.53377248963E+02  0.14746909139E+03  0.17875078216E+03  0.80270866264E+02 0.  0.
         -6    2    1    2    0  502 -0.80607942907E+02  0.11589430045E+02  0.57971912883E+03  0.60989007790E+03  0.17105462124E+03 0.  0.
        -24    2    5    5    0    0 -0.63553706408E+01  0.46544083774E+02  0.42117457743E+03  0.43130190057E+03  0.80165842413E+02 0.  0.
          5    1    3    3  501    0  0.50405848082E+02 -0.64966679008E+02  0.59865384156E+02  0.10182029818E+03  0.47000000000E+01 0. -1.
        -13    1    4    4    0    0 -0.88879442329E+01  0.41361691137E+02  0.23899282294E+02  0.48589718466E+02  0.00000000000E+00 0.  1.
         14    1    4    4    0    0  0.39090039058E+02  0.12015557826E+02  0.12356980909E+03  0.13016106370E+03  0.00000000000E+00 0. -1.
         -5    1    5    5    0  502 -0.74252572266E+02 -0.34954653729E+02  0.15854455139E+03  0.17858817733E+03  0.47000000000E+01 0.  1.
         13    1    6    6    0    0  0.26689372600E+02  0.93535260903E+01  0.28362833818E+03  0.28503481416E+03  0.00000000000E+00 0. -1.
        -14    1    6    6    0    0 -0.33044743240E+02  0.37190557684E+02  0.13754623925E+03  0.14626708642E+03  0.00000000000E+00 0.  1.
</event>
<event>
12    1  0.8251070E-002  0.2282687E+03  0.7818608E-02  0.1130251E+00
         21   -1    0    0  503  502  0.00000000000E+00  0.00000000000E+00  0.19231854127E+03  0.19231854127E+03  0.00000000000E+00 0. -1.
         21   -1    0    0  501  503 -0.00000000000E+00 -0.00000000000E+00 -0.27925708364E+03  0.27925708364E+03  0.00000000000E+00 0.  1.
          6    2    1    2  501    0 -0.69702043884E+02  0.10794429198E+03 -0.11073959652E+03  0.24206948299E+03  0.17269635568E+03 0.  0.
         24    2    3    3    0    0 -0.28788379498E+02  0.15171645821E+02 -0.12071465856E+03  0.14007789671E+03  0.63173085446E+02 0.  0.
         -6    2    1    2    0  502  0.69702043884E+02 -0.10794429198E+03  0.23801054149E+02  0.22950614192E+03  0.18866964225E+03 0.  0.
        -24    2    5    5    0    0  0.11507821331E+02  0.77109529312E+01  0.49625982814E+02  0.97401183064E+02  0.82658112398E+02 0.  0.
          5    1    3    3  501    0 -0.40913664387E+02  0.92772646156E+02  0.99750620443E+01  0.10199158628E+03  0.47000000000E+01 0. -1.
        -11    1    4    4    0    0  0.52934210838E+01 -0.20140039240E+02 -0.25181293310E+02  0.32676276106E+02  0.00000000000E+00 0.  1.
         12    1    4    4    0    0 -0.34081800581E+02  0.35311685061E+02 -0.95533365250E+02  0.10740162061E+03  0.00000000000E+00 0. -1.
         -5    1    5    5    0  502  0.58194222553E+02 -0.11565524491E+03 -0.25824928665E+02  0.13210495885E+03  0.47000000000E+01 0.  1.
         11    1    6    6    0    0  0.41204919197E+02 -0.17582429021E+02  0.26922883480E+02  0.52266899957E+02  0.00000000000E+00 0. -1.
        -12    1    6    6    0    0 -0.29697097865E+02  0.25293381952E+02  0.22703099335E+02  0.45134283107E+02  0.00000000000E+00 0.  1.
</event>
<event>
12    1  0.8251070E-002  0.2547644E+03  0.7818608E-02  0.1110382E+00
         21   -1    0    0  501  502  0.00000000000E+00  0.00000000000E+00  0.32529159521E+02  0.32529159521E+02  0.00000000000E+00 0.  1.
         21   -1    0    0  502  503 -0.00000000000E+00 -0.00000000000E+00 -0.20113783234E+04  0.20113783234E+04  0.00000000000E+00 0.  1.
         -6    2    1    2    0  503 -0.14656337882E+03  0.11679575245E+03 -0.10873117278E+04  0.11166837297E+04  0.17208627733E+03 0.  0.
        -24    2    3    3    0    0 -0.95349343029E+02  0.14833449705E+03 -0.81950595532E+03  0.84216671443E+03  0.80994714962E+02 0.  0.
          6    2    1    2  501    0  0.14656337882E+03 -0.11679575245E+03 -0.89153743601E+03  0.92722375321E+03  0.17257698833E+03 0.  0.
         24    2    5    5    0    0  0.49674420819E+02 -0.88732982208E+02 -0.68814327725E+03  0.70014169078E+03  0.79474064539E+02 0.  0.
          5    1    5    5  501    0  0.96888958001E+02 -0.28062770242E+02 -0.20339415877E+03  0.22708206243E+03  0.47000000000E+01 0. -1.
        -11    1    6    6    0    0  0.47255690874E+02 -0.97911908344E+02 -0.49651478075E+03  0.50827824035E+03  0.00000000000E+00 0.  1.
         12    1    6    6    0    0  0.24187299446E+01  0.91789261356E+01 -0.19162849650E+03  0.19186345043E+03  0.00000000000E+00 0. -1.
         -5    1    3    3    0  503 -0.51214035791E+02 -0.31538744596E+02 -0.26780577251E+03  0.27451701525E+03  0.47000000000E+01 0.  1.
         13    1    4    4    0    0 -0.21163214649E+02 -0.16645619885E+01 -0.44555095847E+02  0.49353915618E+02  0.00000000000E+00 0. -1.
        -14    1    4    4    0    0 -0.74186128380E+02  0.14999905903E+03 -0.77495085948E+03  0.79281279881E+03  0.00000000000E+00 0.  1.
</event>
<event>
12    1  0.8251070E-002  0.2283194E+03  0.7818608E-02  0.1128291E+00
         21   -1    0    0  501  502  0.00000000000E+00  0.00000000000E+00  0.54245172354E+03  0.54245172354E+03  0.00000000000E+00 0.  1.
         21   -1    0    0  502  503 -0.00000000000E+00 -0.00000000000E+00 -0.17608907430E+03  0.17608907430E+03  0.00000000000E+00 0.  1.
         -6    2    1    2    0  503  0.14910883997E+03  0.11886268730E+02 -0.61162502320E+02  0.23386823720E+03  0.16905256916E+03 0.  0.
        -24    2    3    3    0    0  0.13671867026E+03 -0.89312267637E+01  0.98875926353E+01  0.15865460534E+03  0.79383611018E+02 0.  0.
          6    2    1    2  501    0 -0.14910883997E+03 -0.11886268730E+02  0.42752515155E+03  0.48467256064E+03  0.17249639501E+03 0.  0.
         24    2    5    5    0    0 -0.10191654223E+03  0.23989988786E+02  0.14442806430E+03  0.19539713889E+03  0.79737538139E+02 0.  0.
          5    1    5    5  501    0 -0.47192297745E+02 -0.35876257516E+02  0.28309708725E+03  0.28927542175E+03  0.47000000000E+01 0. -1.
        -11    1    6    6    0    0 -0.66928249376E+02 -0.24904231039E+02  0.75170012862E+02  0.10368289214E+03  0.00000000000E+00 0.  1.
         12    1    6    6    0    0 -0.34988292849E+02  0.48894219825E+02  0.69258051440E+02  0.91714246756E+02  0.00000000000E+00 0. -1.
         -5    1    3    3    0  503  0.12390169710E+02  0.20817495494E+02 -0.71050094955E+02  0.75213631857E+02  0.47000000000E+01 0.  1.
         11    1    4    4    0    0  0.75790435273E+01 -0.58861610329E+01 -0.23372544633E+02  0.25265878871E+02  0.00000000000E+00 0. -1.
        -12    1    4    4    0    0  0.12913962673E+03 -0.30450657308E+01  0.33260137268E+02  0.13338872647E+03  0.00000000000E+00 0.  1.
</event>
<event>
12    1  0.8251070E-002  0.2008420E+03  0.7818608E-02  0.1151150E+00
         21   -1    0    0  501  502  0.00000000000E+00  0.00000000000E+00  0.86906179353E+02  0.86906179353E+02  0.00000000000E+00 0.  1.
         21   -1    0    0  502  503 -0.00000000000E+00 -0.00000000000E+00 -0.10501768584E+04  0.10501768584E+04  0.00000000000E+00 0.  1.
         -6    2    1    2    0  503  0.24175054779E+02 -0.80104926366E+02 -0.90925921247E+03  0.92910531681E+03  0.17170655711E+03 0.  0.
        -24    2    3    3    0    0  0.74011762571E+02 -0.86850478205E+02 -0.70886117593E+03  0.72243973437E+03  0.80089053550E+02 0.  0.
          6    2    1    2  501    0 -0.24175054779E+02  0.80104926366E+02 -0.54011466537E+02  0.20797772091E+03  0.18258220443E+03 0.  0.
         24    2    5    5    0    0  0.16768668587E+02 -0.97360217887E+01  0.20003769339E+02  0.84494403854E+02  0.79769512525E+02 0.  0.
          5    1    5    5  501    0 -0.40943723366E+02  0.89840948155E+02 -0.74015235876E+02  0.12348331705E+03  0.47000000000E+01 0. -1.
        -11    1    6    6    0    0 -0.12681596277E+02  0.69686607881E+01  0.41795652014E+02  0.44229646671E+02  0.00000000000E+00 0.  1.
         12    1    6    6    0    0  0.29450264864E+02 -0.16704682577E+02 -0.21791882675E+02  0.40264757184E+02  0.00000000000E+00 0. -1.
         -5    1    3    3    0  503 -0.49836707792E+02  0.67455518385E+01 -0.20039803654E+03  0.20666558243E+03  0.47000000000E+01 0.  1.
         13    1    4    4    0    0 -0.47171203486E-01  0.62980641203E+01 -0.19010066265E+03  0.19020496780E+03  0.00000000000E+00 0. -1.
        -14    1    4    4    0    0  0.74058933775E+02 -0.93148542325E+02 -0.51876051328E+03  0.53223476657E+03  0.00000000000E+00 0.  1.
</event>
<event>
12    1  0.8251070E-002  0.1794446E+03  0.7818608E-02  0.1168426E+00
         21   -1    0    0  501  502  0.00000000000E+00  0.00000000000E+00  0.45602257880E+03  0.45602257880E+03  0.00000000000E+00 0. -1.
         21   -1    0    0  502  503 -0.00000000000E+00 -0.00000000000E+00 -0.12989408373E+03  0.12989408373E+03  0.00000000000E+00 0.  1.
         -6    2    1    2    0  503  0.36796866512E+02 -0.31150076206E+02 -0.35163594183E+02  0.18251570712E+03  0.17248526997E+03 0.  0.
        -24    2    3    3    0    0  0.51403288503E+02  0.28263046700E+02  0.23831774340E+02  0.97393381943E+02  0.74002834408E+02 0.  0.
          6    2    1    2  501    0 -0.36796866512E+02  0.31150076206E+02  0.36129208926E+03  0.40340095541E+03  0.17284681204E+03 0.  0.
         24    2    5    5    0    0 -0.51247569425E+02  0.78174668643E+02  0.30559427874E+03  0.32893974937E+03  0.77948080974E+02 0.  0.
          5    1    5    5  501    0  0.14450702913E+02 -0.47024592437E+02  0.55697810515E+02  0.74461206038E+02  0.47000000000E+01 0. -1.
        -11    1    6    6    0    0 -0.58213536969E+02  0.43966579362E+02  0.12274149014E+03  0.14278427571E+03  0.00000000000E+00 0.  1.
         12    1    6    6    0    0  0.69659675447E+01  0.34208089281E+02  0.18285278860E+03  0.18615547366E+03  0.00000000000E+00 0. -1.
         -5    1    3    3    0  503 -0.14606421991E+02 -0.59413122906E+02 -0.58995368522E+02  0.85122325179E+02  0.47000000000E+01 0.  1.
         11    1    4    4    0    0  0.96779477976E+01 -0.24627777061E+02  0.11741365104E+02  0.28949088605E+02  0.00000000000E+00 0. -1.
        -12    1    4    4    0    0  0.41725340705E+02  0.52890823761E+02  0.12090409236E+02  0.68444293338E+02  0.00000000000E+00 0.  1.
</event>
<event>
12    1  0.8251070E-002  0.1996698E+03  0.7818608E-02  0.1150788E+00
         21   -1    0    0  503  502  0.00000000000E+00  0.00000000000E+00  0.21425184919E+03  0.21425184919E+03  0.00000000000E+00 0.  1.
         21   -1    0    0  501  503 -0.00000000000E+00 -0.00000000000E+00 -0.36555566913E+03  0.36555566913E+03  0.00000000000E+00 0.  1.
          6    2    1    2  501    0 -0.93333743652E+02 -0.91725646810E+01 -0.28032128947E+03  0.34208177161E+03  0.17217604217E+03 0.  0.
         24    2    3    3    0    0 -0.32685639669E+01  0.37128807862E+02 -0.82071198409E+02  0.11941443612E+03  0.78325564553E+02 0.  0.
         -6    2    1    2    0  502  0.93333743652E+02  0.91725646810E+01  0.12901746953E+03  0.23772574671E+03  0.17627450059E+03 0.  0.
        -24    2    5    5    0    0  0.78803817585E+02  0.34807787578E+02  0.11456740200E+02  0.11643725391E+03  0.77490344308E+02 0.  0.
          5    1    3    3  501    0 -0.90065179686E+02 -0.46301372543E+02 -0.19825009106E+03  0.22266733549E+03  0.47000000000E+01 0. -1.
        -11    1    4    4    0    0 -0.19452742784E+02 -0.16702137301E+02 -0.45886310535E+02  0.52563524299E+02  0.00000000000E+00 0.  1.
         12    1    4    4    0    0  0.16184178817E+02  0.53830945164E+02 -0.36184887874E+02  0.66850911824E+02  0.00000000000E+00 0. -1.
         -5    1    5    5    0  502  0.14529926067E+02 -0.25635222897E+02  0.11756072933E+03  0.12128849280E+03  0.47000000000E+01 0.  1.
         13    1    6    6    0    0  0.51869852246E+02  0.50457994200E+02  0.31999171250E+02  0.79122927849E+02  0.00000000000E+00 0. -1.
        -14    1    6    6    0    0  0.26933965340E+02 -0.15650206622E+02 -0.20542431050E+02  0.37314326065E+02  0.00000000000E+00 0.  1.
</event>
<event>
12    1  0.8251070E-002  0.2466559E+03  0.7818608E-02  0.1115967E+00
         21   -1    0    0  503  502  0.00000000000E+00  0.00000000000E+00  0.30017166410E+03  0.30017166410E+03  0.00000000000E+00 0.  1.
         21   -1    0    0  501  503 -0.00000000000E+00 -0.00000000000E+00 -0.23447230842E+03  0.23447230842E+03  0.00000000000E+00 0. -1.
          6    2    1    2  501    0  0.17292713512E+03  0.33694075944E+02 -0.69460051279E+02  0.25624957706E+03  0.17262694518E+03 0.  0.
         24    2    3    3    0    0  0.39256243963E+02  0.49218747563E+02 -0.65181232669E+02  0.12153016175E+03  0.80978079264E+02 0.  0.
         -6    2    1    2    0  502 -0.17292713512E+03 -0.33694075944E+02  0.13515940696E+03  0.27839439547E+03  0.16791750750E+03 0.  0.
        -24    2    5    5    0    0 -0.13119645132E+03  0.13729912934E+02  0.31136934223E+02  0.15660256682E+03  0.78446388789E+02 0.  0.
          5    1    3    3  501    0  0.13367089116E+03 -0.15524671620E+02 -0.42788186102E+01  0.13471941530E+03  0.47000000000E+01 0. -1.
        -11    1    4    4    0    0  0.31804244348E+02 -0.98377396915E+00  0.76817168191E+01  0.32733569055E+02  0.00000000000E+00 0.  1.
         12    1    4    4    0    0  0.74519996151E+01  0.50202521532E+02 -0.72862949488E+02  0.88796592697E+02  0.00000000000E+00 0. -1.
         -5    1    5    5    0  502 -0.41730683802E+02 -0.47423988878E+02  0.10402247274E+03  0.12179182865E+03  0.47000000000E+01 0.  1.
         11    1    6    6    0    0 -0.10387404110E+03 -0.13235376204E+02  0.47361740257E+02  0.11492661153E+03  0.00000000000E+00 0. -1.
        -12    1    6    6    0    0 -0.27322410218E+02  0.26965289138E+02 -0.16224806034E+02  0.41675955289E+02  0.00000000000E+00 0.  1.
</event>
<event>
12    1  0.8251070E-002  0.2116893E+03  0.7818608E-02  0.1140485E+00
         21   -1    0    0  503  502  0.00000000000E+00  0.00000000000E+00  0.21618488349E+03  0.21618488349E+03  0.00000000000E+00 0. -1.
         21   -1    0    0  501  503 -0.00000000000E+00 -0.00000000000E+00 -0.26122489153E+03  0.26122489153E+03  0.00000000000E+00 0. -1.
          6    2    1    2  501    0  0.11903510889E+03  0.31854971877E+02 -0.13228556206E+03  0.24962338397E+03  0.17212863653E+03 0.  0.
         24    2    3    3    0    0  0.96903594313E+01 -0.21061433516E+02 -0.21708183470E+02  0.85288765431E+02  0.79154540182E+02 0.  0.
         -6    2    1    2    0  502 -0.11903510889E+03 -0.31854971877E+02  0.87245554015E+02  0.22778639106E+03  0.17056012686E+03 0.  0.
        -24    2    5    5    0    0 -0.38574249375E+02  0.40392547026E+02  0.17156032599E+02  0.98835683753E+02  0.79715947954E+02 0.  0.
          5    1    3    3  501    0  0.10934474946E+03  0.52916405393E+02 -0.11057737859E+03  0.16433461854E+03  0.47000000000E+01 0. -1.
        -13    1    4    4    0    0  0.44673777034E+02 -0.10600673520E+02 -0.13589649876E+02  0.47883183032E+02  0.00000000000E+00 0.  1.
         14    1    4    4    0    0 -0.34983417603E+02 -0.10460759996E+02 -0.81185335939E+01  0.37405582398E+02  0.00000000000E+00 0. -1.
         -5    1    5    5    0  502 -0.80460859516E+02 -0.72247518903E+02  0.70089521416E+02  0.12895070730E+03  0.47000000000E+01 0.  1.
         11    1    6    6    0    0 -0.53565994580E+02  0.20437421283E+02  0.35879847365E+02  0.67634069898E+02  0.00000000000E+00 0. -1.
        -12    1    6    6    0    0  0.14991745205E+02  0.19955125744E+02 -0.18723814766E+02  0.31201613855E+02  0.00000000000E+00 0.  1.
</event>
<event>
12    1  0.8251070E-002  0.2143585E+03  0.7818608E-02  0.1138202E+00
         21   -1    0    0  503  502  0.00000000000E+00  0.00000000000E+00  0.18370618194E+03  0.18370618194E+03  0.00000000000E+00 0. -1.
         21   -1    0    0  501  503 -0.00000000000E+00 -0.00000000000E+00 -0.24994333953E+03  0.24994333953E+03  0.00000000000E+00 0.  1.
          6    2    1    2  501    0 -0.10419568113E+03  0.75503867688E+02 -0.36693708172E+02  0.21726473955E+03  0.17117232496E+03 0.  0.
         24    2    3    3    0    0 -0.12399042921E+02  0.70486451830E+02 -0.36300622029E+02  0.12521018092E+03  0.96113360615E+02 0.  0.
         -6    2    1    2    0  502  0.10419568113E+03 -0.75503867688E+02 -0.29543449418E+02  0.21638478192E+03  0.17144090655E+03 0.  0.
        -24    2    5    5    0    0  0.11797845112E+03 -0.88219403997E+02  0.15003962448E+02  0.16782336188E+03  0.78980907385E+02 0.  0.
          5    1    3    3  501    0 -0.91796638210E+02  0.50174158574E+01 -0.39308614353E+00  0.92054558634E+02  0.47000000000E+01 0. -1.
        -11    1    4    4    0    0  0.30466096841E+02 -0.55914814340E+01 -0.18539790040E+02  0.36099467255E+02  0.00000000000E+00 0.  1.
         12    1    4    4    0    0 -0.42865139761E+02  0.76077933264E+02 -0.17760831989E+02  0.89110713663E+02  0.00000000000E+00 0. -1.
         -5    1    5    5    0  502 -0.13782769992E+02  0.12715536310E+02 -0.44547411865E+02  0.48561420039E+02  0.47000000000E+01 0.  1.
         13    1    6    6    0    0  0.21034692813E+02 -0.17193982339E+02  0.36742016058E+02  0.45695372571E+02  0.00000000000E+00 0. -1.
        -14    1    6    6    0    0  0.96943758310E+02 -0.71025421658E+02 -0.21738053610E+02  0.12212798931E+03  0.00000000000E+00 0.  1.
</event>
<event>
12    1  0.8251070E-002  0.1945986E+03  0.7818608E-02  0.1154597E+00
         21   -1    0    0  503  502  0.00000000000E+00  0.00000000000E+00  0.34656001147E+03  0.34656001147E+03  0.00000000000E+00 0. -1.
         21   -1    0    0  501  503 -0.00000000000E+00 -0.00000000000E+00 -0.42363771157E+03  0.42363771157E+03  0.00000000000E+00 0. -1.
          6    2    1    2  501    0  0.27912269617E+01  0.88362343031E+02 -0.37059689059E+03  0.41858171536E+03  0.17335772986E+03 0.  0.
         24    2    3    3    0    0  0.12792969260E+02  0.50170399555E+02 -0.76065616013E+02  0.12137905538E+03  0.79159131444E+02 0.  0.
         -6    2    1    2    0  502 -0.27912269617E+01 -0.88362343031E+02  0.29351919049E+03  0.35161600768E+03  0.17223416345E+03 0.  0.
        -24    2    5    5    0    0  0.23603324275E+02 -0.94770138858E+02  0.10688721971E+03  0.16295940244E+03  0.74782303866E+02 0.  0.
          5    1    3    3  501    0 -0.10001742299E+02  0.38191943476E+02 -0.29453127458E+03  0.29720265998E+03  0.47000000000E+01 0. -1.
        -13    1    4    4    0    0 -0.21935164268E+02 -0.99755203918E+01 -0.12123783693E+02  0.26974961902E+02  0.00000000000E+00 0.  1.
         14    1    4    4    0    0  0.34728133529E+02  0.60145919947E+02 -0.63941832320E+02  0.94404093476E+02  0.00000000000E+00 0. -1.
         -5    1    5    5    0  502 -0.26394551236E+02  0.64077958278E+01  0.18663197078E+03  0.18865660524E+03  0.47000000000E+01 0.  1.
         11    1    6    6    0    0  0.15276664331E+02 -0.25324503068E+02  0.84491523555E+02  0.89518291323E+02  0.00000000000E+00 0. -1.
        -12    1    6    6    0    0  0.83266599433E+01 -0.69445635791E+02  0.22395696151E+02  0.73441111118E+02  0.00000000000E+00 0.  1.
</event>
<event>
12    1  0.8251070E-002  0.2038758E+03  0.7818608E-02  0.1147161E+00
         21   -1    0    0  501  502  0.00000000000E+00  0.00000000000E+00  0.59007247521E+03  0.59007247521E+03  0.00000000000E+00 0. -1.
         21   -1    0    0  502  503 -0.00000000000E+00 -0.00000000000E+00 -0.71863465942E+02  0.71863465942E+02  0.00000000000E+00 0. -1.
         -6    2    1    2    0  503  0.10215959072E+03 -0.14630997872E+02  0.19540531878E+03  0.28014077884E+03  0.17217714508E+03 0.  0.
        -24    2    3    3    0    0  0.42811070508E+02  0.57078514246E+02  0.91516576957E+02  0.14057193684E+03  0.79337513336E+02 0.  0.
          6    2    1    2  501    0 -0.10215959072E+03  0.14630997872E+02  0.32280369049E+03  0.38179516232E+03  0.17582569579E+03 0.  0.
         24    2    5    5    0    0 -0.30511138204E+02  0.64189856704E+02  0.12119840009E+03  0.16212184952E+03  0.80889892138E+02 0.  0.
          5    1    5    5  501    0 -0.71648452514E+02 -0.49558858832E+02  0.20160529040E+03  0.21967331279E+03  0.47000000000E+01 0. -1.
        -11    1    6    6    0    0 -0.37016165090E+01 -0.13100219635E+02 -0.24782831932E+01  0.13836892962E+02  0.00000000000E+00 0.  1.
         12    1    6    6    0    0 -0.26809521695E+02  0.77290076339E+02  0.12367668329E+03  0.14828495656E+03  0.00000000000E+00 0. -1.
         -5    1    3    3    0  503  0.59348520210E+02 -0.71709512118E+02  0.10388874182E+03  0.13956884200E+03  0.47000000000E+01 0.  1.
         13    1    4    4    0    0  0.55729138073E+02  0.33136857033E+02  0.92950770966E+02  0.11332975756E+03  0.00000000000E+00 0. -1.
        -14    1    4    4    0    0 -0.12918067565E+02  0.23941657213E+02 -0.14341940090E+01  0.27242179284E+02  0.00000000000E+00 0.  1.
</event>
<event>
12    1  0.8251070E-002  0.2481928E+03  0.7818608E-02  0.1114632E+00
         21   -1    0    0  503  502  0.00000000000E+00  0.00000000000E+00  0.39490723765E+02  0.39490723765E+02  0.00000000000E+00 0.  1.
         21   -1    0    0  501  503 -0.00000000000E+00 -0.00000000000E+00 -0.20164186371E+04  0.20164186371E+04  0.00000000000E+00 0. -1.
          6    2    1    2  501    0  0.62458780965E+02  0.16625189999E+03 -0.14830857169E+04  0.15037097159E+04  0.17337494728E+03 0.  0.
         24    2    3    3    0    0  0.65499297056E+02  0.96889960915E+02 -0.54873212363E+03  0.56676838868E+03  0.80259830938E+02 0.  0.
         -6    2    1    2    0  502 -0.62458780965E+02 -0.16625189999E+03 -0.49384219638E+03  0.55219964494E+03  0.17176594360E+03 0.  0.
        -24    2    5    5    0    0 -0.35270922479E+02 -0.18407997082E+03 -0.46734440980E+03  0.50999487682E+03  0.80959887502E+02 0.  0.
          5    1    3    3  501    0 -0.30405160909E+01  0.69361939080E+02 -0.93435359329E+03  0.93694132721E+03  0.47000000000E+01 0. -1.
        -11    1    4    4    0    0  0.57267949611E+02  0.11131358305E+03 -0.47923093740E+03  0.49531063302E+03  0.00000000000E+00 0.  1.
         12    1    4    4    0    0  0.82313474453E+01 -0.14423622133E+02 -0.69501186231E+02  0.71457755658E+02  0.00000000000E+00 0. -1.
         -5    1    5    5    0  502 -0.27187858486E+02  0.17828070829E+02 -0.26497786582E+02  0.42204768123E+02  0.47000000000E+01 0.  1.
         13    1    6    6    0    0  0.12987135101E+02 -0.23261314721E+02 -0.13546870996E+03  0.13806348474E+03  0.00000000000E+00 0. -1.
        -14    1    6    6    0    0 -0.48258057580E+02 -0.16081865610E+03 -0.33187569983E+03  0.37193139208E+03  0.00000000000E+00 0.  1.
</event>
<event>
12    1  0.8251070E-002  0.2382096E+03  0.7818608E-02  0.1121018E+00
         21   -1    0    0  501  502  0.00000000000E+00  0.00000000000E+00  0.31711358036E+03  0.31711358036E+03  0.00000000000E+00 0.  1.
         21   -1    0    0  502  503 -0.00000000000E+00 -0.00000000000E+00 -0.25209106074E+03  0.25209106074E+03  0.00000000000E+00 0.  1.
         -6    2    1    2    0  503  0.61139188402E+02  0.14929844729E+03 -0.12091574707E+03  0.26714124882E+03  0.17525924288E+03 0.  0.
        -24    2    3    3    0    0  0.97852632663E+02  0.13106139337E+03 -0.56047975997E+02  0.19026222146E+03  0.79411024109E+02 0.  0.
          6    2    1    2  501    0 -0.61139188402E+02 -0.14929844729E+03  0.18593826669E+03  0.30206339228E+03  0.17504635733E+03 0.  0.
         24    2    5    5    0    0 -0.63261686699E+02 -0.98592079904E+02  0.38683005842E+02  0.14623707056E+03  0.78526852998E+02 0.  0.
          5    1    5    5  501    0  0.21224982972E+01 -0.50706367383E+02  0.14725526085E+03  0.15582632172E+03  0.47000000000E+01 0. -1.
        -13    1    6    6    0    0 -0.11070134951E+02 -0.55160251669E+02  0.52494868665E+02  0.76947465768E+02  0.00000000000E+00 0.  1.
         14    1    6    6    0    0 -0.52191551749E+02 -0.43431828235E+02 -0.13811862824E+02  0.69289604794E+02  0.00000000000E+00 0. -1.
         -5    1    3    3    0  503 -0.36713444260E+02  0.18237053917E+02 -0.64867771070E+02  0.76879027365E+02  0.47000000000E+01 0.  1.
         13    1    4    4    0    0  0.75679182360E+02  0.80091331720E+02  0.15720370005E+01  0.11020177566E+03  0.00000000000E+00 0. -1.
        -14    1    4    4    0    0  0.22173450303E+02  0.50970061650E+02 -0.57620012998E+02  0.80060445795E+02  0.00000000000E+00 0.  1.
</event>
<event>
12    1  0.8251070E-002  0.3567576E+03  0.7818608E-02  0.1059891E+00
         21   -1    0    0  503  502  0.00000000000E+00  0.00000000000E+00  0.18943870527E+03  0.18943870527E+03  0.00000000000E+00 0. -1.
         21   -1    0    0  501  503 -0.00000000000E+00 -0.00000000000E+00 -0.12854191897E+04  0.12854191897E+04  0.00000000000E+00 0.  1.
          6    2    1    2  501    0  0.17849346911E+02 -0.31221222126E+03 -0.10575282891E+04  0.11160340804E+04  0.17137945093E+03 0.  0.
         24    2    3    3    0    0  0.37142174825E+02 -0.24746506293E+03 -0.97243877406E+03  0.10072833412E+04  0.79775068904E+02 0.  0.
         -6    2    1    2    0  502 -0.17849346911E+02  0.31221222126E+03 -0.38452195363E+02  0.35882381454E+03  0.17169999494E+03 0.  0.
        -24    2    5    5    0    0 -0.15620996547E+02  0.94012310229E+02 -0.55056249164E+02  0.13993125797E+03  0.86413172472E+02 0.  0.
          5    1    3    3  501    0 -0.19292827914E+02 -0.64747158331E+02 -0.85089515021E+02  0.10875073925E+03  0.47000000000E+01 0. -1.
        -13    1    4    4    0    0 -0.16779227477E+00 -0.20920148507E+03 -0.77348024034E+03  0.80127209593E+03  0.00000000000E+00 0.  1.
         14    1    4    4    0    0  0.37309967099E+02 -0.38263577865E+02 -0.19895853371E+03  0.20601124526E+03  0.00000000000E+00 0. -1.
         -5    1    5    5    0  502 -0.22283503634E+01  0.21819991103E+03  0.16604053800E+02  0.21889255657E+03  0.47000000000E+01 0.  1.
         11    1    6    6    0    0  0.34926247392E+02  0.49879139104E+02 -0.19183968355E+02  0.63841960469E+02  0.00000000000E+00 0. -1.
        -12    1    6    6    0    0 -0.50547243939E+02  0.44133171125E+02 -0.35872280809E+02  0.76089297499E+02  0.00000000000E+00 0.  1.
</event>
<event>
12    1  0.8251070E-002  0.2861496E+03  0.7818608E-02  0.1092871E+00
         21   -1    0    0  503  502  0.00000000000E+00  0.00000000000E+00  0.48985250788E+03  0.48985250788E+03  0.00000000000E+00 0.  1.
         21   -1    0    0  501  503 -0.00000000000E+00 -0.00000000000E+00 -0.16670264386E+03  0.16670264386E+03  0.00000000000E+00 0. -1.
          6    2    1    2  501    0 -0.17419796136E+03  0.14180341252E+03  0.12946118781E+03  0.31407287229E+03  0.17728066001E+03 0.  0.
         24    2    3    3    0    0 -0.39551445684E+02  0.96148248558E+02  0.52618408290E+02  0.15239114498E+03  0.98211820173E+02 0.  0.
         -6    2    1    2    0  502  0.17419796136E+03 -0.14180341252E+03  0.19368867620E+03  0.34248227945E+03  0.17124739678E+03 0.  0.
        -24    2    5    5    0    0  0.79020069626E+02 -0.20576690912E+00  0.84485219633E+02  0.13985896084E+03  0.78603834811E+02 0.  0.
          5    1    3    3  501    0 -0.13464651567E+03  0.45655163967E+02  0.76842779523E+02  0.16168172730E+03  0.47000000000E+01 0. -1.
        -11    1    4    4    0    0 -0.23471706855E+01 -0.20098823552E+01  0.47176838273E+02  0.47277932556E+02  0.00000000000E+00 0.  1.
         12    1    4    4    0    0 -0.37204274998E+02  0.98158130913E+02  0.54415700167E+01  0.10511321243E+03  0.00000000000E+00 0. -1.
         -5    1    5    5    0  502  0.95177891729E+02 -0.14159764562E+03  0.10920345657E+03  0.20262331861E+03  0.47000000000E+01 0.  1.
         11    1    6    6    0    0 -0.38795698576E+01 -0.60316801580E+01 -0.11089624721E+02  0.13206513706E+02  0.00000000000E+00 0. -1.
        -12    1    6    6    0    0  0.82899639484E+02  0.58259132489E+01  0.95574844354E+02  0.12665244713E+03  0.00000000000E+00 0.  1.
</event>
<event>
12    1  0.8251070E-002  0.1787923E+03  0.7818608E-02  0.1169091E+00
         21   -1    0    0  501  502  0.00000000000E+00  0.00000000000E+00  0.11767087061E+03  0.11767087061E+03  0.00000000000E+00 0.  1.
         21   -1    0    0  502  503 -0.00000000000E+00 -0.00000000000E+00 -0.45095865251E+03  0.45095865251E+03  0.00000000000E+00 0. -1.
         -6    2    1    2    0  503 -0.33916825086E+02 -0.35202490545E+02 -0.34640122030E+03  0.38982111652E+03  0.17198003109E+03 0.  0.
        -24    2    3    3    0    0  0.38260712012E+02  0.55945784795E+01 -0.14123565114E+03  0.16848653162E+03  0.83336791352E+02 0.  0.
          6    2    1    2  501    0  0.33916825086E+02  0.35202490545E+02  0.13113438404E+02  0.17880840661E+03  0.17149611553E+03 0.  0.
         24    2    5    5    0    0 -0.35691336915E+02 -0.75214986428E+01  0.35560126832E+02  0.93975751982E+02  0.78971354729E+02 0.  0.
          5    1    5    5  501    0  0.69608162001E+02  0.42723989188E+02 -0.22446688428E+02  0.84832654625E+02  0.47000000000E+01 0. -1.
        -13    1    6    6    0    0 -0.85442521561E+01  0.25032539799E+02  0.43442332091E+02  0.50861267299E+02  0.00000000000E+00 0.  1.
         14    1    6    6    0    0 -0.27147084759E+02 -0.32554038442E+02 -0.78822052594E+01  0.43114484684E+02  0.00000000000E+00 0. -1.
         -5    1    3    3    0  503 -0.72177537098E+02 -0.40797069024E+02 -0.20516556917E+03  0.22133458490E+03  0.47000000000E+01 0.  1.
         11    1    4    4    0    0  0.18966126139E+02 -0.20921716203E+02 -0.13118173323E+03  0.13418673289E+03  0.00000000000E+00 0. -1.
        -12    1    4    4    0    0  0.19294585873E+02  0.26516294683E+02 -0.10053917906E+02  0.34299798731E+02  0.00000000000E+00 0.  1.
</event>
<event>
12    1  0.8251070E-002  0.1999925E+03  0.7818608E-02  0.1149959E+00
         21   -1    0    0  501  502  0.00000000000E+00  0.00000000000E+00  0.47831010665E+03  0.47831010665E+03  0.00000000000E+00 0.  1.
         21   -1    0    0  502  503 -0.00000000000E+00 -0.00000000000E+00 -0.95323456442E+02  0.95323456442E+02  0.00000000000E+00 0. -1.
         -6    2    1    2    0  503  0.10094771613E+03  0.40205750368E+00  0.88786083290E+02  0.21789351737E+03  0.17147598457E+03 0.  0.
        -24    2    3    3    0    0  0.47237000471E+02  0.17496327769E+02  0.11986773589E+03  0.15335504683E+03  0.81314454932E+02 0.  0.
          6    2    1    2  501    0 -0.10094771613E+03 -0.40205750368E+00  0.29420056692E+03  0.35574004573E+03  0.17264531130E+03 0.  0.
         24    2    5    5    0    0 -0.76442689463E+02 -0.21493600545E+02  0.30184548316E+03  0.32218584682E+03  0.79922240663E+02 0.  0.
          5    1    5    5  501    0 -0.24505026664E+02  0.21091543042E+02 -0.76449162389E+01  0.33554198902E+02  0.47000000000E+01 0. -1.
        -13    1    6    6    0    0 -0.53300898764E+02 -0.48889127105E+02  0.24036257577E+03  0.25100856637E+03  0.00000000000E+00 0.  1.
         14    1    6    6    0    0 -0.23141790698E+02  0.27395526560E+02  0.61482907387E+02  0.71177280455E+02  0.00000000000E+00 0. -1.
         -5    1    3    3    0  503  0.53710715655E+02 -0.17094270265E+02 -0.31081652598E+02  0.64538470545E+02  0.47000000000E+01 0.  1.
         13    1    4    4    0    0  0.11567354254E+02 -0.30712828936E+02  0.61286612376E+02  0.69520719230E+02  0.00000000000E+00 0. -1.
        -14    1    4    4    0    0  0.35669646217E+02  0.48209156705E+02  0.58581123512E+02  0.83834327595E+02  0.00000000000E+00 0.  1.
</event>
<event>
12    1  0.8251070E-002  0.1809212E+03  0.7818608E-02  0.1167500E+00
         21   -1    0    0  503  502  0.00000000000E+00  0.00000000000E+00  0.69946071425E+02  0.69946071425E+02  0.00000000000E+00 0. -1.
         21   -1    0    0  501  503 -0.00000000000E+00 -0.00000000000E+00 -0.72278288522E+03  0.72278288522E+03  0.00000000000E+00 0. -1.
          6    2    1    2  501    0 -0.26834047931E+02  0.43891486136E+02 -0.56602716227E+03  0.59423835277E+03  0.17345299882E+03 0.  0.
         24    2    3    3    0    0 -0.65129425446E+02  0.34618339213E+02 -0.21320707289E+03  0.23919380253E+03  0.79474195605E+02 0.  0.
         -6    2    1    2    0  502  0.26834047931E+02 -0.43891486136E+02 -0.86809651531E+02  0.19849060388E+03  0.17092710594E+03 0.  0.
        -24    2    5    5    0    0 -0.54162094989E+01  0.35358773147E+02 -0.22873129940E+02  0.91576378940E+02  0.81138615607E+02 0.  0.
          5    1    3    3  501    0  0.38295377515E+02  0.92731469226E+01 -0.35282008938E+03  0.35504455025E+03  0.47000000000E+01 0. -1.
        -11    1    4    4    0    0  0.18422364768E+02  0.89949816752E+01 -0.31835495523E+02  0.37865445913E+02  0.00000000000E+00 0.  1.
         12    1    4    4    0    0 -0.83551790213E+02  0.25623357538E+02 -0.18137157737E+03  0.20132835661E+03  0.00000000000E+00 0. -1.
         -5    1    5    5    0  502  0.32250257430E+02 -0.79250259283E+02 -0.63936521591E+02  0.10691422494E+03  0.47000000000E+01 0.  1.
         11    1    6    6    0    0  0.22162382856E+02  0.39513973412E+02  0.12053265379E+02  0.46880769138E+02  0.00000000000E+00 0. -1.
        -12    1    6    6    0    0 -0.27578592355E+02 -0.41552002652E+01 -0.34926395320E+02  0.44695609802E+02  0.00000000000E+00 0.  1.
</event>
<event>
12    1  0.8251070E-002  0.1951131E+03  0.7818608E-02  0.1154302E+00
         21   -1    0    0  503  502  0.00000000000E+00  0.00000000000E+00  0.50336198069E+02  0.50336198069E+02  0.00000000000E+00 0. -1.
         21   -1    0    0  501  503 -0.00000000000E+00 -0.00000000000E+00 -0.11481148690E+04  0.11481148690E+04  0.00000000000E+00 0.  1.
          6    2    1    2  501    0 -0.83735117788E+02  0.27264070920E+02 -0.90345353565E+03  0.92428211545E+03  0.17410984562E+03 0.  0.
         24    2    3    3    0    0  0.11451802354E+01  0.59568097810E+02 -0.36256450185E+03  0.37580125704E+03  0.78891679419E+02 0.  0.
         -6    2    1    2    0  502  0.83735117788E+02 -0.27264070920E+02 -0.19432513528E+03  0.27416895163E+03  0.17219598230E+03 0.  0.
        -24    2    5    5    0    0  0.18995680614E+02  0.34725923434E+02 -0.14934185550E+03  0.17377204139E+03  0.79542485016E+02 0.  0.
          5    1    3    3  501    0 -0.84880298023E+02 -0.32304026890E+02 -0.54088903380E+03  0.54848085840E+03  0.47000000000E+01 0. -1.
        -13    1    4    4    0    0  0.14096804883E+02 -0.62539247411E+00 -0.22071117770E+03  0.22116178464E+03  0.00000000000E+00 0.  1.
         14    1    4    4    0    0 -0.12951624647E+02  0.60193490284E+02 -0.14185332415E+03  0.15463947240E+03  0.00000000000E+00 0. -1.
         -5    1    5    5    0  502  0.64739437174E+02 -0.61989994354E+02 -0.44983279780E+02  0.10039691024E+03  0.47000000000E+01 0.  1.
         11    1    6    6    0    0  0.42733432145E+02  0.19231595379E+02 -0.42600910511E+02  0.63331177630E+02  0.00000000000E+00 0. -1.
        -12    1    6    6    0    0 -0.23737751531E+02  0.15494328056E+02 -0.10674094499E+03  0.11044086376E+03  0.00000000000E+00 0.  1.
</event>
<event>
12    1  0.8251070E-002  0.2103034E+03  0.7818608E-02  0.1141606E+00
         21   -1    0    0  503  502  0.00000000000E+00  0.00000000000E+00  0.48640812090E+02  0.48640812090E+02  0.00000000000E+00 0.  1.
         21   -1    0    0  501  503 -0.00000000000E+00 -0.00000000000E+00 -0.94794569510E+03  0.94794569510E+03  0.00000000000E+00 0.  1.
          6    2    1    2  501    0 -0.69521529804E+02  0.93629791520E+02 -0.33991756212E+03  0.39897317837E+03  0.17330858911E+03 0.  0.
         24    2    3    3    0    0 -0.58489021792E+02 -0.59776641562E+01 -0.12952695274E+03  0.16588594154E+03  0.85347618454E+02 0.  0.
         -6    2    1    2    0  502  0.69521529804E+02 -0.93629791520E+02 -0.55938732089E+03  0.59761332882E+03  0.17500781422E+03 0.  0.
        -24    2    5    5    0    0 -0.28816598394E+02 -0.21844006566E+02 -0.25287252559E+03  0.26776943223E+03  0.80301915735E+02 0.  0.
          5    1    3    3  501    0 -0.11032508011E+02  0.99607455676E+02 -0.21039060938E+03  0.23308723683E+03  0.47000000000E+01 0. -1.
        -11    1    4    4    0    0 -0.58835812697E+02  0.31093672753E+02 -0.81668708440E+02  0.10534821916E+03  0.00000000000E+00 0.  1.
         12    1    4    4    0    0  0.34679090449E+00 -0.37071336909E+02 -0.47858244301E+02  0.60537722386E+02  0.00000000000E+00 0. -1.
         -5    1    5    5    0  502  0.98338128198E+02 -0.71785784954E+02 -0.30651479530E+03  0.32984389659E+03  0.47000000000E+01 0.  1.
         13    1    6    6    0    0 -0.43985033239E+01 -0.40440672498E+02 -0.21598421195E+03  0.21978165218E+03  0.00000000000E+00 0. -1.
        -14    1    6    6    0    0 -0.24418095070E+02  0.18596665932E+02 -0.36888313647E+02  0.47987780053E+02  0.00000000000E+00 0.  1.
</event>
<event>
12    1  0.8251070E-002  0.1783921E+03  0.7818608E-02  0.1169582E+00
         21   -1    0    0  501  502  0.00000000000E+00  0.00000000000E+00  0.10684152162E+04  0.10684152162E+04  0.00000000000E+00 0.  1.
         21   -1    0    0  502  503 -0.00000000000E+00 -0.00000000000E+00 -0.29736200105E+02  0.29736200105E+02  0.00000000000E+00 0.  1.
         -6    2    1    2    0  503 -0.41613816627E+02  0.12388847530E+02  0.55175782043E+03  0.57987968103E+03  0.17302762435E+03 0.  0.
        -24    2    3    3    0    0  0.24581785692E+02 -0.28936942923E+02  0.39708037440E+03  0.40656816660E+03  0.78633577471E+02 0.  0.
          6    2    1    2  501    0  0.41613816627E+02 -0.12388847530E+02  0.48692119568E+03  0.51827173529E+03  0.17212828798E+03 0.  0.
         24    2    5    5    0    0  0.86220602970E+02 -0.17009723931E+02  0.43439228950E+03  0.44904389500E+03  0.72252580421E+02 0.  0.
          5    1    5    5  501    0 -0.44606786343E+02  0.46208764010E+01  0.52528906181E+02  0.69227840290E+02  0.47000000000E+01 0. -1.
        -11    1    6    6    0    0  0.20764086578E+02 -0.31422981607E+02  0.80691474334E+02  0.89048667001E+02  0.00000000000E+00 0.  1.
         12    1    6    6    0    0  0.65456516392E+02  0.14413257676E+02  0.35370081516E+03  0.35999522800E+03  0.00000000000E+00 0. -1.
         -5    1    3    3    0  503 -0.66195602319E+02  0.41325790453E+02  0.15467744603E+03  0.17331151443E+03  0.47000000000E+01 0.  1.
         13    1    4    4    0    0  0.16602443540E+02  0.25843143987E+02  0.11048889611E+03  0.11467914102E+03  0.00000000000E+00 0. -1.
        -14    1    4    4    0    0  0.79793421518E+01 -0.54780086910E+02  0.28659147830E+03  0.29188902558E+03  0.00000000000E+00 0.  1.
</event>
<event>
12    1  0.8251070E-002  0.2349390E+03  0.7818608E-02  0.1123226E+00
         21   -1    0    0  503  502  0.00000000000E+00  0.00000000000E+00  0.17266201709E+04  0.17266201709E+04  0.00000000000E+00 0. -1.
         21   -1    0    0  501  503 -0.00000000000E+00 -0.00000000000E+00 -0.32881386862E+02  0.32881386862E+02  0.00000000000E+00 0. -1.
          6    2    1    2  501    0  0.16016124178E+03 -0.87604166924E+01  0.69909341408E+03  0.73748602029E+03  0.17153909247E+03 0.  0.
         24    2    3    3    0    0  0.84109079443E+02  0.29066015502E+02  0.21062083791E+03  0.24166113382E+03  0.78229123333E+02 0.  0.
         -6    2    1    2    0  502 -0.16016124178E+03  0.87604166924E+01  0.99464536992E+03  0.10220155374E+04  0.17166239712E+03 0.  0.
        -24    2    5    5    0    0 -0.29291945003E+02 -0.14839731161E+02  0.22596622725E+03  0.24190435677E+03  0.79867053938E+02 0.  0.
          5    1    3    3  501    0  0.76052162339E+02 -0.37826432195E+02  0.48847257618E+03  0.49582488647E+03  0.47000000000E+01 0. -1.
        -11    1    4    4    0    0  0.78835122968E+02  0.77970309797E+01  0.93682372759E+02  0.12268723353E+03  0.00000000000E+00 0.  1.
         12    1    4    4    0    0  0.52739564753E+01  0.21268984522E+02  0.11693846515E+03  0.11897390029E+03  0.00000000000E+00 0. -1.
         -5    1    5    5    0  502 -0.13086929678E+03  0.23600147854E+02  0.76867914267E+03  0.78011118067E+03  0.47000000000E+01 0.  1.
         11    1    6    6    0    0 -0.25469494286E+02  0.94779845707E+01  0.21173200345E+03  0.21346889379E+03  0.00000000000E+00 0. -1.
        -12    1    6    6    0    0 -0.38224507162E+01 -0.24317715732E+02  0.14234223802E+02  0.28435462984E+02  0.00000000000E+00 0.  1.
</event>
<event>
12    1  0.8251070E-002  0.2144179E+03  0.7818608E-02  0.1138497E+00
         21   -1    0    0  503  502  0.00000000000E+00  0.00000000000E+00  0.37713347888E+02  0.37713347888E+02  0.00000000000E+00 0.  1.
         21   -1    0    0  501  503 -0.00000000000E+00 -0.00000000000E+00 -0.18015949673E+04  0.18015949673E+04  0.00000000000E+00 0.  1.
          6    2    1    2  501    0 -0.91577754891E+02  0.84855861915E+02 -0.14071482456E+04  0.14230947424E+04  0.17188792372E+03 0.  0.
         24    2    3    3    0    0 -0.43706888214E+02  0.46713569960E+02 -0.36135886109E+03  0.37550513716E+03  0.79570294991E+02 0.  0.
         -6    2    1    2    0  502  0.91577754891E+02 -0.84855861915E+02 -0.35673337383E+03  0.41621357278E+03  0.17432164430E+03 0.  0.
        -24    2    5    5    0    0 -0.39421997328E+01  0.40501441260E+01 -0.17781939842E+03  0.19471720658E+03  0.79139797069E+02 0.  0.
          5    1    3    3  501    0 -0.47870866676E+02  0.38142291955E+02 -0.10457893845E+04  0.10475896052E+04  0.47000000000E+01 0. -1.
        -11    1    4    4    0    0 -0.18928805011E+01  0.58157315556E+02 -0.22617926443E+03  0.23354424850E+03  0.00000000000E+00 0.  1.
         12    1    4    4    0    0 -0.41814007713E+02 -0.11443745596E+02 -0.13517959666E+03  0.14196088866E+03  0.00000000000E+00 0. -1.
         -5    1    5    5    0  502  0.95519954623E+02 -0.88906006041E+02 -0.17891397541E+03  0.22149636619E+03  0.47000000000E+01 0.  1.
         11    1    6    6    0    0  0.86756216495E+01  0.19058275208E+02 -0.17334562771E+03  0.17460581580E+03  0.00000000000E+00 0. -1.
        -12    1    6    6    0    0 -0.12617821382E+02 -0.15008131082E+02 -0.44737707099E+01  0.20111390786E+02  0.00000000000E+00 0.  1.
</event>
<event>
12    1  0.8251070E-002  0.2632868E+03  0.7818608E-02  0.1105641E+00
         21   -1    0    0  501  502  0.00000000000E+00  0.00000000000E+00  0.14697464655E+03  0.14697464655E+03  0.00000000000E+00 0.  1.
         21   -1    0    0  502  503 -0.00000000000E+00 -0.00000000000E+00 -0.51499273872E+03  0.51499273872E+03  0.00000000000E+00 0. -1.
         -6    2    1    2    0  503  0.89785936420E+02  0.17777503654E+03 -0.28689857838E+03  0.38939791451E+03  0.17220471409E+03 0.  0.
        -24    2    3    3    0    0  0.54314875977E+02  0.62088724457E+02 -0.22562014275E+03  0.25368256679E+03  0.81518589444E+02 0.  0.
          6    2    1    2  501    0 -0.89785936420E+02 -0.17777503654E+03 -0.81119513792E+02  0.27256947076E+03  0.16747615614E+03 0.  0.
         24    2    5    5    0    0  0.27658368881E+01 -0.44780756347E+02 -0.21074810678E+02  0.99708932525E+02  0.86514493512E+02 0.  0.
          5    1    5    5  501    0 -0.92551773309E+02 -0.13299428020E+03 -0.60044703114E+02  0.17286053824E+03  0.47000000000E+01 0. -1.
        -13    1    6    6    0    0 -0.28558107843E+02 -0.22625422263E+02  0.21573330376E+02  0.42342459065E+02  0.00000000000E+00 0.  1.
         14    1    6    6    0    0  0.31323944731E+02 -0.22155334083E+02 -0.42648141054E+02  0.57366473460E+02  0.00000000000E+00 0. -1.
         -5    1    3    3    0  503  0.35471060444E+02  0.11568631209E+03 -0.61278435631E+02  0.13571534772E+03  0.47000000000E+01 0.  1.
         11    1    4    4    0    0  0.52099213064E+02  0.43964729388E+02 -0.72646123257E+02  0.99622711548E+02  0.00000000000E+00 0. -1.
        -12    1    4    4    0    0  0.22156629129E+01  0.18123995069E+02 -0.15297401949E+03  0.15405985525E+03  0.00000000000E+00 0.  1.
</event>
<event>
12    1  0.8251070E-002  0.1744556E+03  0.7818608E-02  0.1173799E+00
         21   -1    0    0  503  502  0.00000000000E+00  0.00000000000E+00  0.26998232921E+02  0.26998232921E+02  0.00000000000E+00 0.  1.
         21   -1    0    0  501  503 -0.00000000000E+00 -0.00000000000E+00 -0.11326584752E+04  0.11326584752E+04  0.00000000000E+00 0.  1.
          6    2    1    2  501    0 -0.40492418496E+01 -0.17954451618E+02 -0.62385553532E+03  0.64724033008E+03  0.17142216088E+03 0.  0.
         24    2    3    3    0    0  0.66701415975E+01  0.62612269913E+01 -0.13086448073E+03  0.15351614172E+03  0.79737066023E+02 0.  0.
         -6    2    1    2    0  502  0.40492418496E+01  0.17954451618E+02 -0.48180470693E+03  0.51241637802E+03  0.17348201677E+03 0.  0.
        -24    2    5    5    0    0 -0.25212211074E+02  0.41265434398E+02 -0.45953898554E+03  0.46862725957E+03  0.78082888738E+02 0.  0.
          5    1    3    3  501    0 -0.10719383447E+02 -0.24215678610E+02 -0.49299105459E+03  0.49372418836E+03  0.47000000000E+01 0. -1.
        -11    1    4    4    0    0  0.16845663836E+02  0.37960722058E+02 -0.99317087784E+02  0.10765071637E+03  0.00000000000E+00 0.  1.
         12    1    4    4    0    0 -0.10175522239E+02 -0.31699495067E+02 -0.31547392949E+02  0.45865425347E+02  0.00000000000E+00 0. -1.
         -5    1    5    5    0  502  0.29261452923E+02 -0.23310982780E+02 -0.22265721395E+02  0.43789118449E+02  0.47000000000E+01 0.  1.
         11    1    6    6    0    0  0.28372301570E+02  0.12311027291E+02 -0.15796552144E+03  0.16096476277E+03  0.00000000000E+00 0. -1.
        -12    1    6    6    0    0 -0.53584512644E+02  0.28954407108E+02 -0.30157346410E+03  0.30766249680E+03  0.00000000000E+00 0.  1.
</event>
<event>
12    1  0.8251070E-002  0.2958709E+03  0.7818608E-02  0.1087401E+00
         21   -1    0    0  501  502  0.00000000000E+00  0.00000000000E+00  0.80675058758E+03  0.80675058758E+03  0.00000000000E+00 0. -1.
         21   -1    0    0  502  503 -0.00000000000E+00 -0.00000000000E+00 -0.17893432923E+03  0.17893432923E+03  0.00000000000E+00 0. -1.
         -6    2    1    2    0  503 -0.20063075032E+03 -0.13423398906E+03  0.40272945327E+01  0.29528482701E+03  0.17001602326E+03 0.  0.
        -24    2    3    3    0    0 -0.15693024580E+03 -0.99100382720E+02  0.65473770584E+02  0.21196697892E+03  0.78709577670E+02 0.  0.
          6    2    1    2  501    0  0.20063075032E+03  0.13423398906E+03  0.62378896381E+03  0.69040008980E+03  0.17107936998E+03 0.  0.
         24    2    5    5    0    0  0.60630132276E+02  0.36593377403E+02  0.25614928975E+03  0.28504236872E+03  0.10306117172E+03 0.  0.
          5    1    5    5  501    0  0.14000061804E+03  0.97640611661E+02  0.36763967406E+03  0.40535772108E+03  0.47000000000E+01 0. -1.
        -13    1    6    6    0    0  0.13169274466E+02  0.51762050548E+02  0.21149425334E+03  0.21813426797E+03  0.00000000000E+00 0.  1.
         14    1    6    6    0    0  0.47460857809E+02 -0.15168673146E+02  0.44655036413E+02  0.66908100751E+02  0.00000000000E+00 0. -1.
         -5    1    3    3    0  503 -0.43700504518E+02 -0.35133606343E+02 -0.61446476051E+02  0.83317848082E+02  0.47000000000E+01 0.  1.
         11    1    4    4    0    0 -0.10572343514E+03 -0.32708642947E+02  0.93292467657E+01  0.11106005090E+03  0.00000000000E+00 0. -1.
        -12    1    4    4    0    0 -0.51206810666E+02 -0.66391739774E+02  0.56144523818E+02  0.10090692803E+03  0.00000000000E+00 0.  1.
</event>
<event>
12    1  0.8251070E-002  0.1729060E+03  0.7818608E-02  0.1174961E+00
         21   -1    0    0  503  502  0.00000000000E+00  0.00000000000E+00  0.10831596342E+03  0.10831596342E+03  0.00000000000E+00 0. -1.
         21   -1    0    0  501  503 -0.00000000000E+00 -0.00000000000E+00 -0.62837907057E+03  0.62837907057E+03  0.00000000000E+00 0. -1.
          6    2    1    2  501    0 -0.18252852957E+02  0.28089013141E+01 -0.53627349872E+03  0.56345873708E+03  0.17191691713E+03 0.  0.
         24    2    3    3    0    0  0.17746004425E+02  0.35799553798E+02 -0.46058360593E+03  0.47326255781E+03  0.10121097692E+03 0.  0.
         -6    2    1    2    0  502  0.18252852957E+02 -0.28089013141E+01  0.16210391571E+02  0.17323629690E+03  0.17148463839E+03 0.  0.
        -24    2    5    5    0    0 -0.42027072700E+02 -0.51236788173E+01  0.44221147925E+02  0.10656006348E+03  0.87218176319E+02 0.  0.
          5    1    3    3  501    0 -0.35998857382E+02 -0.32990652484E+02 -0.75689892795E+02  0.90196179273E+02  0.47000000000E+01 0. -1.
        -13    1    4    4    0    0 -0.37834785122E+02 -0.12856797623E+01 -0.10902015414E+03  0.11540588350E+03  0.00000000000E+00 0.  1.
         14    1    4    4    0    0  0.55580789547E+02  0.37085233561E+02 -0.35156345179E+03  0.35785667431E+03  0.00000000000E+00 0. -1.
         -5    1    5    5    0  502  0.60279925658E+02  0.23147775033E+01 -0.28010756354E+02  0.66676233425E+02  0.47000000000E+01 0.  1.
         13    1    6    6    0    0  0.16021922929E+02 -0.56471133737E+01  0.45423508252E+02  0.48496257647E+02  0.00000000000E+00 0. -1.
        -14    1    6    6    0    0 -0.58048995630E+02  0.52343455637E+00 -0.12023603275E+01  0.58063805832E+02  0.00000000000E+00 0.  1.
</event>
<event>
12    1  0.8251070E-002  0.2475917E+03  0.7818608E-02  0.1114945E+00
         21   -1    0    0  501  502  0.00000000000E+00  0.00000000000E+00  0.83640893726E+03  0.83640893726E+03  0.00000000000E+00 0.  1.
         21   -1    0    0  502  503 -0.00000000000E+00 -0.00000000000E+00 -0.13416133023E+03  0.13416133023E+03  0.00000000000E+00 0. -1.
         -6    2    1    2    0  503  0.14056221189E+03  0.10725368815E+03  0.23448288701E+02  0.24802602523E+03  0.17235428022E+03 0.  0.
        -24    2    3    3    0    0  0.15911789398E+03  0.88655733943E+02  0.55225897848E+02  0.20652778814E+03  0.80159117591E+02 0.  0.
          6    2    1    2  501    0 -0.14056221189E+03 -0.10725368815E+03  0.67879931832E+03  0.72254424227E+03  0.17332218105E+03 0.  0.
         24    2    5    5    0    0 -0.16807772052E+03 -0.99846704431E+02  0.51852642807E+03  0.55969014814E+03  0.78510641331E+02 0.  0.
          5    1    5    5  501    0  0.27515508622E+02 -0.74069837233E+01  0.16027289026E+03  0.16285409413E+03  0.47000000000E+01 0. -1.
        -13    1    6    6    0    0 -0.13798192105E+03 -0.72777040067E+02  0.47629990192E+03  0.50119567503E+03  0.00000000000E+00 0.  1.
         14    1    6    6    0    0 -0.30095799469E+02 -0.27069664364E+02  0.42226526149E+02  0.58494473116E+02  0.00000000000E+00 0. -1.
         -5    1    3    3    0  503 -0.18555682086E+02  0.18597954212E+02 -0.31777609148E+02  0.41498237091E+02  0.47000000000E+01 0.  1.
         11    1    4    4    0    0  0.20203580121E+02 -0.13985469904E+01 -0.16485092031E+02  0.26113192885E+02  0.00000000000E+00 0. -1.
        -12    1    4    4    0    0  0.13891431386E+03  0.90054280933E+02  0.71710989880E+02  0.18041459525E+03  0.00000000000E+00 0.  1.
</event>
<event>
12    1  0.8251070E-002  0.2746729E+03  0.7818608E-02  0.1098718E+00
         21   -1    0    0  501  502  0.00000000000E+00  0.00000000000E+00  0.35005912227E+03  0.35005912227E+03  0.00000000000E+00 0.  1.
         21   -1    0    0  502  503 -0.00000000000E+00 -0.00000000000E+00 -0.32573789117E+03  0.32573789117E+03  0.00000000000E+00 0.  1.
         -6    2    1    2    0  503 -0.11628054674E+03  0.17965727405E+03 -0.18481339042E+03  0.33056885621E+03  0.17123632135E+03 0.  0.
        -24    2    3    3    0    0 -0.11782621192E+03  0.18837457485E+03 -0.11750195505E+03  0.26251520278E+03  0.75759656707E+02 0.  0.
          6    2    1    2  501    0  0.11628054674E+03 -0.17965727405E+03  0.20913462152E+03  0.34522815722E+03  0.17218388122E+03 0.  0.
         24    2    5    5    0    0  0.20351694697E+02 -0.15534887243E+03  0.13517530096E+03  0.22159436677E+03  0.79273184316E+02 0.  0.
          5    1    5    5  501    0  0.95928852045E+02 -0.24308401616E+02  0.73959320557E+02  0.12363379045E+03  0.47000000000E+01 0. -1.
        -13    1    6    6    0    0  0.32426411845E+02 -0.98537895902E+02  0.42246852589E+02  0.11200886424E+03  0.00000000000E+00 0.  1.
         14    1    6    6    0    0 -0.12074717148E+02 -0.56810976530E+02  0.92928448376E+02  0.10958550254E+03  0.00000000000E+00 0. -1.
         -5    1    3    3    0  503  0.15456651809E+01 -0.87173008004E+01 -0.67311435371E+02  0.68053653435E+02  0.47000000000E+01 0.  1.
         11    1    4    4    0    0 -0.19955831533E+02 -0.15679678797E+01 -0.34669154015E+01  0.20315344887E+02  0.00000000000E+00 0. -1.
        -12    1    4    4    0    0 -0.97870380389E+02  0.18994254273E+03 -0.11403503965E+03  0.24219985789E+03  0.00000000000E+00 0.  1.
</event>
<event>
12    1  0.8251070E-002  0.2332340E+03  0.7818608E-02  0.1124689E+00
         21   -1    0    0  501  502  0.00000000000E+00  0.00000000000E+00  0.28721940711E+03  0.28721940711E+03  0.00000000000E+00 0.  1.
         21   -1    0    0  502  503 -0.00000000000E+00 -0.00000000000E+00 -0.34220997655E+03  0.34220997655E+03  0.00000000000E+00 0.  1.
         -6    2    1    2    0  503  0.14623842603E+03  0.53294087826E+02 -0.23872235708E+03  0.33251951976E+03  0.17133280540E+03 0.  0.
        -24    2    3    3    0    0  0.60367432088E+02 -0.34191692140E+02 -0.91306712755E+02  0.14073565316E+03  0.81586209665E+02 0.  0.
          6    2    1    2  501    0 -0.14623842603E+03 -0.53294087826E+02  0.18373178764E+03  0.29690986391E+03  0.17370135420E+03 0.  0.
         24    2    5    5    0    0 -0.25373832918E+02 -0.60280373668E+02  0.44664245711E+02  0.11246765270E+03  0.79853135265E+02 0.  0.
          5    1    5    5  501    0 -0.12086459311E+03  0.69862858416E+01  0.13906754193E+03  0.18444221121E+03  0.47000000000E+01 0. -1.
        -11    1    6    6    0    0 -0.42740602445E+02 -0.53423376741E+02  0.49645522216E+01  0.68596377882E+02  0.00000000000E+00 0.  1.
         12    1    6    6    0    0  0.17366769527E+02 -0.68569969265E+01  0.39699693489E+02  0.43871274814E+02  0.00000000000E+00 0. -1.
         -5    1    3    3    0  503  0.85870993938E+02  0.87485779966E+02 -0.14741564433E+03  0.19178386660E+03  0.47000000000E+01 0.  1.
         11    1    4    4    0    0  0.36959702398E+02  0.13430002365E+02 -0.53040434283E+01  0.39680189535E+02  0.00000000000E+00 0. -1.
        -12    1    4    4    0    0  0.23407729689E+02 -0.47621694505E+02 -0.86002669326E+02  0.10105546362E+03  0.00000000000E+00 0.  1.
</event>
<event>
12    1  0.8251070E-002  0.2486838E+03  0.7818608E-02  0.1116659E+00
         21   -1    0    0  501  502  0.00000000000E+00  0.00000000000E+00  0.16233094655E+04  0.16233094655E+04  0.00000000000E+00 0.  1.
         21   -1    0    0  502  503 -0.00000000000E+00 -0.00000000000E+00 -0.45634777668E+02  0.45634777668E+02  0.00000000000E+00 0. -1.
         -6    2    1    2    0  503  0.30471714548E+01  0.15694949206E+03  0.38171407750E+03  0.44740202454E+03  0.17268614968E+03 0.  0.
        -24    2    3    3    0    0  0.77649473742E+00  0.82508516003E+02  0.89887727249E+02  0.14618561797E+03  0.80511944663E+02 0.  0.
          6    2    1    2  501    0 -0.30471714548E+01 -0.15694949206E+03  0.11959606104E+04  0.12215422187E+04  0.19287607967E+03 0.  0.
         24    2    5    5    0    0 -0.38872787537E+02 -0.10218501668E+03  0.10792451492E+04  0.10876496819E+04  0.79113002497E+02 0.  0.
          5    1    5    5  501    0  0.35825616082E+02 -0.54764475380E+02  0.11671546116E+03  0.13389253678E+03  0.47000000000E+01 0. -1.
        -11    1    6    6    0    0 -0.98092102385E+01 -0.93471531643E+02  0.58756852155E+03  0.59503774279E+03  0.00000000000E+00 0.  1.
         12    1    6    6    0    0 -0.29063577299E+02 -0.87134850402E+01  0.49167662766E+03  0.49261193909E+03  0.00000000000E+00 0. -1.
         -5    1    3    3    0  503  0.22706767174E+01  0.74440976060E+02  0.29182635025E+03  0.30121640658E+03  0.47000000000E+01 0.  1.
         11    1    4    4    0    0  0.36730614390E+02  0.66406803125E+02  0.58871265650E+02  0.96045965319E+02  0.00000000000E+00 0. -1.
        -12    1    4    4    0    0 -0.35954119653E+02  0.16101712878E+02  0.31016461599E+02  0.50139652649E+02  0.00000000000E+00 0.  1.
</event>
<event>
12    1  0.8251070E-002  0.1914189E+03  0.7818608E-02  0.1157743E+00
         21   -1    0    0  501  502  0.00000000000E+00  0.00000000000E+00  0.10889899623E+03  0.10889899623E+03  0.00000000000E+00 0.  1.
         21   -1    0    0  502  503 -0.00000000000E+00 -0.00000000000E+00 -0.61949178616E+03  0.61949178616E+03  0.00000000000E+00 0. -1.
         -6    2    1    2    0  503 -0.45649775326E+01 -0.83230147658E+02 -0.50244457192E+03  0.53679850945E+03  0.16957003096E+03 0.  0.
        -24    2    3    3    0    0 -0.14831104635E+02 -0.97737600001E+01 -0.42319601914E+03  0.42815387143E+03  0.62493031253E+02 0.  0.
          6    2    1    2  501    0  0.45649775326E+01  0.83230147658E+02 -0.81482180115E+01  0.19159227294E+03  0.17231688569E+03 0.  0.
         24    2    5    5    0    0  0.16970427462E+02  0.10994588882E+03  0.34043028406E+02  0.13992199823E+03  0.77737660948E+02 0.  0.
          5    1    5    5  501    0 -0.12405449930E+02 -0.26715741164E+02 -0.42191246418E+02  0.51670274706E+02  0.47000000000E+01 0. -1.
        -13    1    6    6    0    0  0.40877542903E+02  0.57186221920E+02 -0.43523717226E+01  0.70428549828E+02  0.00000000000E+00 0.  1.
         14    1    6    6    0    0 -0.23907115441E+02  0.52759666902E+02  0.38395400129E+02  0.69493448406E+02  0.00000000000E+00 0. -1.
         -5    1    3    3    0  503  0.10266127103E+02 -0.73456387658E+02 -0.79248552778E+02  0.10864463802E+03  0.47000000000E+01 0.  1.
         11    1    4    4    0    0  0.16209518651E+02  0.49795648843E+01 -0.40350243620E+02  0.43768558595E+02  0.00000000000E+00 0. -1.
        -12    1    4    4    0    0 -0.31040623287E+02 -0.14753324884E+02 -0.38284577552E+03  0.38438531284E+03  0.00000000000E+00 0.  1.
</event>
<event>
12    1  0.8251070E-002  0.2767852E+03  0.7818608E-02  0.1098470E+00
         21   -1    0    0  501  502  0.00000000000E+00  0.00000000000E+00  0.11305523905E+04  0.11305523905E+04  0.00000000000E+00 0.  1.
         21   -1    0    0  502  503 -0.00000000000E+00 -0.00000000000E+00 -0.89958280020E+02  0.89958280020E+02  0.00000000000E+00 0.  1.
         -6    2    1    2    0  503 -0.11629443918E+03  0.17297256512E+03  0.20042856645E+03  0.33592706122E+03  0.17097214787E+03 0.  0.
        -24    2    3    3    0    0 -0.50325848858E+02  0.28293793637E+02  0.27047998959E+02  0.10062573737E+03  0.77850593776E+02 0.  0.
          6    2    1    2  501    0  0.11629443918E+03 -0.17297256512E+03  0.84016554407E+03  0.88458360934E+03  0.18211566542E+03 0.  0.
         24    2    5    5    0    0 -0.43010896210E+01 -0.44185337438E+02  0.38578157947E+03  0.39712457632E+03  0.83124356497E+02 0.  0.
          5    1    5    5  501    0  0.12059552880E+03 -0.12878722768E+03  0.45438396461E+03  0.48745903302E+03  0.47000000000E+01 0. -1.
        -11    1    6    6    0    0 -0.32923819221E+02 -0.45524742801E+02  0.16094111303E+03  0.17046560340E+03  0.00000000000E+00 0.  1.
         12    1    6    6    0    0  0.28622729600E+02  0.13394053630E+01  0.22484046643E+03  0.22665897291E+03  0.00000000000E+00 0. -1.
         -5    1    3    3    0  503 -0.65968590324E+02  0.14467877148E+03  0.17338056749E+03  0.23530132386E+03  0.47000000000E+01 0.  1.
         11    1    4    4    0    0 -0.25400046081E+01 -0.53427557181E+01  0.40277612482E+02  0.40709737524E+02  0.00000000000E+00 0. -1.
        -12    1    4    4    0    0 -0.47785844249E+02  0.33636549355E+02 -0.13229613523E+02  0.59915999842E+02  0.00000000000E+00 0.  1.
</event>
<event>
12    1  0.8251070E-002  0.1940239E+03  0.7818608E-02  0.1155000E+00
         21   -1    0    0  501  502  0.00000000000E+00  0.00000000000E+00  0.28393988915E+03  0.28393988915E+03  0.00000000000E+00 0. -1.
         21   -1    0    0  502  503 -0.00000000000E+00 -0.00000000000E+00 -0.27320988767E+03  0.27320988767E+03  0.00000000000E+00 0. -1.
         -6    2    1    2    0  503 -0.81659500353E+02 -0.33507957127E+02 -0.19476227099E+03  0.27453282087E+03  0.17217685775E+03 0.  0.
        -24    2    3    3    0    0 -0.89862809226E+02 -0.81768916864E+02 -0.14860934798E+03  0.20708953497E+03  0.77716516510E+02 0.  0.
          6    2    1    2  501    0  0.81659500353E+02  0.33507957127E+02  0.20549227247E+03  0.28261695596E+03  0.17278371613E+03 0.  0.
         24    2    5    5    0    0  0.15119098746E+02 -0.42729388977E+02  0.90888965672E+02  0.12966021071E+03  0.80601354396E+02 0.  0.
          5    1    5    5  501    0  0.66540401607E+02  0.76237346104E+02  0.11460330680E+03  0.15295674525E+03  0.47000000000E+01 0. -1.
        -11    1    6    6    0    0  0.39984105449E+01 -0.23308018941E+02 -0.10468093660E+02  0.25861786843E+02  0.00000000000E+00 0.  1.
         12    1    6    6    0    0  0.11120688201E+02 -0.19421370036E+02  0.10135705933E+03  0.10379842386E+03  0.00000000000E+00 0. -1.
         -5    1    3    3    0  503  0.82033088728E+01  0.48260959737E+02 -0.46152923010E+02  0.67443285904E+02  0.47000000000E+01 0.  1.
         11    1    4    4    0    0 -0.48999538002E+02  0.27008114551E+01 -0.64732327460E+02  0.81231295233E+02  0.00000000000E+00 0. -1.
        -12    1    4    4    0    0 -0.40863271224E+02 -0.84469728319E+02 -0.83877020525E+02  0.12585823974E+03  0.00000000000E+00 0.  1.
</event>
<event>
12    1  0.8251070E-002  0.1719038E+03  0.7818608E-02  0.1176016E+00
         21   -1    0    0  501  502  0.00000000000E+00  0.00000000000E+00  0.41849118592E+02  0.41849118592E+02  0.00000000000E+00 0.  1.
         21   -1    0    0  502  503 -0.00000000000E+00 -0.00000000000E+00 -0.70529338341E+03  0.70529338341E+03  0.00000000000E+00 0.  1.
         -6    2    1    2    0  503 -0.92539217435E+01 -0.74189397155E+01 -0.31466534935E+03  0.35830107360E+03  0.17095233702E+03 0.  0.
        -24    2    3    3    0    0 -0.30149952799E+02 -0.29717323759E+02 -0.31456764687E+03  0.32738244507E+03  0.80214225008E+02 0.  0.
          6    2    1    2  501    0  0.92539217435E+01  0.74189397155E+01 -0.34877891547E+03  0.38884142840E+03  0.17149416557E+03 0.  0.
         24    2    5    5    0    0  0.24733234765E+02  0.18376216817E+02 -0.35739691803E+03  0.36748654556E+03  0.79777101381E+02 0.  0.
          5    1    5    5  501    0 -0.15479313022E+02 -0.10957277102E+02  0.86180025531E+01  0.21354882840E+02  0.47000000000E+01 0. -1.
        -11    1    6    6    0    0  0.50889079931E+02  0.24287810505E+02 -0.27867913664E+03  0.28432667373E+03  0.00000000000E+00 0.  1.
         12    1    6    6    0    0 -0.26155845165E+02 -0.59115936873E+01 -0.78717781387E+02  0.83159871830E+02  0.00000000000E+00 0. -1.
         -5    1    3    3    0  503  0.20896031056E+02  0.22298384043E+02 -0.97702472154E-01  0.30918628537E+02  0.47000000000E+01 0.  1.
         13    1    4    4    0    0  0.15404434143E+02  0.18680792376E+02 -0.80843457550E+02  0.84391547111E+02  0.00000000000E+00 0. -1.
        -14    1    4    4    0    0 -0.45554386942E+02 -0.48398116135E+02 -0.23372418932E+03  0.24299089796E+03  0.00000000000E+00 0.  1.
</event>
<event>
12    1  0.8251070E-002  0.1788471E+03  0.7818608E-02  0.1171265E+00
         21   -1    0    0  501  502  0.00000000000E+00  0.00000000000E+00  0.52176689541E+03  0.52176689541E+03  0.00000000000E+00 0.  1.
         21   -1    0    0  502  503 -0.00000000000E+00 -0.00000000000E+00 -0.86256867075E+02  0.86256867075E+02  0.00000000000E+00 0.  1.
         -6    2    1    2    0  503 -0.43547130863E+02  0.17290303786E+02  0.48182402839E+02  0.18522371079E+03  0.17260061380E+03 0.  0.
        -24    2    3    3    0    0 -0.92767946705E+02  0.21326944308E+02  0.55854769805E+02  0.13502472281E+03  0.77789394977E+02 0.  0.
          6    2    1    2  501    0  0.43547130863E+02 -0.17290303786E+02  0.38732762549E+03  0.42280005170E+03  0.16291681016E+03 0.  0.
         24    2    5    5    0    0 -0.17703518247E+02 -0.43296273163E+02  0.29435733939E+03  0.30837314683E+03  0.79118724740E+02 0.  0.
          5    1    5    5  501    0  0.61250649110E+02  0.26005969377E+02  0.92970286104E+02  0.11442690487E+03  0.47000000000E+01 0. -1.
        -13    1    6    6    0    0  0.14266557056E+02 -0.47026108626E+02  0.24179829933E+03  0.24674157960E+03  0.00000000000E+00 0.  1.
         14    1    6    6    0    0 -0.31970075303E+02  0.37298354633E+01  0.52559040052E+02  0.61631567225E+02  0.00000000000E+00 0. -1.
         -5    1    3    3    0  503  0.49220815842E+02 -0.40366405220E+01 -0.76723669653E+01  0.50198987975E+02  0.47000000000E+01 0.  1.
         11    1    4    4    0    0 -0.28935751350E+02  0.28905915785E+02  0.57690552376E+02  0.70717957458E+02  0.00000000000E+00 0. -1.
        -12    1    4    4    0    0 -0.63832195355E+02 -0.75789714772E+01 -0.18357825716E+01  0.64306765353E+02  0.00000000000E+00 0.  1.
</event>
<event>
12    1  0.8251070E-002  0.3598993E+03  0.7818608E-02  0.1058701E+00
         21   -1    0    0  503  502  0.00000000000E+00  0.00000000000E+00  0.12397814496E+03  0.12397814496E+03  0.00000000000E+00 0. -1.
         21   -1    0    0  501  503 -0.00000000000E+00 -0.00000000000E+00 -0.24144788439E+04  0.24144788439E+04  0.00000000000E+00 0.  1.
          6    2    1    2  501    0 -0.31456302749E+03 -0.17188259110E+02 -0.21025440692E+04  0.21331242473E+04  0.17401769167E+03 0.  0.
         24    2    3    3    0    0 -0.17680332720E+03  0.35080338348E+02 -0.14986277767E+04  0.15114758582E+04  0.78638478174E+02 0.  0.
         -6    2    1    2    0  502  0.31456302749E+03  0.17188259110E+02 -0.18795662980E+03  0.40533274161E+03  0.17239954238E+03 0.  0.
        -24    2    5    5    0    0  0.13663018759E+03 -0.53426369389E+02 -0.71101377093E+02  0.18100315961E+03  0.78641928103E+02 0.  0.
          5    1    3    3  501    0 -0.13775970030E+03 -0.52268597458E+02 -0.60391629249E+03  0.62164838908E+03  0.47000000000E+01 0. -1.
        -11    1    4    4    0    0 -0.24491313491E+02  0.42293123217E+01 -0.67412286507E+02  0.71847949806E+02  0.00000000000E+00 0.  1.
         12    1    4    4    0    0 -0.15231201370E+03  0.30851026026E+02 -0.14312154902E+04  0.14396279084E+04  0.00000000000E+00 0. -1.
         -5    1    5    5    0  502  0.17793283990E+03  0.70614628499E+02 -0.11685525271E+03  0.22432958200E+03  0.47000000000E+01 0.  1.
         11    1    6    6    0    0  0.11403052147E+03 -0.68594222128E+01 -0.42655768839E+02  0.12194066638E+03  0.00000000000E+00 0. -1.
        -12    1    6    6    0    0  0.22599666120E+02 -0.46566947176E+02 -0.28445608254E+02  0.59062493234E+02  0.00000000000E+00 0.  1.
</event>
<event>
12    1  0.8251070E-002  0.1764444E+03  0.7818608E-02  0.1171717E+00
         21   -1    0    0  503  502  0.00000000000E+00  0.00000000000E+00  0.11748725617E+04  0.11748725617E+04  0.00000000000E+00 0. -1.
         21   -1    0    0  501  503 -0.00000000000E+00 -0.00000000000E+00 -0.51188700410E+02  0.51188700410E+02  0.00000000000E+00 0. -1.
          6    2    1    2  501    0 -0.33146352280E+02 -0.18443516953E+02  0.99120443461E+03  0.10067863960E+04  0.17231880899E+03 0.  0.
         24    2    3    3    0    0  0.20558742023E+02  0.19003628035E+02  0.80400209117E+03  0.80840965033E+03  0.79517296152E+02 0.  0.
         -6    2    1    2    0  502  0.33146352280E+02  0.18443516953E+02  0.13247942671E+03  0.21927486617E+03  0.17056325644E+03 0.  0.
        -24    2    5    5    0    0  0.10970107901E+02  0.56367810340E+02  0.14307078177E+03  0.17384024671E+03  0.80333738068E+02 0.  0.
          5    1    3    3  501    0 -0.53705094303E+02 -0.37447144987E+02  0.18720234344E+03  0.19837674564E+03  0.47000000000E+01 0. -1.
        -11    1    4    4    0    0  0.92575627460E+01 -0.18733464806E+02  0.61456150266E+03  0.61491664941E+03  0.00000000000E+00 0.  1.
         12    1    4    4    0    0  0.11301179277E+02  0.37737092841E+02  0.18944058851E+03  0.19349300092E+03  0.00000000000E+00 0. -1.
         -5    1    5    5    0  502  0.22176244379E+02 -0.37924293387E+02 -0.10591355053E+02  0.45434619461E+02  0.47000000000E+01 0.  1.
         11    1    6    6    0    0  0.26330439464E+02  0.66999984223E+02  0.78007919994E+02  0.10614860107E+03  0.00000000000E+00 0. -1.
        -12    1    6    6    0    0 -0.15360331563E+02 -0.10632173884E+02  0.65062861772E+02  0.67691645638E+02  0.00000000000E+00 0.  1.
</event>
<event>
12    1  0.8251070E-002  0.2373586E+03  0.7818608E-02  0.1121696E+00
         21   -1    0    0  501  502  0.00000000000E+00  0.00000000000E+00  0.27115298383E+03  0.27115298383E+03  0.00000000000E+00 0.  1.
         21   -1    0    0  502  503 -0.00000000000E+00 -0.00000000000E+00 -0.22388088514E+03  0.22388088514E+03  0.00000000000E+00 0.  1.
         -6    2    1    2    0  503  0.14814137685E+03  0.66096283948E+02 -0.44162831941E+02  0.24067299521E+03  0.17221657473E+03 0.  0.
        -24    2    3    3    0    0  0.14391394515E+02  0.19253054708E+02 -0.53835540247E+02  0.98549819104E+02  0.78968405708E+02 0.  0.
          6    2    1    2  501    0 -0.14814137685E+03 -0.66096283948E+02  0.91434930626E+02  0.25436087376E+03  0.17327585313E+03 0.  0.
         24    2    5    5    0    0 -0.12579364976E+02 -0.34917667520E+02  0.76393597668E+02  0.11436981376E+03  0.76596270180E+02 0.  0.
          5    1    5    5  501    0 -0.13556201187E+03 -0.31178616428E+02  0.15041332958E+02  0.13999106001E+03  0.47000000000E+01 0. -1.
        -13    1    6    6    0    0  0.20740808701E+02 -0.18011046043E+02  0.71613634521E+02  0.76701314033E+02  0.00000000000E+00 0.  1.
         14    1    6    6    0    0 -0.33320173677E+02 -0.16906621477E+02  0.47799631474E+01  0.37668499722E+02  0.00000000000E+00 0. -1.
         -5    1    3    3    0  503  0.13374998233E+03  0.46843229239E+02  0.96727083064E+01  0.14212317610E+03  0.47000000000E+01 0.  1.
         13    1    4    4    0    0  0.22732900992E+02 -0.24846732218E+02 -0.38429226943E+02  0.51097459554E+02  0.00000000000E+00 0. -1.
        -14    1    4    4    0    0 -0.83415064770E+01  0.44099786927E+02 -0.15406313305E+02  0.47452359551E+02  0.00000000000E+00 0.  1.
</event>
<event>
12    1  0.8251070E-002  0.1831502E+03  0.7818608E-02  0.1164959E+00
         21   -1    0    0  501  502  0.00000000000E+00  0.00000000000E+00  0.13546011059E+03  0.13546011059E+03  0.00000000000E+00 0.  1.
         21   -1    0    0  502  503 -0.00000000000E+00 -0.00000000000E+00 -0.30036622654E+03  0.30036622654E+03  0.00000000000E+00 0.  1.
         -6    2    1    2    0  503  0.63025037825E+02 -0.96615667754E+01 -0.17446335612E+03  0.25242696557E+03  0.17092808152E+03 0.  0.
        -24    2    3    3    0    0  0.17127933373E+02  0.63651085979E+01 -0.18534915211E+03  0.20238709072E+03  0.79198141353E+02 0.  0.
          6    2    1    2  501    0 -0.63025037825E+02  0.96615667754E+01  0.95572401657E+01  0.18339937156E+03  0.17169300330E+03 0.  0.
         24    2    5    5    0    0 -0.79168929175E+02 -0.14100291672E+02 -0.45162162619E+02  0.12141909900E+03  0.78971128259E+02 0.  0.
          5    1    5    5  501    0  0.16143891350E+02  0.23761858447E+02  0.54719402784E+02  0.61980272554E+02  0.47000000000E+01 0. -1.
        -13    1    6    6    0    0 -0.31350957049E+02  0.23624152445E+02  0.85908376623E+01  0.40184394712E+02  0.00000000000E+00 0.  1.
         14    1    6    6    0    0 -0.47817972125E+02 -0.37724444116E+02 -0.53753000281E+02  0.81234704291E+02  0.00000000000E+00 0. -1.
         -5    1    3    3    0  503  0.45897104452E+02 -0.16026675373E+02  0.10885795988E+02  0.50039874849E+02  0.47000000000E+01 0.  1.
         11    1    4    4    0    0 -0.27651911096E+02 -0.39777211645E+01 -0.32899393502E+02  0.43160404837E+02  0.00000000000E+00 0. -1.
        -12    1    4    4    0    0  0.44779844469E+02  0.10342829762E+02 -0.15244975861E+03  0.15922668588E+03  0.00000000000E+00 0.  1.
</event>
<event>
12    1  0.8251070E-002  0.1836049E+03  0.7818608E-02  0.1164773E+00
         21   -1    0    0  503  502  0.00000000000E+00  0.00000000000E+00  0.86190473303E+02  0.86190473303E+02  0.00000000000E+00 0.  1.
         21   -1    0    0  501  503 -0.00000000000E+00 -0.00000000000E+00 -0.44259782932E+03  0.44259782932E+03  0.00000000000E+00 0.  1.
          6    2    1    2  501    0 -0.38518637260E+02 -0.47734886286E+02 -0.27081880266E+03  0.32621444268E+03  0.17120377902E+03 0.  0.
         24    2    3    3    0    0 -0.73543158452E+02  0.22822660516E+01 -0.22400608398E+03  0.24913037660E+03  0.80457529111E+02 0.  0.
         -6    2    1    2    0  502  0.38518637260E+02  0.47734886286E+02 -0.85588553358E+02  0.20257385995E+03  0.17305624370E+03 0.  0.
        -24    2    5    5    0    0 -0.11297164948E+02  0.82462888218E+02 -0.27200669722E+02  0.11820038531E+03  0.79395848657E+02 0.  0.
          5    1    3    3  501    0  0.35024521192E+02 -0.50017152337E+02 -0.46812718678E+02  0.77084066075E+02  0.47000000000E+01 0. -1.
        -13    1    4    4    0    0 -0.40259115289E+02 -0.22427906878E+02 -0.41634057014E+02  0.62106377082E+02  0.00000000000E+00 0.  1.
         14    1    4    4    0    0 -0.33284043163E+02  0.24710172930E+02 -0.18237202697E+03  0.18702399952E+03  0.00000000000E+00 0. -1.
         -5    1    5    5    0  502  0.49815802208E+02 -0.34728001932E+02 -0.58387883636E+02  0.84373474643E+02  0.47000000000E+01 0.  1.
         11    1    6    6    0    0  0.35113360378E+01  0.64587684833E+02  0.18212969934E+02  0.67198294522E+02  0.00000000000E+00 0. -1.
        -12    1    6    6    0    0 -0.14808500986E+02  0.17875203385E+02 -0.45413639656E+02  0.51002090784E+02  0.00000000000E+00 0.  1.
</event>
<event>
12    1  0.8251070E-002  0.1817936E+03  0.7818608E-02  0.1166079E+00
         21   -1    0    0  503  502  0.00000000000E+00  0.00000000000E+00  0.89849689748E+02  0.89849689748E+02  0.00000000000E+00 0.  1.
         21   -1    0    0  501  503 -0.00000000000E+00 -0.00000000000E+00 -0.38068803073E+03  0.38068803073E+03  0.00000000000E+00 0. -1.
          6    2    1    2  501    0 -0.16035820250E+02  0.59706017474E+02 -0.10215898010E+03  0.20852856418E+03  0.17095540006E+03 0.  0.
         24    2    3    3    0    0  0.12162328719E+02  0.55230028655E+01 -0.12147677909E+03  0.14429304414E+03  0.76716679596E+02 0.  0.
         -6    2    1    2    0  502  0.16035820250E+02 -0.59706017474E+02 -0.18867936088E+03  0.26200915630E+03  0.17095888602E+03 0.  0.
        -24    2    5    5    0    0  0.37472717530E+02 -0.14690012074E+02 -0.19217672422E+03  0.21180653827E+03  0.79436234221E+02 0.  0.
          5    1    3    3  501    0 -0.28198148969E+02  0.54183014609E+02  0.19317798987E+02  0.64235520042E+02  0.47000000000E+01 0. -1.
        -13    1    4    4    0    0  0.11894805892E+02  0.18277682806E+02  0.34006980698E+00  0.21809991826E+02  0.00000000000E+00 0.  1.
         14    1    4    4    0    0  0.26752282678E+00 -0.12754679940E+02 -0.12181684889E+03  0.12248305231E+03  0.00000000000E+00 0. -1.
         -5    1    5    5    0  502 -0.21436897280E+02 -0.45016005400E+02  0.34973633357E+01  0.50202618035E+02  0.47000000000E+01 0.  1.
         11    1    6    6    0    0  0.46933157638E+02 -0.25097624154E+02 -0.19031769004E+03  0.19761942001E+03  0.00000000000E+00 0. -1.
        -12    1    6    6    0    0 -0.94604401076E+01  0.10407612081E+02 -0.18590341778E+01  0.14187118253E+02  0.00000000000E+00 0.  1.
</event>
<event>
12    1  0.8251070E-002  0.2158603E+03  0.7818608E-02  0.1137342E+00
         21   -1    0    0  501  502  0.00000000000E+00  0.00000000000E+00  0.11428940688E+03  0.11428940688E+03  0.00000000000E+00 0.  1.
         21   -1    0    0  502  503 -0.00000000000E+00 -0.00000000000E+00 -0.60934152439E+03  0.60934152439E+03  0.00000000000E+00 0. -1.
         -6    2    1    2    0  503  0.11811772722E+03  0.49759275037E+02 -0.45668444578E+03  0.50438736870E+03  0.17151720541E+03 0.  0.
        -24    2    3    3    0    0  0.20353193215E+02  0.68329910803E+02 -0.29790248185E+03  0.31693984353E+03  0.81374114686E+02 0.  0.
          6    2    1    2  501    0 -0.11811772722E+03 -0.49759275037E+02 -0.38367671728E+02  0.21924356257E+03  0.17368902832E+03 0.  0.
         24    2    5    5    0    0 -0.12575876608E+02 -0.68903095835E+02 -0.27498370746E+02  0.11132785561E+03  0.82048411026E+02 0.  0.
          5    1    5    5  501    0 -0.10554185062E+03  0.19143820798E+02 -0.10869300982E+02  0.10791570697E+03  0.47000000000E+01 0. -1.
        -13    1    6    6    0    0  0.24691241307E+02 -0.39095018013E+02  0.13760414804E+02  0.48243412466E+02  0.00000000000E+00 0.  1.
         14    1    6    6    0    0 -0.37267117915E+02 -0.29808077822E+02 -0.41258785550E+02  0.63084443140E+02  0.00000000000E+00 0. -1.
         -5    1    3    3    0  503  0.97764534009E+02 -0.18570635767E+02 -0.15878196393E+03  0.18744752517E+03  0.47000000000E+01 0.  1.
         11    1    4    4    0    0 -0.49291754781E+00 -0.14010807610E+02 -0.10801579405E+03  0.10892179516E+03  0.00000000000E+00 0. -1.
        -12    1    4    4    0    0  0.20846110762E+02  0.82340718414E+02 -0.18988668780E+03  0.20801804837E+03  0.00000000000E+00 0.  1.
</event>
<event>
12    1  0.8251070E-002  0.1967917E+03  0.7818608E-02  0.1152521E+00
         21   -1    0    0  501  502  0.00000000000E+00  0.00000000000E+00  0.11641904292E+03  0.11641904292E+03  0.00000000000E+00 0. -1.
         21   -1    0    0  502  503 -0.00000000000E+00 -0.00000000000E+00 -0.59838715025E+03  0.59838715025E+03  0.00000000000E+00 0. -1.
         -6    2    1    2    0  503  0.94190649194E+02  0.91075832191E+01 -0.47924674459E+03  0.51799571444E+03  0.17230000439E+03 0.  0.
        -24    2    3    3    0    0  0.73056468530E+02  0.25970211581E+00 -0.48264609993E+03  0.49436132828E+03  0.78157213904E+02 0.  0.
          6    2    1    2  501    0 -0.94190649194E+02 -0.91075832191E+01 -0.27213627419E+01  0.19681047873E+03  0.17254602938E+03 0.  0.
         24    2    5    5    0    0 -0.16004846415E+02  0.10355196718E+02 -0.56863507283E+02  0.99623641275E+02  0.79548892089E+02 0.  0.
          5    1    5    5  501    0 -0.78185802779E+02 -0.19462779937E+02  0.54142144541E+02  0.97186837455E+02  0.47000000000E+01 0. -1.
        -11    1    6    6    0    0 -0.13170492295E+02  0.27223565842E+02  0.90178836152E+01  0.31557988360E+02  0.00000000000E+00 0.  1.
         12    1    6    6    0    0 -0.28343541207E+01 -0.16868369123E+02 -0.65881390898E+02  0.68065652915E+02  0.00000000000E+00 0. -1.
         -5    1    3    3    0  503  0.21134180664E+02  0.88478811033E+01  0.33993553412E+01  0.23634386159E+02  0.47000000000E+01 0.  1.
         13    1    4    4    0    0  0.22383744014E+02  0.36936869962E+02 -0.16121794096E+03  0.16690293241E+03  0.00000000000E+00 0. -1.
        -14    1    4    4    0    0  0.50672724516E+02 -0.36677167847E+02 -0.32142815896E+03  0.32745839587E+03  0.00000000000E+00 0.  1.
</event>
<event>
12    1  0.8251070E-002  0.1828749E+03  0.7818608E-02  0.1165806E+00
         21   -1    0    0  503  502  0.00000000000E+00  0.00000000000E+00  0.34165974992E+04  0.34165974992E+04  0.00000000000E+00 0.  1.
         21   -1    0    0  501  503 -0.00000000000E+00 -0.00000000000E+00 -0.12925135180E+02  0.12925135180E+02  0.00000000000E+00 0.  1.
          6    2    1    2  501    0 -0.29643509546E+02 -0.50992090087E+02  0.84577263839E+03  0.86531762812E+03  0.17310202416E+03 0.  0.
         24    2    3    3    0    0 -0.85388023245E+02 -0.49912714004E+02  0.58403498010E+03  0.59766616141E+03  0.79533571438E+02 0.  0.
         -6    2    1    2    0  502  0.29643509546E+02  0.50992090087E+02  0.25578997257E+04  0.25642050063E+04  0.16975681685E+03 0.  0.
        -24    2    5    5    0    0 -0.61214643217E+01  0.82111007750E+02  0.22308591671E+04  0.22337127412E+04  0.77202956695E+02 0.  0.
          5    1    3    3  501    0  0.55744513699E+02 -0.10793760834E+01  0.26173765829E+03  0.26765146671E+03  0.47000000000E+01 0. -1.
        -13    1    4    4    0    0 -0.66258103997E+02 -0.49189844201E+02  0.25383976052E+03  0.26691646847E+03  0.00000000000E+00 0.  1.
         14    1    4    4    0    0 -0.19129919248E+02 -0.72286980256E+00  0.33019521958E+03  0.33074969294E+03  0.00000000000E+00 0. -1.
         -5    1    5    5    0  502  0.35764973868E+02 -0.31118917663E+02  0.32704055853E+03  0.33049226514E+03  0.47000000000E+01 0.  1.
         13    1    6    6    0    0 -0.24454988849E+02  0.18156920429E+02  0.13504377474E+04  0.13507811924E+04  0.00000000000E+00 0. -1.
        -14    1    6    6    0    0  0.18333524527E+02  0.63954087320E+02  0.88042141975E+03  0.88293154874E+03  0.00000000000E+00 0.  1.
</event>
<event>
12    1  0.8251070E-002  0.1739873E+03  0.7818608E-02  0.1174004E+00
         21   -1    0    0  503  502  0.00000000000E+00  0.00000000000E+00  0.21268667962E+02  0.21268667962E+02  0.00000000000E+00 0. -1.
         21   -1    0    0  501  503 -0.00000000000E+00 -0.00000000000E+00 -0.17132861122E+04  0.17132861122E+04  0.00000000000E+00 0. -1.
          6    2    1    2  501    0 -0.72675696446E+01  0.19990631102E+02 -0.12057664045E+04  0.12181134360E+04  0.17168365648E+03 0.  0.
         24    2    3    3    0    0 -0.42673908040E+02 -0.42083616043E+02 -0.76391678390E+03  0.77049753128E+03  0.80656678677E+02 0.  0.
         -6    2    1    2    0  502  0.72675696446E+01 -0.19990631102E+02 -0.48625103973E+03  0.51644134413E+03  0.17268220924E+03 0.  0.
        -24    2    5    5    0    0 -0.41649253289E+02 -0.38312012616E+02 -0.19216972764E+03  0.21772000792E+03  0.85266212633E+02 0.  0.
          5    1    3    3  501    0  0.35406338395E+02  0.62074247144E+02 -0.44184962059E+03  0.44761590474E+03  0.47000000000E+01 0. -1.
        -13    1    4    4    0    0 -0.37945482890E+02 -0.12393575480E+02 -0.68317400973E+03  0.68433923456E+03  0.00000000000E+00 0.  1.
         14    1    4    4    0    0 -0.47284251495E+01 -0.29690040563E+02 -0.80742774167E+02  0.86158296717E+02  0.00000000000E+00 0. -1.
         -5    1    5    5    0  502  0.48916822934E+02  0.18321381514E+02 -0.29408131209E+03  0.29872133621E+03  0.47000000000E+01 0.  1.
         13    1    6    6    0    0 -0.50445024070E+02 -0.56645407218E+02 -0.17630449952E+03  0.19192883880E+03  0.00000000000E+00 0. -1.
        -14    1    6    6    0    0  0.87957707811E+01  0.18333394602E+02 -0.15865228124E+02  0.25791169122E+02  0.00000000000E+00 0.  1.
</event>
<event>
12    1  0.8251070E-002  0.1923655E+03  0.7818608E-02  0.1156730E+00
         21   -1    0    0  503  502  0.00000000000E+00  0.00000000000E+00  0.47747080839E+02  0.47747080839E+02  0.00000000000E+00 0.  1.
         21   -1    0    0  501  503 -0.00000000000E+00 -0.00000000000E+00 -0.18377248148E+04  0.18377248148E+04  0.00000000000E+00 0. -1.
          6    2    1    2  501    0  0.72478247964E+02  0.39274651792E+02 -0.16125355187E+04  0.16237655036E+04  0.17189536570E+03 0.  0.
         24    2    3    3    0    0  0.62600832900E+02 -0.67659097881E+01 -0.49616558630E+03  0.50639304434E+03  0.79303117914E+02 0.  0.
         -6    2    1    2    0  502 -0.72478247964E+02 -0.39274651792E+02 -0.17744221524E+03  0.26170639207E+03  0.17380708040E+03 0.  0.
        -24    2    5    5    0    0 -0.92736166895E+01 -0.81532316331E+02 -0.12569909106E+03  0.16961960405E+03  0.78974869501E+02 0.  0.
          5    1    3    3  501    0  0.98774150644E+01  0.46040561580E+02 -0.11163699324E+04  0.11173724592E+04  0.47000000000E+01 0. -1.
        -13    1    4    4    0    0  0.76567347170E+02 -0.21199019129E+02 -0.42877259086E+03  0.43607097098E+03  0.00000000000E+00 0.  1.
         14    1    4    4    0    0 -0.13966514270E+02  0.14433109341E+02 -0.67392995447E+02  0.70322073358E+02  0.00000000000E+00 0. -1.
         -5    1    5    5    0  502 -0.63204631275E+02  0.42257664539E+02 -0.51743124175E+02  0.92086788011E+02  0.47000000000E+01 0.  1.
         13    1    6    6    0    0 -0.32341696012E+01  0.14125810764E+02 -0.34050239210E+02  0.37005637044E+02  0.00000000000E+00 0. -1.
        -14    1    6    6    0    0 -0.60394470884E+01 -0.95658127095E+02 -0.91648851853E+02  0.13261396701E+03  0.00000000000E+00 0.  1.
</event>
<event>
12    1  0.8251070E-002  0.1885103E+03  0.7818608E-02  0.1161579E+00
         21   -1    0    0  501  502  0.00000000000E+00  0.00000000000E+00  0.76459328287E+03  0.76459328287E+03  0.00000000000E+00 0. -1.
         21   -1    0    0  502  503 -0.00000000000E+00 -0.00000000000E+00 -0.48783820666E+02  0.48783820666E+02  0.00000000000E+00 0. -1.
         -6    2    1    2    0  503 -0.30893369066E+02  0.44198342769E+02  0.46989724800E+03  0.50352399680E+03  0.17269944389E+03 0.  0.
        -24    2    3    3    0    0 -0.74109396506E+02  0.71251563615E+02  0.31131675950E+03  0.33688257602E+03  0.77477463269E+02 0.  0.
          6    2    1    2  501    0  0.30893369066E+02 -0.44198342769E+02  0.24591221420E+03  0.30985310673E+03  0.18063287880E+03 0.  0.
         24    2    5    5    0    0  0.56904230689E+01  0.38315929549E+02  0.68686923455E+02  0.11268645818E+03  0.80497534314E+02 0.  0.
          5    1    5    5  501    0  0.25202945997E+02 -0.82514272318E+02  0.17722529075E+03  0.19716664856E+03  0.47000000000E+01 0. -1.
        -13    1    6    6    0    0 -0.36504882233E+02  0.80627177914E+01  0.30147985391E+02  0.48026189399E+02  0.00000000000E+00 0.  1.
         14    1    6    6    0    0  0.42195305302E+02  0.30253211757E+02  0.38538938064E+02  0.64660268777E+02  0.00000000000E+00 0. -1.
         -5    1    3    3    0  503  0.43216027440E+02 -0.27053220845E+02  0.15858048851E+03  0.16664142078E+03  0.47000000000E+01 0.  1.
         11    1    4    4    0    0 -0.47470561511E+02  0.44240836466E+02  0.82597033549E+02  0.10503797300E+03  0.00000000000E+00 0. -1.
        -12    1    4    4    0    0 -0.26638834995E+02  0.27010727148E+02  0.22871972595E+03  0.23184460302E+03  0.00000000000E+00 0.  1.
</event>
<event>
12    1  0.8251070E-002  0.2314816E+03  0.7818608E-02  0.1125645E+00
         21   -1    0    0  501  502  0.00000000000E+00  0.00000000000E+00  0.71674151276E+03  0.71674151276E+03  0.00000000000E+00 0. -1.
         21   -1    0    0  502  503 -0.00000000000E+00 -0.00000000000E+00 -0.94769118712E+02  0.94769118712E+02  0.00000000000E+00 0.  1.
         -6    2    1    2    0  503  0.12141583180E+03 -0.94941143226E+02  0.12430260012E+03  0.26274487113E+03  0.17270815273E+03 0.  0.
        -24    2    3    3    0    0  0.41236527539E+02  0.16438828435E+02  0.31902926760E+02  0.97233516363E+02  0.80410656536E+02 0.  0.
          6    2    1    2  501    0 -0.12141583180E+03  0.94941143226E+02  0.49766979392E+03  0.54876576034E+03  0.17237462416E+03 0.  0.
         24    2    5    5    0    0 -0.73816320560E+02  0.11830994964E+03  0.26208369838E+03  0.30723995841E+03  0.79135540222E+02 0.  0.
          5    1    5    5  501    0 -0.47599511238E+02 -0.23368806412E+02  0.23558609555E+03  0.24152580193E+03  0.47000000000E+01 0. -1.
        -11    1    6    6    0    0  0.15076203620E+01  0.66479763033E+02  0.13717179363E+03  0.15243993171E+03  0.00000000000E+00 0.  1.
         12    1    6    6    0    0 -0.75323940923E+02  0.51830186605E+02  0.12491190474E+03  0.15480002670E+03  0.00000000000E+00 0. -1.
         -5    1    3    3    0  503  0.80179304259E+02 -0.11137997166E+03  0.92399673362E+02  0.16551135476E+03  0.47000000000E+01 0.  1.
         11    1    4    4    0    0 -0.20898736903E+02 -0.83226368246E+01 -0.13516491746E+01  0.22535537343E+02  0.00000000000E+00 0. -1.
        -12    1    4    4    0    0  0.62135264442E+02  0.24761465259E+02  0.33254575934E+02  0.74697979020E+02  0.00000000000E+00 0.  1.
</event>
<event>
12    1  0.8251070E-002  0.2373112E+03  0.7818608E-02  0.1122490E+00
         21   -1    0    0  503  502  0.00000000000E+00  0.00000000000E+00  0.32418903794E+02  0.32418903794E+02  0.00000000000E+00 0. -1.
         21   -1    0    0  501  503 -0.00000000000E+00 -0.00000000000E+00 -0.18080253068E+04  0.18080253068E+04  0.00000000000E+00 0.  1.
          6    2    1    2  501    0  0.90097065678E+02  0.12802312021E+03 -0.65269893526E+03  0.69273441850E+03  0.17134081220E+03 0.  0.
         24    2    3    3    0    0  0.21541421821E+02  0.11294206933E+03 -0.27741489698E+03  0.31091310716E+03  0.80548068002E+02 0.  0.
         -6    2    1    2    0  502 -0.90097065678E+02 -0.12802312021E+03 -0.11229074678E+04  0.11477097921E+04  0.17835129720E+03 0.  0.
        -24    2    5    5    0    0  0.13152166594E+02 -0.30750203041E+02 -0.58687596560E+03  0.59320615310E+03  0.79696841830E+02 0.  0.
          5    1    3    3  501    0  0.68555643857E+02  0.15081050872E+02 -0.37528403829E+03  0.38182131134E+03  0.47000000000E+01 0. -1.
        -11    1    4    4    0    0  0.40090971469E+02  0.82154047870E+02 -0.24850482865E+03  0.26478524022E+03  0.00000000000E+00 0.  1.
         12    1    4    4    0    0 -0.18549549648E+02  0.30788021463E+02 -0.28910068324E+02  0.46127866938E+02  0.00000000000E+00 0. -1.
         -5    1    5    5    0  502 -0.10324923227E+03 -0.97272917165E+02 -0.53603150217E+03  0.55450363903E+03  0.47000000000E+01 0.  1.
         13    1    6    6    0    0  0.19344004470E+02 -0.55645631799E+02 -0.46046799080E+03  0.46422128064E+03  0.00000000000E+00 0. -1.
        -14    1    6    6    0    0 -0.61918378764E+01  0.24895428758E+02 -0.12640797480E+03  0.12898487246E+03  0.00000000000E+00 0.  1.
</event>
<event>
12    1  0.8251070E-002  0.2228467E+03  0.7818608E-02  0.1132987E+00
         21   -1    0    0  503  502  0.00000000000E+00  0.00000000000E+00  0.54503528044E+03  0.54503528044E+03  0.00000000000E+00 0.  1.
         21   -1    0    0  501  503 -0.00000000000E+00 -0.00000000000E+00 -0.11310300914E+03  0.11310300914E+03  0.00000000000E+00 0. -1.
          6    2    1    2  501    0 -0.13424581896E+03  0.30279472219E+01  0.64936271801E+02  0.23211495338E+03  0.17784691118E+03 0.  0.
         24    2    3    3    0    0 -0.90728429921E+02 -0.13089351404E+02  0.11241350205E+03  0.16555890290E+03  0.79812127958E+02 0.  0.
         -6    2    1    2    0  502  0.13424581896E+03 -0.30279472219E+01  0.36699599949E+03  0.42602333620E+03  0.16964289247E+03 0.  0.
        -24    2    5    5    0    0  0.11168900489E+02  0.19963492290E+02  0.96634627668E+02  0.12804029049E+03  0.80825610808E+02 0.  0.
          5    1    3    3  501    0 -0.43517389041E+02  0.16117298626E+02 -0.47477230251E+02  0.66556050486E+02  0.47000000000E+01 0. -1.
        -13    1    4    4    0    0  0.10258627494E+02  0.13464137272E+02  0.19085647331E+02  0.25510475585E+02  0.00000000000E+00 0.  1.
         14    1    4    4    0    0 -0.10098705741E+03 -0.26553488676E+02  0.93327854722E+02  0.14004842731E+03  0.00000000000E+00 0. -1.
         -5    1    5    5    0  502  0.12307691847E+03 -0.22991439512E+02  0.27036137183E+03  0.29798304570E+03  0.47000000000E+01 0.  1.
         13    1    6    6    0    0  0.16922333484E+02 -0.29287312340E+02  0.31875627755E+02  0.46477604063E+02  0.00000000000E+00 0. -1.
        -14    1    6    6    0    0 -0.57534329948E+01  0.49250804630E+02  0.64758999913E+02  0.81562686430E+02  0.00000000000E+00 0.  1.
</event>
<event>
12    1  0.8251070E-002  0.1778175E+03  0.7818608E-02  0.1169983E+00
         21   -1    0    0  503  502  0.00000000000E+00  0.00000000000E+00  0.65501150623E+03  0.65501150623E+03  0.00000000000E+00 0. -1.
         21   -1    0    0  501  503 -0.00000000000E+00 -0.00000000000E+00 -0.53244566477E+02  0.53244566477E+02  0.00000000000E+00 0. -1.
          6    2    1    2  501    0 -0.10131741307E+02 -0.44291019385E+02  0.19221993048E+03  0.26185411049E+03  0.17191488279E+03 0.  0.
         24    2    3    3    0    0  0.32872923153E+02 -0.12576221155E+02  0.17856482502E+03  0.20650267421E+03  0.97566220124E+02 0.  0.
         -6    2    1    2    0  502  0.10131741307E+02  0.44291019385E+02  0.40954700927E+03  0.44640196222E+03  0.17170210392E+03 0.  0.
        -24    2    5    5    0    0 -0.25757700933E+02  0.88803544281E+02  0.29529392067E+03  0.31855332049E+03  0.75684805461E+02 0.  0.
          5    1    3    3  501    0 -0.43004664460E+02 -0.31714798231E+02  0.13655105464E+02  0.55351436272E+02  0.47000000000E+01 0. -1.
        -11    1    4    4    0    0 -0.13671286146E+02  0.28971688641E+02  0.10634445269E+03  0.11106487035E+03  0.00000000000E+00 0.  1.
         12    1    4    4    0    0  0.46544209299E+02 -0.41547909795E+02  0.72220372326E+02  0.95437803865E+02  0.00000000000E+00 0. -1.
         -5    1    5    5    0  502  0.35889442240E+02 -0.44512524896E+02  0.11425308861E+03  0.12784864173E+03  0.47000000000E+01 0.  1.
         13    1    6    6    0    0 -0.45004081728E+02  0.67444290306E+02  0.15068791488E+03  0.17111676528E+03  0.00000000000E+00 0. -1.
        -14    1    6    6    0    0  0.19246380795E+02  0.21359253975E+02  0.14460600578E+03  0.14743655521E+03  0.00000000000E+00 0.  1.
</event>
<event>
12    1  0.8251070E-002  0.1924085E+03  0.7818608E-02  0.1156525E+00
         21   -1    0    0  503  502  0.00000000000E+00  0.00000000000E+00  0.61133890919E+03  0.61133890919E+03  0.00000000000E+00 0. -1.
         21   -1    0    0  501  503 -0.00000000000E+00 -0.00000000000E+00 -0.69050904530E+02  0.69050904530E+02  0.00000000000E+00 0. -1.
          6    2    1    2  501    0  0.72268927584E+02  0.48998313350E+02  0.39321022156E+03  0.43776169660E+03  0.17145667694E+03 0.  0.
         24    2    3    3    0    0 -0.20448416379E+02 -0.70154829371E+01  0.20314774311E+03  0.21894696456E+03  0.78749050944E+02 0.  0.
         -6    2    1    2    0  502 -0.72268927584E+02 -0.48998313350E+02  0.14907778310E+03  0.24262811712E+03  0.17035429316E+03 0.  0.
        -24    2    5    5    0    0 -0.69406530670E+02 -0.73870692607E+02  0.48486715390E+02  0.13886164147E+03  0.81593187064E+02 0.  0.
          5    1    3    3  501    0  0.92717343963E+02  0.56013796287E+02  0.19006247845E+03  0.21881473204E+03  0.47000000000E+01 0. -1.
        -13    1    4    4    0    0 -0.92249852479E+01  0.21689960974E+02  0.14232487380E+02  0.27533950986E+02  0.00000000000E+00 0.  1.
         14    1    4    4    0    0 -0.11223431131E+02 -0.28705443911E+02  0.18891525573E+03  0.19141301357E+03  0.00000000000E+00 0. -1.
         -5    1    5    5    0  502 -0.28623969140E+01  0.24872379257E+02  0.10059106771E+03  0.10376647565E+03  0.47000000000E+01 0.  1.
         13    1    6    6    0    0 -0.13000944387E+02  0.24038174784E+01 -0.18493508739E+02  0.22733516202E+02  0.00000000000E+00 0. -1.
        -14    1    6    6    0    0 -0.56405586284E+02 -0.76274510085E+02  0.66980224129E+02  0.11612812526E+03  0.00000000000E+00 0.  1.
</event>
<event>
12    1  0.8251070E-002  0.1790027E+03  0.7818608E-02  0.1168859E+00
         21   -1    0    0  503  502  0.00000000000E+00  0.00000000000E+00  0.46657960904E+03  0.46657960904E+03  0.00000000000E+00 0.  1.
         21   -1    0    0  501  503 -0.00000000000E+00 -0.00000000000E+00 -0.73065864833E+02  0.73065864833E+02  0.00000000000E+00 0.  1.
          6    2    1    2  501    0 -0.47945824478E+02  0.12969589404E+02  0.12976563871E+03  0.22109066555E+03  0.17197368715E+03 0.  0.
         24    2    3    3    0    0  0.61174363147E+01  0.54584562472E+02  0.11586184416E+03  0.15130493883E+03  0.80326335004E+02 0.  0.
         -6    2    1    2    0  502  0.47945824478E+02 -0.12969589404E+02  0.26374810549E+03  0.31855480832E+03  0.17160154550E+03 0.  0.
        -24    2    5    5    0    0  0.52894649404E+02 -0.35423702541E+02  0.72219864953E+02  0.12559409991E+03  0.80656595521E+02 0.  0.
          5    1    3    3  501    0 -0.54063260793E+02 -0.41614973068E+02  0.13903794550E+02  0.69785726720E+02  0.47000000000E+01 0. -1.
        -13    1    4    4    0    0 -0.22428096124E+02  0.20650750087E+02  0.99455916062E+02  0.10402380600E+03  0.00000000000E+00 0.  1.
         14    1    4    4    0    0  0.28545532439E+02  0.33933812385E+02  0.16405928101E+02  0.47281132834E+02  0.00000000000E+00 0. -1.
         -5    1    5    5    0  502 -0.49488249265E+01  0.22454113137E+02  0.19152824054E+03  0.19296070841E+03  0.47000000000E+01 0.  1.
         13    1    6    6    0    0  0.30835504247E+02 -0.31537085813E+02  0.87836429719E+02  0.98288628485E+02  0.00000000000E+00 0. -1.
        -14    1    6    6    0    0  0.22059145158E+02 -0.38866167279E+01 -0.15616564766E+02  0.27305471425E+02  0.00000000000E+00 0.  1.
</event>
<event>
12    1  0.8251070E-002  0.2432951E+03  0.7818608E-02  0.1117886E+00
         21   -1    0    0  503  502  0.00000000000E+00  0.00000000000E+00  0.42886180207E+03  0.42886180207E+03  0.00000000000E+00 0.  1.
         21   -1    0    0  501  503 -0.00000000000E+00 -0.00000000000E+00 -0.14094681482E+03  0.14094681482E+03  0.00000000000E+00 0. -1.
          6    2    1    2  501    0 -0.16190763828E+03 -0.50118511875E+02  0.96390122901E+02  0.26017292874E+03  0.17225837712E+03 0.  0.
         24    2    3    3    0    0 -0.12399431350E+03 -0.16380210332E+02  0.13137803260E+03  0.19835111210E+03  0.80250078830E+02 0.  0.
         -6    2    1    2    0  502  0.16190763828E+03  0.50118511875E+02  0.19152486435E+03  0.30963568815E+03  0.17454666180E+03 0.  0.
        -24    2    5    5    0    0  0.82759180405E+02 -0.22269067491E+02  0.39952134495E+02  0.12389171795E+03  0.80049930773E+02 0.  0.
          5    1    3    3  501    0 -0.37913324787E+02 -0.33738301542E+02 -0.34987909697E+02  0.61821816637E+02  0.47000000000E+01 0. -1.
        -11    1    4    4    0    0 -0.13134860577E+03 -0.27247253853E+02  0.11100309425E+03  0.17411650127E+03  0.00000000000E+00 0.  1.
         12    1    4    4    0    0  0.73542922717E+01  0.10867043520E+02  0.20374938345E+02  0.24234610834E+02  0.00000000000E+00 0. -1.
         -5    1    5    5    0  502  0.79148457878E+02  0.72387579366E+02  0.15157272985E+03  0.18574397020E+03  0.47000000000E+01 0.  1.
         11    1    6    6    0    0  0.69346064238E+02  0.18268453295E+02  0.11618183441E+02  0.72647059111E+02  0.00000000000E+00 0. -1.
        -12    1    6    6    0    0  0.13413116167E+02 -0.40537520786E+02  0.28333951053E+02  0.51244658835E+02  0.00000000000E+00 0.  1.
</event>
<event>
12    1  0.8251070E-002  0.1918425E+03  0.7818608E-02  0.1156876E+00
         21   -1    0    0  503  502  0.00000000000E+00  0.00000000000E+00  0.15872571944E+03  0.15872571944E+03  0.00000000000E+00 0.  1.
         21   -1    0    0  501  503 -0.00000000000E+00 -0.00000000000E+00 -0.27001871576E+03  0.27001871576E+03  0.00000000000E+00 0. -1.
          6    2    1    2  501    0 -0.17016067902E+01  0.84279033738E+02 -0.13663759279E+03  0.23552783948E+03  0.17233014946E+03 0.  0.
         24    2    3    3    0    0  0.65125337322E+02  0.42394685757E+02 -0.75610243512E+02  0.13569514731E+03  0.81594394037E+02 0.  0.
         -6    2    1    2    0  502  0.17016067902E+01 -0.84279033738E+02  0.25344596470E+02  0.19321659571E+03  0.17200131772E+03 0.  0.
        -24    2    5    5    0    0  0.48098411229E+02 -0.59479797782E+02 -0.31673292094E+02  0.11549404312E+03  0.80525604972E+02 0.  0.
          5    1    3    3  501    0 -0.66826944112E+02  0.41884347980E+02 -0.61027349279E+02  0.99832692166E+02  0.47000000000E+01 0. -1.
        -13    1    4    4    0    0 -0.62730362592E+01  0.16134154718E+01  0.13176875130E+02  0.14682783510E+02  0.00000000000E+00 0.  1.
         14    1    4    4    0    0  0.71398373581E+02  0.40781270285E+02 -0.88787118642E+02  0.12101236380E+03  0.00000000000E+00 0. -1.
         -5    1    5    5    0  502 -0.46396804439E+02 -0.24799235956E+02  0.57017888564E+02  0.77722552599E+02  0.47000000000E+01 0.  1.
         11    1    6    6    0    0 -0.21566581956E+02 -0.89011776545E+01 -0.15191032047E+02  0.27840902922E+02  0.00000000000E+00 0. -1.
        -12    1    6    6    0    0  0.69664993185E+02 -0.50578620127E+02 -0.16482260047E+02  0.87653140193E+02  0.00000000000E+00 0.  1.
</event>
<event>
12    1  0.8251070E-002  0.1871652E+03  0.7818608E-02  0.1161147E+00
         21   -1    0    0  503  502  0.00000000000E+00  0.00000000000E+00  0.20176831142E+03  0.20176831142E+03  0.00000000000E+00 0.  1.
         21   -1    0    0  501  503 -0.00000000000E+00 -0.00000000000E+00 -0.30762798153E+03  0.30762798153E+03  0.00000000000E+00 0.  1.
          6    2    1    2  501    0  0.66691259779E+02 -0.26338717184E+02 -0.22126070251E+03  0.28951403477E+03  0.17239671025E+03 0.  0.
         24    2    3    3    0    0  0.10557608617E+03 -0.41974163670E+02 -0.13566583400E+03  0.19409355257E+03  0.79743013769E+02 0.  0.
         -6    2    1    2    0  502 -0.66691259779E+02  0.26338717184E+02  0.11540103239E+03  0.21988225818E+03  0.17288538698E+03 0.  0.
        -24    2    5    5    0    0 -0.44209012390E+02  0.63446652082E+02  0.13648970351E+02  0.10916630445E+03  0.75835830575E+02 0.  0.
          5    1    3    3  501    0 -0.38884826394E+02  0.15635446486E+02 -0.85594868504E+02  0.95420482207E+02  0.47000000000E+01 0. -1.
        -11    1    4    4    0    0  0.14528045163E+02 -0.93920495076E+01 -0.81374796122E+02  0.83193341886E+02  0.00000000000E+00 0.  1.
         12    1    4    4    0    0  0.91048041009E+02 -0.32582114162E+02 -0.54291037880E+02  0.11090021068E+03  0.00000000000E+00 0. -1.
         -5    1    5    5    0  502 -0.22482247389E+02 -0.37107934898E+02  0.10175206204E+03  0.11071595373E+03  0.47000000000E+01 0.  1.
         11    1    6    6    0    0 -0.30445325957E+02  0.18096662908E+02 -0.28717842809E+02  0.45597385634E+02  0.00000000000E+00 0. -1.
        -12    1    6    6    0    0 -0.13763686432E+02  0.45349989175E+02  0.42366813160E+02  0.63568918818E+02  0.00000000000E+00 0.  1.
</event>
<event>
12    1  0.8251070E-002  0.1740569E+03  0.7818608E-02  0.1173950E+00
         21   -1    0    0  501  502  0.00000000000E+00  0.00000000000E+00  0.12552254883E+04  0.12552254883E+04  0.00000000000E+00 0.  1.
         21   -1    0    0  502  503 -0.00000000000E+00 -0.00000000000E+00 -0.57906471013E+02  0.57906471013E+02  0.00000000000E+00 0.  1.
         -6    2    1    2    0  503 -0.10393552980E+01  0.29503473782E+02  0.96929687381E+02  0.19922646804E+03  0.17153508692E+03 0.  0.
        -24    2    3    3    0    0  0.50982914393E+02  0.22891145080E+01  0.10330936380E+03  0.13998350925E+03  0.79486229044E+02 0.  0.
          6    2    1    2  501    0  0.10393552980E+01 -0.29503473782E+02  0.11003893299E+04  0.11139054912E+04  0.17046181654E+03 0.  0.
         24    2    5    5    0    0  0.15672871555E+02 -0.82784629293E+02  0.81783577494E+03  0.82596170726E+03  0.79110387012E+02 0.  0.
          5    1    5    5  501    0 -0.14633516257E+02  0.53281155511E+02  0.28255355494E+03  0.28794378399E+03  0.47000000000E+01 0. -1.
        -11    1    6    6    0    0  0.11552708344E+02 -0.17786119729E+01  0.40849874280E+03  0.40866594108E+03  0.00000000000E+00 0.  1.
         12    1    6    6    0    0  0.41201632111E+01 -0.81006017320E+02  0.40933703214E+03  0.41729576617E+03  0.00000000000E+00 0. -1.
         -5    1    3    3    0  503 -0.52022269691E+02  0.27214359274E+02 -0.63796764229E+01  0.59242958786E+02  0.47000000000E+01 0.  1.
         13    1    4    4    0    0  0.39395409756E+02 -0.25120711205E+02  0.18757603499E+02  0.50347751989E+02  0.00000000000E+00 0. -1.
        -14    1    4    4    0    0  0.11587504636E+02  0.27409825713E+02  0.84551760305E+02  0.89635757263E+02  0.00000000000E+00 0.  1.
</event>
<event>
12    1  0.8251070E-002  0.2382505E+03  0.7818608E-02  0.1121195E+00
         21   -1    0    0  501  502  0.00000000000E+00  0.00000000000E+00  0.10859178340E+03  0.10859178340E+03  0.00000000000E+00 0. -1.
         21   -1    0    0  502  503 -0.00000000000E+00 -0.00000000000E+00 -0.53080569283E+03  0.53080569283E+03  0.00000000000E+00 0.  1.
         -6    2    1    2    0  503 -0.67215170117E+02  0.15099524778E+03 -0.25671181329E+03  0.34930396246E+03  0.16969048047E+03 0.  0.
        -24    2    3    3    0    0 -0.39999839385E+02  0.70880082269E+02 -0.23663458948E+03  0.26221608220E+03  0.78341378692E+02 0.  0.
          6    2    1    2  501    0  0.67215170117E+02 -0.15099524778E+03 -0.16550209614E+03  0.29009351378E+03  0.17159795735E+03 0.  0.
         24    2    5    5    0    0  0.98655443825E+02 -0.14116158263E+03 -0.93192372126E+02  0.21049465720E+03  0.77224953755E+02 0.  0.
          5    1    5    5  501    0 -0.31440273708E+02 -0.98336651485E+01 -0.72309724016E+02  0.79598856577E+02  0.47000000000E+01 0. -1.
        -13    1    6    6    0    0  0.85801774971E+00 -0.56266898006E+01  0.11812057065E+02  0.13111846730E+02  0.00000000000E+00 0.  1.
         14    1    6    6    0    0  0.97797426075E+02 -0.13553489283E+03 -0.10500442919E+03  0.19738281047E+03  0.00000000000E+00 0. -1.
         -5    1    3    3    0  503 -0.27215330731E+02  0.80115165507E+02 -0.20077223808E+02  0.87087880253E+02  0.47000000000E+01 0.  1.
         13    1    4    4    0    0 -0.59046213556E+02  0.29045754511E+02 -0.15761040550E+03  0.17079564138E+03  0.00000000000E+00 0. -1.
        -14    1    4    4    0    0  0.19046374171E+02  0.41834327759E+02 -0.79024183973E+02  0.91420440825E+02  0.00000000000E+00 0.  1.
</event>
<event>
12    1  0.8251070E-002  0.1811320E+03  0.7818608E-02  0.1166811E+00
         21   -1    0    0  503  502  0.00000000000E+00  0.00000000000E+00  0.43454020892E+03  0.43454020892E+03  0.00000000000E+00 0. -1.
         21   -1    0    0  501  503 -0.00000000000E+00 -0.00000000000E+00 -0.29324837764E+03  0.29324837764E+03  0.00000000000E+00 0. -1.
          6    2    1    2  501    0 -0.43080706428E+02  0.36284301439E+02 -0.24302596909E+03  0.30310134711E+03  0.17215198857E+03 0.  0.
         24    2    3    3    0    0  0.27595221318E+01  0.19397419221E+02 -0.34777728077E+02  0.89148283961E+02  0.79712303493E+02 0.  0.
         -6    2    1    2    0  502  0.43080706428E+02 -0.36284301439E+02  0.38431780038E+03  0.42468723945E+03  0.17171657423E+03 0.  0.
        -24    2    5    5    0    0  0.65167347638E+02 -0.80929435666E+02  0.26361844881E+03  0.29402955235E+03  0.78500537219E+02 0.  0.
          5    1    3    3  501    0 -0.45840228559E+02  0.16886882218E+02 -0.20824824101E+03  0.21395306315E+03  0.47000000000E+01 0. -1.
        -13    1    4    4    0    0 -0.16517753657E+01  0.46659934649E+02 -0.26246833596E+01  0.46762878718E+02  0.00000000000E+00 0.  1.
         14    1    4    4    0    0  0.44112974975E+01 -0.27262515427E+02 -0.32153044717E+02  0.42385405243E+02  0.00000000000E+00 0. -1.
         -5    1    5    5    0  502 -0.22086641211E+02  0.44645134227E+02  0.12069935157E+03  0.13065768710E+03  0.47000000000E+01 0.  1.
         13    1    6    6    0    0  0.62152104613E+02 -0.75951302621E+02  0.26885086905E+03  0.28620320450E+03  0.00000000000E+00 0. -1.
        -14    1    6    6    0    0  0.30152430255E+01 -0.49781330445E+01 -0.52324202357E+01  0.78263478478E+01  0.00000000000E+00 0.  1.
</event>
<event>
12    1  0.8251070E-002  0.2081448E+03  0.7818608E-02  0.1144087E+00
         21   -1    0    0  503  502  0.00000000000E+00  0.00000000000E+00  0.21941353427E+03  0.21941353427E+03  0.00000000000E+00 0. -1.
         21   -1    0    0  501  503 -0.00000000000E+00 -0.00000000000E+00 -0.19271729157E+03  0.19271729157E+03  0.00000000000E+00 0. -1.
          6    2    1    2  501    0 -0.11099826187E+03 -0.38687125347E+02  0.86262964192E+01  0.20832352181E+03  0.17177592656E+03 0.  0.
         24    2    3    3    0    0 -0.51435276034E+02  0.18986726963E+02  0.58285916120E+02  0.11156510951E+03  0.77739579503E+02 0.  0.
         -6    2    1    2    0  502  0.11099826187E+03  0.38687125347E+02  0.18069946287E+02  0.20380730403E+03  0.16551007948E+03 0.  0.
        -24    2    5    5    0    0  0.46747973050E+02 -0.33260134944E+02 -0.19851196371E+02  0.10005466099E+03  0.79531475702E+02 0.  0.
          5    1    3    3  501    0 -0.59562985837E+02 -0.57673852311E+02 -0.49659619701E+02  0.96758412301E+02  0.47000000000E+01 0. -1.
        -11    1    4    4    0    0 -0.51363928929E+02  0.33430875783E+02  0.11182900412E+02  0.62297142087E+02  0.00000000000E+00 0.  1.
         12    1    4    4    0    0 -0.71347105249E-01 -0.14444148819E+02  0.47103015707E+02  0.49267967426E+02  0.00000000000E+00 0. -1.
         -5    1    5    5    0  502  0.64250288822E+02  0.71947260292E+02  0.37921142659E+02  0.10375264304E+03  0.47000000000E+01 0.  1.
         13    1    6    6    0    0  0.48760812556E+02 -0.31768550294E+01  0.17633893080E+02  0.51948661524E+02  0.00000000000E+00 0. -1.
        -14    1    6    6    0    0 -0.20128395058E+01 -0.30083279915E+02 -0.37485089451E+02  0.48105999465E+02  0.00000000000E+00 0.  1.
</event>
<event>
12    1  0.8251070E-002  0.2105630E+03  0.7818608E-02  0.1141969E+00
         21   -1    0    0  503  502  0.00000000000E+00  0.00000000000E+00  0.78276512573E+02  0.78276512573E+02  0.00000000000E+00 0.  1.
         21   -1    0    0  501  503 -0.00000000000E+00 -0.00000000000E+00 -0.58243118180E+03  0.58243118180E+03  0.00000000000E+00 0.  1.
          6    2    1    2  501    0  0.29185684222E+02  0.10945097489E+03 -0.32127654720E+03  0.38181494406E+03  0.17243175944E+03 0.  0.
         24    2    3    3    0    0  0.11156773574E+02  0.14129225752E+03 -0.21864198204E+03  0.27275141733E+03  0.80629050079E+02 0.  0.
         -6    2    1    2    0  502 -0.29185684222E+02 -0.10945097489E+03 -0.18287812203E+03  0.27889275031E+03  0.17749771432E+03 0.  0.
        -24    2    5    5    0    0  0.50339235261E+02 -0.42091134813E+02 -0.70144745851E+02  0.12529436171E+03  0.80453026479E+02 0.  0.
          5    1    3    3  501    0  0.18028910648E+02 -0.31841282622E+02 -0.10263456516E+03  0.10906352673E+03  0.47000000000E+01 0. -1.
        -11    1    4    4    0    0  0.16320218845E+02  0.38128987201E+02 -0.13060334146E+03  0.13703066084E+03  0.00000000000E+00 0.  1.
         12    1    4    4    0    0 -0.51634452715E+01  0.10316327031E+03 -0.88038640572E+02  0.13572075649E+03  0.00000000000E+00 0. -1.
         -5    1    5    5    0  502 -0.79524919483E+02 -0.67359840081E+02 -0.11273337618E+03  0.15359838859E+03  0.47000000000E+01 0.  1.
         11    1    6    6    0    0  0.49151797277E+02 -0.35742295520E+01 -0.71379585787E+02  0.86739377214E+02  0.00000000000E+00 0. -1.
        -12    1    6    6    0    0  0.11874379833E+01 -0.38516905261E+02  0.12348399361E+01  0.38554984496E+02  0.00000000000E+00 0.  1.
</event>
<event>
12    1  0.8251070E-002  0.1847622E+03  0.7818608E-02  0.1163513E+00
         21   -1    0    0  501  502  0.00000000000E+00  0.00000000000E+00  0.11033458636E+03  0.11033458636E+03  0.00000000000E+00 0.  1.
         21   -1    0    0  502  503 -0.00000000000E+00 -0.00000000000E+00 -0.30969395253E+03  0.30969395253E+03  0.00000000000E+00 0. -1.
         -6    2    1    2    0  503  0.49299431591E+02 -0.45440292289E+02 -0.83002760447E+02  0.20255004419E+03  0.17216796462E+03 0.  0.
        -24    2    3    3    0    0  0.13943350580E+02 -0.72259838122E+02  0.51188585752E+00  0.10786041091E+03  0.78852425355E+02 0.  0.
          6    2    1    2  501    0 -0.49299431591E+02  0.45440292289E+02 -0.11635660572E+03  0.21747849470E+03  0.17106367774E+03 0.  0.
         24    2    5    5    0    0 -0.26696405038E+02  0.91991151326E+02 -0.10089157113E+03  0.16326469035E+03  0.85446942765E+02 0.  0.
          5    1    5    5  501    0 -0.22603026553E+02 -0.46550859037E+02 -0.15465034591E+02  0.54213804343E+02  0.47000000000E+01 0. -1.
        -11    1    6    6    0    0 -0.28085820694E+02  0.89959687755E+02 -0.11514807542E+03  0.14879730514E+03  0.00000000000E+00 0.  1.
         12    1    6    6    0    0  0.13894156560E+01  0.20314635714E+01  0.14256504295E+02  0.14467385210E+02  0.00000000000E+00 0. -1.
         -5    1    3    3    0  503  0.35356081011E+02  0.26819545833E+02 -0.83514646305E+02  0.94689633279E+02  0.47000000000E+01 0.  1.
         13    1    4    4    0    0 -0.19916286403E+02 -0.68532302516E+02  0.11017469004E+02  0.72213015278E+02  0.00000000000E+00 0. -1.
        -14    1    4    4    0    0  0.33859636983E+02 -0.37275356060E+01 -0.10505583146E+02  0.35647395635E+02  0.00000000000E+00 0.  1.
</event>
<event>
12    1  0.8251070E-002  0.1952119E+03  0.7818608E-02  0.1154073E+00
         21   -1    0    0  501  502  0.00000000000E+00  0.00000000000E+00  0.16756465589E+03  0.16756465589E+03  0.00000000000E+00 0. -1.
         21   -1    0    0  502  503 -0.00000000000E+00 -0.00000000000E+00 -0.24004893937E+03  0.24004893937E+03  0.00000000000E+00 0.  1.
         -6    2    1    2    0  503  0.51167284166E+02 -0.75691985190E+02  0.12817845805E+02  0.19457804722E+03  0.17131535745E+03 0.  0.
        -24    2    3    3    0    0  0.24862288822E+02 -0.41905224950E+02  0.74234936110E+02  0.11956040310E+03  0.80060495674E+02 0.  0.
          6    2    1    2  501    0 -0.51167284166E+02  0.75691985190E+02 -0.85302129288E+02  0.21303554804E+03  0.17251180794E+03 0.  0.
         24    2    5    5    0    0 -0.84905586648E+02  0.27578926755E+02 -0.95391788116E+02  0.15322726549E+03  0.80059014517E+02 0.  0.
          5    1    5    5  501    0  0.33738302481E+02  0.48113058435E+02  0.10089658828E+02  0.59808282550E+02  0.47000000000E+01 0. -1.
        -13    1    6    6    0    0 -0.10316522485E+02  0.29387668979E+02 -0.66103731715E+02  0.73073723532E+02  0.00000000000E+00 0.  1.
         14    1    6    6    0    0 -0.74589064162E+02 -0.18087422241E+01 -0.29288056401E+02  0.80153541960E+02  0.00000000000E+00 0. -1.
         -5    1    3    3    0  503  0.26304995344E+02 -0.33786760240E+02 -0.61417090305E+02  0.75017644119E+02  0.47000000000E+01 0.  1.
         11    1    4    4    0    0  0.32641878966E+02  0.15478484046E+01  0.67381454224E+02  0.74887572203E+02  0.00000000000E+00 0. -1.
        -12    1    4    4    0    0 -0.77795901435E+01 -0.43453073355E+02  0.68534818860E+01  0.44672830901E+02  0.00000000000E+00 0.  1.
</event>
<event>
12    1  0.8251070E-002  0.2419324E+03  0.7818608E-02  0.1118521E+00
         21   -1    0    0  501  502  0.00000000000E+00  0.00000000000E+00  0.23240893995E+03  0.23240893995E+03  0.00000000000E+00 0.  1.
         21   -1    0    0  502  503 -0.00000000000E+00 -0.00000000000E+00 -0.27975266350E+03  0.27975266350E+03  0.00000000000E+00 0. -1.
         -6    2    1    2    0  503 -0.13098793204E+03 -0.10761684388E+03 -0.10463397330E+03  0.26353844797E+03  0.17252542353E+03 0.  0.
        -24    2    3    3    0    0 -0.16887650505E+02 -0.82446554576E+02 -0.87708961203E+02  0.14538192574E+03  0.79752212236E+02 0.  0.
          6    2    1    2  501    0  0.13098793204E+03  0.10761684388E+03  0.57290249751E+02  0.24862315549E+03  0.17260381601E+03 0.  0.
         24    2    5    5    0    0  0.15396018944E+02  0.87828826975E+02 -0.19728875414E+01  0.11714210960E+03  0.75943671952E+02 0.  0.
          5    1    5    5  501    0  0.11559191309E+03  0.19788016906E+02  0.59263137293E+02  0.13148104589E+03  0.47000000000E+01 0. -1.
        -13    1    6    6    0    0 -0.95398981964E+01 -0.11367238967E+02  0.42603843503E-01  0.14839999812E+02  0.00000000000E+00 0.  1.
         14    1    6    6    0    0  0.24935917141E+02  0.99196065941E+02 -0.20154913849E+01  0.10230210979E+03  0.00000000000E+00 0. -1.
         -5    1    3    3    0  503 -0.11410028153E+03 -0.25170289304E+02 -0.16925012094E+02  0.11815652222E+03  0.47000000000E+01 0.  1.
         13    1    4    4    0    0 -0.42834000223E+02 -0.57358633655E+02 -0.81982210223E+02  0.10883862928E+03  0.00000000000E+00 0. -1.
        -14    1    4    4    0    0  0.25946349718E+02 -0.25087920921E+02 -0.57267509802E+01  0.36543296467E+02  0.00000000000E+00 0.  1.
</event>
<event>
12    1  0.8251070E-002  0.1872643E+03  0.7818608E-02  0.1161198E+00
         21   -1    0    0  503  502  0.00000000000E+00  0.00000000000E+00  0.79349779244E+02  0.79349779244E+02  0.00000000000E+00 0. -1.
         21   -1    0    0  501  503 -0.00000000000E+00 -0.00000000000E+00 -0.90256769848E+03  0.90256769848E+03  0.00000000000E+00 0. -1.
          6    2    1    2  501    0  0.71124214428E+02  0.70792515757E+01 -0.76387447175E+03  0.78649355264E+03  0.17308705921E+03 0.  0.
         24    2    3    3    0    0  0.97801839383E+02 -0.40079781394E+02 -0.54641299679E+03  0.56233456184E+03  0.80507190436E+02 0.  0.
         -6    2    1    2    0  502 -0.71124214428E+02 -0.70792515757E+01 -0.59343447477E+02  0.19542392508E+03  0.17193049774E+03 0.  0.
        -24    2    5    5    0    0 -0.64835195285E+02 -0.68556872469E+02 -0.33793951129E+02  0.12838724560E+03  0.80234695667E+02 0.  0.
          5    1    3    3  501    0 -0.26677624955E+02  0.47159032970E+02 -0.21746147496E+03  0.22415899080E+03  0.47000000000E+01 0. -1.
        -11    1    4    4    0    0  0.83977675891E+02 -0.43772173481E+01 -0.46273711415E+03  0.47031590117E+03  0.00000000000E+00 0.  1.
         12    1    4    4    0    0  0.13824163493E+02 -0.35702564046E+02 -0.83675882644E+02  0.92018660673E+02  0.00000000000E+00 0. -1.
         -5    1    5    5    0  502 -0.62890191434E+01  0.61477620893E+02 -0.25549496348E+02  0.67036679483E+02  0.47000000000E+01 0.  1.
         11    1    6    6    0    0  0.16289050321E+02 -0.51335457947E+01 -0.16917643135E+02  0.24039407273E+02  0.00000000000E+00 0. -1.
        -12    1    6    6    0    0 -0.81124245605E+02 -0.63423326674E+02 -0.16876307994E+02  0.10434783832E+03  0.00000000000E+00 0.  1.
</event>
<event>
12    1  0.8251070E-002  0.1755304E+03  0.7818608E-02  0.1172853E+00
         21   -1    0    0  501  502  0.00000000000E+00  0.00000000000E+00  0.59680472797E+03  0.59680472797E+03  0.00000000000E+00 0. -1.
         21   -1    0    0  502  503 -0.00000000000E+00 -0.00000000000E+00 -0.59188141109E+02  0.59188141109E+02  0.00000000000E+00 0. -1.
         -6    2    1    2    0  503  0.10578020578E+02  0.18166954986E+02  0.14411189471E+03  0.22511369268E+03  0.17165664468E+03 0.  0.
        -24    2    3    3    0    0 -0.51413197578E+02 -0.23453259295E+02  0.85937047722E+02  0.13034262015E+03  0.80066536083E+02 0.  0.
          6    2    1    2  501    0 -0.10578020578E+02 -0.18166954986E+02  0.39350469215E+03  0.43087917640E+03  0.17426700531E+03 0.  0.
         24    2    5    5    0    0 -0.73378900332E+02 -0.27065339687E+02  0.22394784028E+03  0.24978597453E+03  0.78252171086E+02 0.  0.
          5    1    5    5  501    0  0.62800879754E+02  0.88983847007E+01  0.16955685187E+03  0.18109320187E+03  0.47000000000E+01 0. -1.
        -13    1    6    6    0    0 -0.26484233037E+02 -0.13265275887E+02  0.11480258524E+02  0.31767569622E+02  0.00000000000E+00 0.  1.
         14    1    6    6    0    0 -0.46894667295E+02 -0.13800063800E+02  0.21246758175E+03  0.21801840491E+03  0.00000000000E+00 0. -1.
         -5    1    3    3    0  503  0.61991218156E+02  0.41620214282E+02  0.58174846992E+02  0.94771072527E+02  0.47000000000E+01 0.  1.
         11    1    4    4    0    0 -0.17634657269E+02 -0.97573943947E+01  0.91302389079E+02  0.93500342961E+02  0.00000000000E+00 0. -1.
        -12    1    4    4    0    0 -0.33778540310E+02 -0.13695864901E+02 -0.53653413567E+01  0.36842277192E+02  0.00000000000E+00 0.  1.
</event>
<event>
12    1  0.8251070E-002  0.3301618E+03  0.7818608E-02  0.1071146E+00
         21   -1    0    0  503  502  0.00000000000E+00  0.00000000000E+00  0.74853073066E+03  0.74853073066E+03  0.00000000000E+00 0.  1.
         21   -1    0    0  501  503 -0.00000000000E+00 -0.00000000000E+00 -0.14854871752E+03  0.14854871752E+03  0.00000000000E+00 0. -1.
          6    2    1    2  501    0  0.11380665522E+03 -0.25788562325E+03  0.36656529275E+03  0.49333247744E+03  0.17190075623E+03 0.  0.
         24    2    3    3    0    0  0.10996058136E+03 -0.26897044108E+03  0.37284041414E+03  0.47922104170E+03  0.78780738541E+02 0.  0.
         -6    2    1    2    0  502 -0.11380665522E+03  0.25788562325E+03  0.23341672038E+03  0.40374697074E+03  0.17050308377E+03 0.  0.
        -24    2    5    5    0    0 -0.43172665911E+00  0.71990690157E+02  0.10987662081E+03  0.15335718105E+03  0.79137268859E+02 0.  0.
          5    1    3    3  501    0  0.38460738581E+01  0.11084817820E+02 -0.62751213886E+01  0.14111435741E+02  0.47000000000E+01 0. -1.
        -13    1    4    4    0    0  0.77306197523E+02 -0.25142501386E+03  0.31327056526E+03  0.40905896009E+03  0.00000000000E+00 0.  1.
         14    1    4    4    0    0  0.32654383842E+02 -0.17545427211E+02  0.59569848880E+02  0.70162081609E+02  0.00000000000E+00 0. -1.
         -5    1    5    5    0  502 -0.11337492856E+03  0.18589493310E+03  0.12354009958E+03  0.25038978969E+03  0.47000000000E+01 0.  1.
         11    1    6    6    0    0 -0.34709499443E+02  0.59820735736E+02  0.59576549296E+02  0.91283267917E+02  0.00000000000E+00 0. -1.
        -12    1    6    6    0    0  0.34277772784E+02  0.12169954421E+02  0.50300071512E+02  0.62073913134E+02  0.00000000000E+00 0.  1.
</event>
<event>
12    1  0.8251070E-002  0.1851417E+03  0.7818608E-02  0.1163228E+00
         21   -1    0    0  503  502  0.00000000000E+00  0.00000000000E+00  0.89735307966E+02  0.89735307966E+02  0.00000000000E+00 0.  1.
         21   -1    0    0  501  503 -0.00000000000E+00 -0.00000000000E+00 -0.67333560833E+03  0.67333560833E+03  0.00000000000E+00 0.  1.
          6    2    1    2  501    0 -0.48798521680E+02  0.46171375179E+02 -0.54335599040E+03  0.57360578225E+03  0.17109871283E+03 0.  0.
         24    2    3    3    0    0  0.32407465540E+02  0.43933349424E+02 -0.36223981239E+03  0.37504954072E+03  0.80399585161E+02 0.  0.
         -6    2    1    2    0  502  0.48798521680E+02 -0.46171375179E+02 -0.40244309964E+02  0.18946513404E+03  0.17252345037E+03 0.  0.
        -24    2    5    5    0    0  0.71351381832E+02  0.82990520909E+01 -0.64444648774E+02  0.12556360552E+03  0.80331888571E+02 0.  0.
          5    1    3    3  501    0 -0.81205987220E+02  0.22380257545E+01 -0.18111617800E+03  0.19855624154E+03  0.47000000000E+01 0. -1.
        -13    1    4    4    0    0  0.22993383763E+02 -0.15129754788E+02 -0.20463892865E+03  0.20648170935E+03  0.00000000000E+00 0.  1.
         14    1    4    4    0    0  0.94140817764E+01  0.59063104213E+02 -0.15760088375E+03  0.16856783137E+03  0.00000000000E+00 0. -1.
         -5    1    5    5    0  502 -0.22552860152E+02 -0.54470427270E+02  0.24200338810E+02  0.63901528515E+02  0.47000000000E+01 0.  1.
         11    1    6    6    0    0  0.56508033376E+02 -0.31344943452E+02 -0.31305084802E+02  0.71803005859E+02  0.00000000000E+00 0. -1.
        -12    1    6    6    0    0  0.14843348456E+02  0.39643995543E+02 -0.33139563972E+02  0.53760599664E+02  0.00000000000E+00 0.  1.
</event>
<event>
12    1  0.8251070E-002  0.3220964E+03  0.7818608E-02  0.1075188E+00
         21   -1    0    0  501  502  0.00000000000E+00  0.00000000000E+00  0.51038674620E+02  0.51038674620E+02  0.00000000000E+00 0. -1.
         21   -1    0    0  502  503 -0.00000000000E+00 -0.00000000000E+00 -0.21658139076E+04  0.21658139076E+04  0.00000000000E+00 0.  1.
         -6    2    1    2    0  503  0.15380390503E+02 -0.26855460771E+03 -0.13657232516E+04  0.14031913969E+04  0.17716648285E+03 0.  0.
        -24    2    3    3    0    0  0.32190213391E+02 -0.28443787274E+03 -0.12925155385E+04  0.13262738598E+04  0.80404108608E+02 0.  0.
          6    2    1    2  501    0 -0.15380390503E+02  0.26855460771E+03 -0.74905198134E+03  0.81366118528E+03  0.16913757698E+03 0.  0.
         24    2    5    5    0    0 -0.17149605199E+02  0.28057747226E+03 -0.74460229159E+03  0.79989277463E+03  0.79862703216E+02 0.  0.
          5    1    5    5  501    0  0.17692146970E+01 -0.12022864559E+02 -0.44496897474E+01  0.13768410645E+02  0.47000000000E+01 0. -1.
        -13    1    6    6    0    0  0.27941814775E+02  0.17764510057E+03 -0.46287725150E+03  0.49658219533E+03  0.00000000000E+00 0.  1.
         14    1    6    6    0    0 -0.45091419975E+02  0.10293237170E+03 -0.28172504009E+03  0.30331057930E+03  0.00000000000E+00 0. -1.
         -5    1    3    3    0  503 -0.16809822889E+02  0.15883265036E+02 -0.73207713090E+02  0.76917537075E+02  0.47000000000E+01 0.  1.
         11    1    4    4    0    0  0.13620497495E+02 -0.46692481200E+02 -0.11515440985E+03  0.12500497534E+03  0.00000000000E+00 0. -1.
        -12    1    4    4    0    0  0.18569715896E+02 -0.23774539154E+03 -0.11773611287E+04  0.12012688845E+04  0.00000000000E+00 0.  1.
</event>
<event>
12    1  0.8251070E-002  0.2363459E+03  0.7818608E-02  0.1123546E+00
         21   -1    0    0  501  502  0.00000000000E+00  0.00000000000E+00  0.13807168224E+03  0.13807168224E+03  0.00000000000E+00 0.  1.
         21   -1    0    0  502  503 -0.00000000000E+00 -0.00000000000E+00 -0.75161509807E+03  0.75161509807E+03  0.00000000000E+00 0.  1.
         -6    2    1    2    0  503 -0.42923283981E+02  0.14436837091E+03 -0.61709208021E+03  0.66080406337E+03  0.18213934192E+03 0.  0.
        -24    2    3    3    0    0  0.43660563993E+02  0.11015573783E+03 -0.34511686243E+03  0.37329775721E+03  0.78772046948E+02 0.  0.
          6    2    1    2  501    0  0.42923283981E+02 -0.14436837091E+03  0.35486643852E+01  0.22888271694E+03  0.17230806792E+03 0.  0.
         24    2    5    5    0    0  0.48713109339E+02 -0.59507688185E+02  0.59809290593E+02  0.12679351276E+03  0.81149933219E+02 0.  0.
          5    1    5    5  501    0 -0.57898253584E+01 -0.84860682725E+02 -0.56260626208E+02  0.10208920419E+03  0.47000000000E+01 0. -1.
        -13    1    6    6    0    0  0.31872434201E+02 -0.76931298924E+02  0.30308560663E+02  0.88616508989E+02  0.00000000000E+00 0.  1.
         14    1    6    6    0    0  0.16840675138E+02  0.17423610739E+02  0.29500729930E+02  0.38177003768E+02  0.00000000000E+00 0. -1.
         -5    1    3    3    0  503 -0.86583847974E+02  0.34212633080E+02 -0.27197521779E+03  0.28750630616E+03  0.47000000000E+01 0.  1.
         11    1    4    4    0    0  0.29240998578E+02  0.13554646029E+02 -0.16773390199E+03  0.17080230181E+03  0.00000000000E+00 0. -1.
        -12    1    4    4    0    0  0.14419565416E+02  0.96601091801E+02 -0.17738296044E+03  0.20249545540E+03  0.00000000000E+00 0.  1.
</event>
<event>
12    1  0.8251070E-002  0.1729023E+03  0.7818608E-02  0.1175140E+00
         21   -1    0    0  501  502  0.00000000000E+00  0.00000000000E+00  0.16285390862E+04  0.16285390862E+04  0.00000000000E+00 0. -1.
         21   -1    0    0  502  503 -0.00000000000E+00 -0.00000000000E+00 -0.20700494195E+02  0.20700494195E+02  0.00000000000E+00 0. -1.
         -6    2    1    2    0  503  0.22970654088E+02 -0.10293538886E+02  0.10905653832E+04  0.11041866080E+04  0.17106023021E+03 0.  0.
        -24    2    3    3    0    0 -0.20486270483E+01 -0.70415297838E+02  0.52674332004E+03  0.53659696818E+03  0.74264863886E+02 0.  0.
          6    2    1    2  501    0 -0.22970654088E+02  0.10293538886E+02  0.51727320878E+03  0.54505297237E+03  0.16993399388E+03 0.  0.
         24    2    5    5    0    0 -0.63010962457E+02  0.30768031785E+02  0.21674711931E+03  0.24114434859E+03  0.79083689591E+02 0.  0.
          5    1    5    5  501    0  0.40040308369E+02 -0.20474492899E+02  0.30052608947E+03  0.30390862378E+03  0.47000000000E+01 0. -1.
        -11    1    6    6    0    0 -0.63776531268E+02 -0.95545912317E+01  0.14802134231E+03  0.16145914014E+03  0.00000000000E+00 0.  1.
         12    1    6    6    0    0  0.76556881042E+00  0.40322623017E+02  0.68725776996E+02  0.79685208453E+02  0.00000000000E+00 0. -1.
         -5    1    3    3    0  503  0.25019281136E+02  0.60121758951E+02  0.56382206319E+03  0.56758963985E+03  0.47000000000E+01 0.  1.
         11    1    4    4    0    0 -0.35969071291E+02 -0.45790501729E+02  0.24961384701E+03  0.25631546336E+03  0.00000000000E+00 0. -1.
        -12    1    4    4    0    0  0.33920444242E+02 -0.24624796109E+02  0.27712947303E+03  0.28028150482E+03  0.00000000000E+00 0.  1.
</event>
<event>
12    1  0.8251070E-002  0.1820050E+03  0.7818608E-02  0.1166481E+00
         21   -1    0    0  501  502  0.00000000000E+00  0.00000000000E+00  0.12073678524E+03  0.12073678524E+03  0.00000000000E+00 0. -1.
         21   -1    0    0  502  503 -0.00000000000E+00 -0.00000000000E+00 -0.52445550849E+03  0.52445550849E+03  0.00000000000E+00 0. -1.
         -6    2    1    2    0  503 -0.53041499613E+02 -0.22198652441E+02 -0.42557798015E+03  0.46187928967E+03  0.17002846876E+03 0.  0.
        -24    2    3    3    0    0  0.24638107287E+02 -0.11961488636E+02 -0.15730950694E+03  0.18236366476E+03  0.88091496247E+02 0.  0.
          6    2    1    2  501    0  0.53041499613E+02  0.22198652441E+02  0.21859256903E+02  0.18331300406E+03  0.17268366887E+03 0.  0.
         24    2    5    5    0    0 -0.33083891778E+02 -0.19368028794E+01 -0.12039275226E+02  0.87546080090E+02  0.80131622288E+02 0.  0.
          5    1    5    5  501    0  0.86125391392E+02  0.24135455320E+02  0.33898532129E+02  0.95766923969E+02  0.47000000000E+01 0. -1.
        -11    1    6    6    0    0 -0.50254778517E+02 -0.50943779467E+01  0.17310484798E+02  0.53396145314E+02  0.00000000000E+00 0.  1.
         12    1    6    6    0    0  0.17170886739E+02  0.31575750673E+01 -0.29349760024E+02  0.34149934776E+02  0.00000000000E+00 0. -1.
         -5    1    3    3    0  503 -0.77679606900E+02 -0.10237163805E+02 -0.26826847321E+03  0.27951562492E+03  0.47000000000E+01 0.  1.
         11    1    4    4    0    0  0.13609722896E+02 -0.48435737146E+02 -0.11441577930E+03  0.12498886247E+03  0.00000000000E+00 0. -1.
        -12    1    4    4    0    0  0.11028384391E+02  0.36474248510E+02 -0.42893727639E+02  0.57374802287E+02  0.00000000000E+00 0.  1.
</event>
<event>
12    1  0.8251070E-002  0.2256979E+03  0.7818608E-02  0.1129721E+00
         21   -1    0    0  503  502  0.00000000000E+00  0.00000000000E+00  0.15178214414E+04  0.15178214414E+04  0.00000000000E+00 0. -1.
         21   -1    0    0  501  503 -0.00000000000E+00 -0.00000000000E+00 -0.50594248714E+02  0.50594248714E+02  0.00000000000E+00 0. -1.
          6    2    1    2  501    0  0.56153155543E+02 -0.13473085162E+03  0.27832865630E+03  0.35828377189E+03  0.17203151172E+03 0.  0.
         24    2    3    3    0    0 -0.24694091052E+02 -0.25037059709E+02  0.13467909728E+03  0.16022748930E+03  0.79358279919E+02 0.  0.
         -6    2    1    2    0  502 -0.56153155543E+02  0.13473085162E+03  0.11888985364E+04  0.12101319183E+04  0.17214514350E+03 0.  0.
        -24    2    5    5    0    0 -0.50715806548E+02  0.52901827101E+02  0.97432106084E+03  0.98036869874E+03  0.80315375381E+02 0.  0.
          5    1    3    3  501    0  0.80847246594E+02 -0.10969379192E+03  0.14364955902E+03  0.19805628259E+03  0.47000000000E+01 0. -1.
        -13    1    4    4    0    0 -0.76138318057E+01 -0.52500500618E+02  0.69179896928E+02  0.87178731000E+02  0.00000000000E+00 0.  1.
         14    1    4    4    0    0 -0.17080259246E+02  0.27463440908E+02  0.65499200356E+02  0.73048758304E+02  0.00000000000E+00 0. -1.
         -5    1    5    5    0  502 -0.54373489947E+01  0.81829024524E+02  0.21457747557E+03  0.22976321951E+03  0.47000000000E+01 0.  1.
         11    1    6    6    0    0 -0.82433295582E+01  0.52908770513E+02  0.30222577144E+03  0.30693274084E+03  0.00000000000E+00 0. -1.
        -12    1    6    6    0    0 -0.42472476990E+02 -0.69434123795E-02  0.67209528941E+03  0.67343595790E+03  0.00000000000E+00 0.  1.
</event>
<event>
12    1  0.8251070E-002  0.1831818E+03  0.7818608E-02  0.1164892E+00
         21   -1    0    0  501  502  0.00000000000E+00  0.00000000000E+00  0.38515787857E+03  0.38515787857E+03  0.00000000000E+00 0. -1.
         21   -1    0    0  502  503 -0.00000000000E+00 -0.00000000000E+00 -0.86854916839E+02  0.86854916839E+02  0.00000000000E+00 0.  1.
         -6    2    1    2    0  503  0.50147955818E+02  0.30457154535E+02  0.14914201601E+03  0.23621790311E+03  0.17353126830E+03 0.  0.
        -24    2    3    3    0    0  0.26859874340E+02  0.48799285209E+02  0.13553485832E+02  0.97347070998E+02  0.78676121964E+02 0.  0.
          6    2    1    2  501    0 -0.50147955818E+02 -0.30457154535E+02  0.14916094573E+03  0.23579489230E+03  0.17293868211E+03 0.  0.
         24    2    5    5    0    0 -0.94794848737E+02 -0.41168735016E+02  0.84327504990E+02  0.15621130077E+03  0.81301379444E+02 0.  0.
          5    1    5    5  501    0  0.44646892919E+02  0.10711580481E+02  0.64833440735E+02  0.79583591533E+02  0.47000000000E+01 0. -1.
        -13    1    6    6    0    0 -0.72289823651E+02 -0.65424356588E+02  0.54690219637E+02  0.11179080983E+03  0.00000000000E+00 0.  1.
         14    1    6    6    0    0 -0.22505025086E+02  0.24255621572E+02  0.29637285353E+02  0.44420490937E+02  0.00000000000E+00 0. -1.
         -5    1    3    3    0  503  0.23288081479E+02 -0.18342130674E+02  0.13558853017E+03  0.13887083211E+03  0.47000000000E+01 0.  1.
         11    1    4    4    0    0 -0.15259276701E+02  0.13852120891E+02  0.33302297163E+02  0.39163372875E+02  0.00000000000E+00 0. -1.
        -12    1    4    4    0    0  0.42119151041E+02  0.34947164318E+02 -0.19748811331E+02  0.58183698123E+02  0.00000000000E+00 0.  1.
</event>
<event>
12    1  0.8251070E-002  0.2149663E+03  0.7818608E-02  0.1139314E+00
         21   -1    0    0  503  502  0.00000000000E+00  0.00000000000E+00  0.14915266830E+04  0.14915266830E+04  0.00000000000E+00 0.  1.
         21   -1    0    0  501  503 -0.00000000000E+00 -0.00000000000E+00 -0.33976389692E+02  0.33976389692E+02  0.00000000000E+00 0.  1.
          6    2    1    2  501    0 -0.10660665888E+03  0.35080231517E+02  0.47399033766E+03  0.52045878352E+03  0.18334367398E+03 0.  0.
         24    2    3    3    0    0 -0.61137839317E+02 -0.22239047861E+02  0.39465875181E+03  0.41243793436E+03  0.10058383902E+03 0.  0.
         -6    2    1    2    0  502  0.10660665888E+03 -0.35080231517E+02  0.98355995562E+03  0.10050442891E+04  0.17357486707E+03 0.  0.
        -24    2    5    5    0    0 -0.85991699081E+01 -0.40074275970E+02  0.39577620696E+03  0.40603748730E+03  0.80918117740E+02 0.  0.
          5    1    3    3  501    0 -0.45468819560E+02  0.57319279378E+02  0.79331585851E+02  0.10802084916E+03  0.47000000000E+01 0. -1.
        -13    1    4    4    0    0 -0.42845928826E+02  0.27656577291E+02  0.29615044833E+03  0.30050914783E+03  0.00000000000E+00 0.  1.
         14    1    4    4    0    0 -0.18291910492E+02 -0.49895625152E+02  0.98508303477E+02  0.11192878652E+03  0.00000000000E+00 0. -1.
         -5    1    5    5    0  502  0.11520582879E+03  0.49940444530E+01  0.58778374866E+03  0.59900680185E+03  0.47000000000E+01 0.  1.
         11    1    6    6    0    0 -0.22798538239E+02 -0.44625093975E+02  0.12248090724E+03  0.13233572834E+03  0.00000000000E+00 0. -1.
        -12    1    6    6    0    0  0.14199368331E+02  0.45508180055E+01  0.27329529972E+03  0.27370175896E+03  0.00000000000E+00 0.  1.
</event>
<event>
12    1  0.8251070E-002  0.2975425E+03  0.7818608E-02  0.1086590E+00
         21   -1    0    0  503  502  0.00000000000E+00  0.00000000000E+00  0.87832369912E+03  0.87832369912E+03  0.00000000000E+00 0.  1.
         21   -1    0    0  501  503 -0.00000000000E+00 -0.00000000000E+00 -0.74524168382E+03  0.74524168382E+03  0.00000000000E+00 0. -1.
          6    2    1    2  501    0 -0.23884109383E+03 -0.40168682804E+02 -0.68851595807E+03  0.75005717418E+03  0.17283792651E+03 0.  0.
         24    2    3    3    0    0 -0.15654494011E+03 -0.83158669024E+02 -0.54698752887E+03  0.58072559973E+03  0.81395226756E+02 0.  0.
         -6    2    1    2    0  502  0.23884109383E+03  0.40168682804E+02  0.82159797336E+03  0.87350820876E+03  0.17127396110E+03 0.  0.
        -24    2    5    5    0    0  0.77877028310E+02  0.42834736761E+02  0.21461869885E+03  0.24552535236E+03  0.79510166309E+02 0.  0.
          5    1    3    3  501    0 -0.82296153720E+02  0.42989986220E+02 -0.14152842920E+03  0.16933157444E+03  0.47000000000E+01 0. -1.
        -11    1    4    4    0    0 -0.90342405337E+02 -0.28734936361E+02 -0.39523262623E+03  0.40644344699E+03  0.00000000000E+00 0.  1.
         12    1    4    4    0    0 -0.66202534775E+02 -0.54423732663E+02 -0.15175490264E+03  0.17428215274E+03  0.00000000000E+00 0. -1.
         -5    1    5    5    0  502  0.16096406552E+03 -0.26660539567E+01  0.60697927452E+03  0.62798285640E+03  0.47000000000E+01 0.  1.
         11    1    6    6    0    0  0.38314728785E+02 -0.75861290547E+01  0.27589069629E+02  0.47819708896E+02  0.00000000000E+00 0. -1.
        -12    1    6    6    0    0  0.39562299525E+02  0.50420865815E+02  0.18702962922E+03  0.19770564347E+03  0.00000000000E+00 0.  1.
</event>
<event>
12    1  0.8251070E-002  0.2168604E+03  0.7818608E-02  0.1136717E+00
         21   -1    0    0  503  502  0.00000000000E+00  0.00000000000E+00  0.64681663317E+03  0.64681663317E+03  0.00000000000E+00 0. -1.
         21   -1    0    0  501  503 -0.00000000000E+00 -0.00000000000E+00 -0.78026141994E+02  0.78026141994E+02  0.00000000000E+00 0. -1.
          6    2    1    2  501    0  0.42894642479E+02  0.12291273521E+03  0.38758641265E+03  0.44413022694E+03  0.17343857811E+03 0.  0.
         24    2    3    3    0    0  0.30061803246E+02  0.83382296647E+02  0.38405377211E+03  0.40215515237E+03  0.79844519512E+02 0.  0.
         -6    2    1    2    0  502 -0.42894642479E+02 -0.12291273521E+03  0.18120407853E+03  0.28071254823E+03  0.17034413940E+03 0.  0.
        -24    2    5    5    0    0 -0.29614728709E+02 -0.37261900638E+01  0.12094916646E+03  0.14641983405E+03  0.76936014237E+02 0.  0.
          5    1    3    3  501    0  0.12832839233E+02  0.39530438564E+02  0.35326405401E+01  0.41975074568E+02  0.47000000000E+01 0. -1.
        -13    1    4    4    0    0 -0.25357066649E+02  0.43554560843E+02  0.18420657235E+03  0.19097654802E+03  0.00000000000E+00 0.  1.
         14    1    4    4    0    0  0.55418869896E+02  0.39827735804E+02  0.19984719976E+03  0.21117860434E+03  0.00000000000E+00 0. -1.
         -5    1    5    5    0  502 -0.13279913771E+02 -0.11918654515E+03  0.60254912069E+02  0.13429271418E+03  0.47000000000E+01 0.  1.
         13    1    6    6    0    0 -0.55724832997E+02 -0.28519701318E+01  0.90288353968E+02  0.10613848316E+03  0.00000000000E+00 0. -1.
        -14    1    6    6    0    0  0.26110104288E+02 -0.87421993196E+00  0.30660812491E+02  0.40281350884E+02  0.00000000000E+00 0.  1.
</event>
<event>
12    1  0.8251070E-002  0.1786320E+03  0.7818608E-02  0.1171173E+00
         21   -1    0    0  501  502  0.00000000000E+00  0.00000000000E+00  0.63653716258E+02  0.63653716258E+02  0.00000000000E+00 0.  1.
         21   -1    0    0  502  503 -0.00000000000E+00 -0.00000000000E+00 -0.68227892404E+03  0.68227892404E+03  0.00000000000E+00 0.  1.
         -6    2    1    2    0  503 -0.85816706760E+00 -0.48808262264E+02 -0.50793673442E+03  0.53578664955E+03  0.16335429211E+03 0.  0.
        -24    2    3    3    0    0 -0.65313785122E+02 -0.21690020052E+02 -0.25496765406E+03  0.27328832313E+03  0.70296909201E+02 0.  0.
          6    2    1    2  501    0  0.85816706760E+00  0.48808262264E+02 -0.11068847337E+03  0.21014599075E+03  0.17183252421E+03 0.  0.
         24    2    5    5    0    0  0.24826303472E+02  0.57250098229E+02 -0.13771483464E+03  0.17275280473E+03  0.83571746261E+02 0.  0.
          5    1    5    5  501    0 -0.23968136404E+02 -0.84418359654E+01  0.27026361267E+02  0.37393186017E+02  0.47000000000E+01 0. -1.
        -13    1    6    6    0    0  0.15671726383E+01  0.46957539531E+02 -0.17916006252E+02  0.50283693469E+02  0.00000000000E+00 0.  1.
         14    1    6    6    0    0  0.23259130834E+02  0.10292558698E+02 -0.11979882839E+03  0.12246911127E+03  0.00000000000E+00 0. -1.
         -5    1    3    3    0  503  0.64455618054E+02 -0.27118242212E+02 -0.25296908035E+03  0.26249832642E+03  0.47000000000E+01 0.  1.
         11    1    4    4    0    0 -0.34866694731E+02  0.21799505470E+02 -0.15169253190E+03  0.15716720102E+03  0.00000000000E+00 0. -1.
        -12    1    4    4    0    0 -0.30447090390E+02 -0.43489525522E+02 -0.10327512216E+03  0.11612112211E+03  0.00000000000E+00 0.  1.
</event>
<event>
12    1  0.8251070E-002  0.1832649E+03  0.7818608E-02  0.1164836E+00
         21   -1    0    0  501  502  0.00000000000E+00  0.00000000000E+00  0.12623511598E+04  0.12623511598E+04  0.00000000000E+00 0.  1.
         21   -1    0    0  502  503 -0.00000000000E+00 -0.00000000000E+00 -0.40217682974E+02  0.40217682974E+02  0.00000000000E+00 0.  1.
         -6    2    1    2    0  503  0.50001397163E+02  0.39879090782E+02  0.23157167092E+03  0.29531585180E+03  0.17174263289E+03 0.  0.
        -24    2    3    3    0    0  0.99351895071E+01  0.44441036087E+02  0.37416709098E+02  0.96961745358E+02  0.76992572786E+02 0.  0.
          6    2    1    2  501    0 -0.50001397163E+02 -0.39879090782E+02  0.99056180587E+03  0.10072529909E+04  0.17104214367E+03 0.  0.
         24    2    5    5    0    0  0.99148074273E+01 -0.40230034557E+01  0.80188623347E+03  0.80601638346E+03  0.80786081786E+02 0.  0.
          5    1    5    5  501    0 -0.59916204590E+02 -0.35856087326E+02  0.18867557240E+03  0.20123660748E+03  0.47000000000E+01 0. -1.
        -13    1    6    6    0    0 -0.15368887567E+02  0.32380627159E+02  0.28788349564E+03  0.29010621294E+03  0.00000000000E+00 0.  1.
         14    1    6    6    0    0  0.25283694994E+02 -0.36403630614E+02  0.51400273783E+03  0.51591017052E+03  0.00000000000E+00 0. -1.
         -5    1    3    3    0  503  0.40066207656E+02 -0.45619453056E+01  0.19415496183E+03  0.19835410644E+03  0.47000000000E+01 0.  1.
         11    1    4    4    0    0  0.40016272641E+02  0.29787565998E+02  0.39213568353E+02  0.63453172554E+02  0.00000000000E+00 0. -1.
        -12    1    4    4    0    0 -0.30081083134E+02  0.14653470089E+02 -0.17968592556E+01  0.33508572804E+02  0.00000000000E+00 0.  1.
</event>
<event>
12    1  0.8251070E-002  0.2447463E+03  0.7818608E-02  0.1117012E+00
         21   -1    0    0  501  502  0.00000000000E+00  0.00000000000E+00  0.43456672112E+03  0.43456672112E+03  0.00000000000E+00 0.  1.
         21   -1    0    0  502  503 -0.00000000000E+00 -0.00000000000E+00 -0.20463299135E+03  0.20463299135E+03  0.00000000000E+00 0. -1.
         -6    2    1    2    0  503 -0.13615668126E+03  0.10510607979E+03 -0.68894117642E+02  0.25425801291E+03  0.17411148102E+03 0.  0.
        -24    2    3    3    0    0 -0.76717713580E+02  0.82888616155E+02 -0.11001354371E+03  0.17849850018E+03  0.83681566085E+02 0.  0.
          6    2    1    2  501    0  0.13615668126E+03 -0.10510607979E+03  0.29882784742E+03  0.38494169956E+03  0.17116103473E+03 0.  0.
         24    2    5    5    0    0  0.18673243674E+02 -0.28874332568E+01  0.61560826635E+02  0.10109536973E+03  0.77932734492E+02 0.  0.
          5    1    5    5  501    0  0.11748343759E+03 -0.10221864653E+03  0.23726702078E+03  0.28384632983E+03  0.47000000000E+01 0. -1.
        -13    1    6    6    0    0  0.41745455908E+02  0.13482337540E+02  0.57791887445E+02  0.72555900994E+02  0.00000000000E+00 0.  1.
         14    1    6    6    0    0 -0.23072212234E+02 -0.16369770797E+02  0.37689391893E+01  0.28539468739E+02  0.00000000000E+00 0. -1.
         -5    1    3    3    0  503 -0.59438967681E+02  0.22217463631E+02  0.41119426066E+02  0.75759512731E+02  0.47000000000E+01 0.  1.
         13    1    4    4    0    0 -0.92009181902E+02  0.78069509005E+02 -0.80945764958E+02  0.14530228716E+03  0.00000000000E+00 0. -1.
        -14    1    4    4    0    0  0.15291468322E+02  0.48191071497E+01 -0.29067778750E+02  0.33196213016E+02  0.00000000000E+00 0.  1.
</event>
<event>
12    1  0.8251070E-002  0.1880391E+03  0.7818608E-02  0.1160294E+00
         21   -1    0    0  503  502  0.00000000000E+00  0.00000000000E+00  0.23251739952E+03  0.23251739952E+03  0.00000000000E+00 0. -1.
         21   -1    0    0  501  503 -0.00000000000E+00 -0.00000000000E+00 -0.31736886561E+03  0.31736886561E+03  0.00000000000E+00 0. -1.
          6    2    1    2  501    0  0.43814660170E+02  0.62050599902E+02 -0.24097422992E+03  0.30565879894E+03  0.17201372180E+03 0.  0.
         24    2    3    3    0    0 -0.31689419527E+02  0.22113257661E+02 -0.68440231874E+02  0.11308172907E+03  0.81303115783E+02 0.  0.
         -6    2    1    2    0  502 -0.43814660170E+02 -0.62050599902E+02  0.15612276384E+03  0.24422746619E+03  0.17176360633E+03 0.  0.
        -24    2    5    5    0    0 -0.52795502134E+02 -0.38600972160E+02  0.18366128892E+02  0.10412207359E+03  0.78909387407E+02 0.  0.
          5    1    3    3  501    0  0.75504079697E+02  0.39937342241E+02 -0.17253399805E+03  0.19257706987E+03  0.47000000000E+01 0. -1.
        -13    1    4    4    0    0  0.13086553361E+02  0.18105891484E+02  0.85560022939E+01  0.23922507405E+02  0.00000000000E+00 0.  1.
         14    1    4    4    0    0 -0.44775972888E+02  0.40073661778E+01 -0.76996234168E+02  0.89159221664E+02  0.00000000000E+00 0. -1.
         -5    1    5    5    0  502  0.89808419643E+01 -0.23449627742E+02  0.13775663495E+03  0.14010539260E+03  0.47000000000E+01 0.  1.
         11    1    6    6    0    0 -0.32142825326E+02 -0.32630584879E+02  0.48756554758E+02  0.66896322181E+02  0.00000000000E+00 0. -1.
        -12    1    6    6    0    0 -0.20652676808E+02 -0.59703872809E+01 -0.30390425866E+02  0.37225751409E+02  0.00000000000E+00 0.  1.
</event>
<event>
12    1  0.8251070E-002  0.3847960E+03  0.7818608E-02  0.1049279E+00
         21   -1    0    0  501  502  0.00000000000E+00  0.00000000000E+00  0.10635329642E+04  0.10635329642E+04  0.00000000000E+00 0.  1.
         21   -1    0    0  502  503 -0.00000000000E+00 -0.00000000000E+00 -0.21977436043E+03  0.21977436043E+03  0.00000000000E+00 0. -1.
         -6    2    1    2    0  503 -0.32891268293E+03  0.98994041953E+02  0.32818203264E+02  0.38619295794E+03  0.17344910770E+03 0.  0.
        -24    2    3    3    0    0 -0.80838828706E+02  0.59198279861E+02 -0.18576338686E+02  0.12970157646E+03  0.80237559862E+02 0.  0.
          6    2    1    2  501    0  0.32891268293E+03 -0.98994041953E+02  0.81094040047E+03  0.89711436665E+03  0.17089903567E+03 0.  0.
         24    2    5    5    0    0  0.15235037239E+03 -0.77263008654E+02  0.54880527904E+03  0.58028097320E+03  0.79740611289E+02 0.  0.
          5    1    5    5  501    0  0.17656231054E+03 -0.21731033299E+02  0.26213512144E+03  0.31683339345E+03  0.47000000000E+01 0. -1.
        -13    1    6    6    0    0  0.10379830822E+03 -0.82351687723E+01  0.30325737094E+03  0.32063521301E+03  0.00000000000E+00 0.  1.
         14    1    6    6    0    0  0.48552064166E+02 -0.69027839882E+02  0.24554790810E+03  0.25964576019E+03  0.00000000000E+00 0. -1.
         -5    1    3    3    0  503 -0.24807385423E+03  0.39795762092E+02  0.51394541950E+02  0.25649138148E+03  0.47000000000E+01 0.  1.
         11    1    4    4    0    0 -0.70903486851E+02  0.23155892768E+02 -0.41982735610E+02  0.85592347244E+02  0.00000000000E+00 0. -1.
        -12    1    4    4    0    0 -0.99353418546E+01  0.36042387094E+02  0.23406396924E+02  0.44109229217E+02  0.00000000000E+00 0.  1.
</event>
<event>
12    1  0.8251070E-002  0.4718383E+03  0.7818608E-02  0.1021425E+00
         21   -1    0    0  503  502  0.00000000000E+00  0.00000000000E+00  0.15912704566E+03  0.15912704566E+03  0.00000000000E+00 0. -1.
         21   -1    0    0  501  503 -0.00000000000E+00 -0.00000000000E+00 -0.14769183067E+04  0.14769183067E+04  0.00000000000E+00 0.  1.
          6    2    1    2  501    0 -0.36908933782E+03 -0.23888939681E+03 -0.84801129495E+03  0.97044039871E+03  0.17127850973E+03 0.  0.
         24    2    3    3    0    0 -0.30942435110E+03 -0.17491227458E+03 -0.77322457281E+03  0.85525304430E+03  0.85110498364E+02 0.  0.
         -6    2    1    2    0  502  0.36908933782E+03  0.23888939681E+03 -0.46977996610E+03  0.66560495366E+03  0.17041612186E+03 0.  0.
        -24    2    5    5    0    0  0.36974350671E+03  0.25097072199E+03 -0.43685811616E+03  0.63021675564E+03  0.81434522116E+02 0.  0.
          5    1    3    3  501    0 -0.59664986724E+02 -0.63977122225E+02 -0.74786722136E+02  0.11518735441E+03  0.47000000000E+01 0. -1.
        -11    1    4    4    0    0 -0.10040649599E+03 -0.20900392509E+02 -0.27372056379E+03  0.29230333198E+03  0.00000000000E+00 0.  1.
         12    1    4    4    0    0 -0.20901785511E+03 -0.15401188207E+03 -0.49950400902E+03  0.56294971232E+03  0.00000000000E+00 0. -1.
         -5    1    5    5    0  502 -0.65416888804E+00 -0.12081325185E+02 -0.32921849944E+02  0.35388198017E+02  0.47000000000E+01 0.  1.
         11    1    6    6    0    0  0.25020785389E+03  0.13062855133E+03 -0.24124281855E+03  0.37130295726E+03  0.00000000000E+00 0. -1.
        -12    1    6    6    0    0  0.11953565282E+03  0.12034217066E+03 -0.19561529761E+03  0.25891379838E+03  0.00000000000E+00 0.  1.
</event>
<event>
12    1  0.8251070E-002  0.2102996E+03  0.7818608E-02  0.1141572E+00
         21   -1    0    0  501  502  0.00000000000E+00  0.00000000000E+00  0.61340825442E+02  0.61340825442E+02  0.00000000000E+00 0.  1.
         21   -1    0    0  502  503 -0.00000000000E+00 -0.00000000000E+00 -0.15551837759E+04  0.15551837759E+04  0.00000000000E+00 0. -1.
         -6    2    1    2    0  503 -0.62076119724E+02 -0.10256920859E+03 -0.13393668206E+04  0.13555863019E+04  0.17128004783E+03 0.  0.
        -24    2    3    3    0    0 -0.27321191238E+02  0.12187876022E+02 -0.67678308056E+03  0.68222429229E+03  0.80620438124E+02 0.  0.
          6    2    1    2  501    0  0.62076119724E+02  0.10256920859E+03 -0.15447612989E+03  0.26093829940E+03  0.17277741229E+03 0.  0.
         24    2    5    5    0    0  0.10095991624E+03  0.11457634034E+03 -0.11991360648E+03  0.20733998908E+03  0.72732080959E+02 0.  0.
          5    1    5    5  501    0 -0.38883796520E+02 -0.12007131743E+02 -0.34562523411E+02  0.53598310319E+02  0.47000000000E+01 0. -1.
        -11    1    6    6    0    0 -0.89478891777E+01  0.21815310488E+02 -0.73228342921E+01  0.24690005964E+02  0.00000000000E+00 0.  1.
         12    1    6    6    0    0  0.10990780542E+03  0.92761029847E+02 -0.11259077219E+03  0.18264998312E+03  0.00000000000E+00 0. -1.
         -5    1    3    3    0  503 -0.34754928485E+02 -0.11475708461E+03 -0.66258374001E+03  0.67336200966E+03  0.47000000000E+01 0.  1.
         13    1    4    4    0    0 -0.51140914292E+02  0.17870005033E+02 -0.31590315708E+03  0.32051448461E+03  0.00000000000E+00 0. -1.
        -14    1    4    4    0    0  0.23819723054E+02 -0.56821290109E+01 -0.36087992348E+03  0.36170980768E+03  0.00000000000E+00 0.  1.
</event>
<event>
12    1  0.8251070E-002  0.3257615E+03  0.7818608E-02  0.1073061E+00
         21   -1    0    0  501  502  0.00000000000E+00  0.00000000000E+00  0.43565855335E+03  0.43565855335E+03  0.00000000000E+00 0.  1.
         21   -1    0    0  502  503 -0.00000000000E+00 -0.00000000000E+00 -0.33236746212E+03  0.33236746212E+03  0.00000000000E+00 0. -1.
         -6    2    1    2    0  503 -0.95571726864E+02 -0.25993577199E+03 -0.14708786943E+03  0.35716086873E+03  0.17096340042E+03 0.  0.
        -24    2    3    3    0    0  0.64028512566E+01 -0.17062036525E+03 -0.89523959952E+02  0.20981179293E+03  0.82789754832E+02 0.  0.
          6    2    1    2  501    0  0.95571726864E+02  0.25993577199E+03  0.25037896065E+03  0.41086514674E+03  0.17152254760E+03 0.  0.
         24    2    5    5    0    0  0.42643910439E+01  0.15194140519E+03  0.19392978833E+03  0.25852207374E+03  0.78233778954E+02 0.  0.
          5    1    5    5  501    0  0.91307335820E+02  0.10799436680E+03  0.56449172322E+02  0.15234307300E+03  0.47000000000E+01 0. -1.
        -11    1    6    6    0    0 -0.97151094644E+01  0.36361998387E+02  0.10641752545E+03  0.11287722534E+03  0.00000000000E+00 0.  1.
         12    1    6    6    0    0  0.13979500508E+02  0.11557940680E+03  0.87512262879E+02  0.14564484840E+03  0.00000000000E+00 0. -1.
         -5    1    3    3    0  503 -0.10197457812E+03 -0.89315406739E+02 -0.57563909474E+02  0.14734907580E+03  0.47000000000E+01 0.  1.
         13    1    4    4    0    0 -0.54978155303E+00 -0.17793388210E+03 -0.90584098849E+02  0.19966533906E+03  0.00000000000E+00 0. -1.
        -14    1    4    4    0    0  0.69526328096E+01  0.73135168471E+01  0.10601388972E+01  0.10146453870E+02  0.00000000000E+00 0.  1.
</event>
<event>
12    1  0.8251070E-002  0.1731399E+03  0.7818608E-02  0.1174818E+00
         21   -1    0    0  503  502  0.00000000000E+00  0.00000000000E+00  0.22583030253E+03  0.22583030253E+03  0.00000000000E+00 0.  1.
         21   -1    0    0  501  503 -0.00000000000E+00 -0.00000000000E+00 -0.21211955272E+03  0.21211955272E+03  0.00000000000E+00 0.  1.
          6    2    1    2  501    0  0.40791632471E+01  0.21466192523E+02 -0.12760594702E+03  0.21508304527E+03  0.17175564519E+03 0.  0.
         24    2    3    3    0    0  0.48146336853E+02  0.58895278300E+02 -0.10375066380E+03  0.15236130431E+03  0.81627466295E+02 0.  0.
         -6    2    1    2    0  502 -0.40791632471E+01 -0.21466192523E+02  0.14131669684E+03  0.22286680997E+03  0.17094376031E+03 0.  0.
        -24    2    5    5    0    0  0.32906549257E+02  0.43778810119E+02  0.87225356373E+02  0.13027730510E+03  0.79777742703E+02 0.  0.
          5    1    3    3  501    0 -0.44067173606E+02 -0.37429085777E+02 -0.23855283219E+02  0.62721740961E+02  0.47000000000E+01 0. -1.
        -13    1    4    4    0    0 -0.15653129899E+02  0.41719961364E+02 -0.32236641239E+02  0.54997969874E+02  0.00000000000E+00 0.  1.
         14    1    4    4    0    0  0.63799466753E+02  0.17175316937E+02 -0.71514022565E+02  0.97363334440E+02  0.00000000000E+00 0. -1.
         -5    1    5    5    0  502 -0.36985712504E+02 -0.65245002642E+02  0.54091340466E+02  0.92589504873E+02  0.47000000000E+01 0.  1.
         11    1    6    6    0    0 -0.56881355826E+01  0.51941627895E+02  0.28462658103E+02  0.59501348733E+02  0.00000000000E+00 0. -1.
        -12    1    6    6    0    0  0.38594684839E+02 -0.81628177762E+01  0.58762698271E+02  0.70775956369E+02  0.00000000000E+00 0.  1.
</event>
<event>
12    1  0.8251070E-002  0.1946229E+03  0.7818608E-02  0.1154748E+00
         21   -1    0    0  503  502  0.00000000000E+00  0.00000000000E+00  0.43008044861E+02  0.43008044861E+02  0.00000000000E+00 0.  1.
         21   -1    0    0  501  503 -0.00000000000E+00 -0.00000000000E+00 -0.96589550219E+03  0.96589550219E+03  0.00000000000E+00 0.  1.
          6    2    1    2  501    0 -0.14267560003E+02  0.80083540490E+02 -0.62007436914E+03  0.64990021903E+03  0.17680818622E+03 0.  0.
         24    2    3    3    0    0 -0.53110572066E+01 -0.16601446344E+02 -0.41093487341E+03  0.41927146044E+03  0.81346616392E+02 0.  0.
         -6    2    1    2    0  502  0.14267560003E+02 -0.80083540490E+02 -0.30281308819E+03  0.35900332802E+03  0.17484474948E+03 0.  0.
        -24    2    5    5    0    0  0.73932057541E+02 -0.75265299741E+02 -0.20555189302E+03  0.24470154414E+03  0.80600561441E+02 0.  0.
          5    1    3    3  501    0 -0.89565027966E+01  0.96684986833E+02 -0.20913949572E+03  0.23062875860E+03  0.47000000000E+01 0. -1.
        -11    1    4    4    0    0  0.87546890081E+01  0.29158494911E+02 -0.23408947730E+03  0.23606089423E+03  0.00000000000E+00 0.  1.
         12    1    4    4    0    0 -0.14065746215E+02 -0.45759941255E+02 -0.17684539612E+03  0.18321056620E+03  0.00000000000E+00 0. -1.
         -5    1    5    5    0  502 -0.59664497538E+02 -0.48182407485E+01 -0.97261195175E+02  0.11430178388E+03  0.47000000000E+01 0.  1.
         11    1    6    6    0    0  0.51021458485E+02 -0.19381154113E+02 -0.37752439445E+02  0.66363130161E+02  0.00000000000E+00 0. -1.
        -12    1    6    6    0    0  0.22910599056E+02 -0.55884145628E+02 -0.16779945357E+03  0.17833841398E+03  0.00000000000E+00 0.  1.
</event>
<event>
12    1  0.8251070E-002  0.1799170E+03  0.7818608E-02  0.1168000E+00
         21   -1    0    0  503  502  0.00000000000E+00  0.00000000000E+00  0.24462826688E+03  0.24462826688E+03  0.00000000000E+00 0.  1.
         21   -1    0    0  501  503 -0.00000000000E+00 -0.00000000000E+00 -0.20574830831E+03  0.20574830831E+03  0.00000000000E+00 0.  1.
          6    2    1    2  501    0  0.36965842496E+02 -0.33111273528E+02 -0.11542389956E+03  0.21335376765E+03  0.17243643360E+03 0.  0.
         24    2    3    3    0    0  0.36091930093E+02 -0.58762738058E+02 -0.14043730724E+03  0.17720792530E+03  0.83212527430E+02 0.  0.
         -6    2    1    2    0  502 -0.36965842496E+02  0.33111273528E+02  0.15430385813E+03  0.23702280755E+03  0.17293727394E+03 0.  0.
        -24    2    5    5    0    0  0.36462976522E+02  0.21715074472E+02  0.36613342510E+02  0.97757548839E+02  0.80093123232E+02 0.  0.
          5    1    3    3  501    0  0.87391240277E+00  0.25651464530E+02  0.25013407680E+02  0.36145842350E+02  0.47000000000E+01 0. -1.
        -13    1    4    4    0    0 -0.22334148079E+02  0.32950738104E+01 -0.24559924051E+02  0.33359579602E+02  0.00000000000E+00 0.  1.
         14    1    4    4    0    0  0.58426078172E+02 -0.62057811869E+02 -0.11587738319E+03  0.14384834570E+03  0.00000000000E+00 0. -1.
         -5    1    5    5    0  502 -0.73428819018E+02  0.11396199057E+02  0.11769051562E+03  0.13926525871E+03  0.47000000000E+01 0.  1.
         13    1    6    6    0    0 -0.17371611833E+02 -0.15649949450E+02  0.18369670309E+02  0.29734468260E+02  0.00000000000E+00 0. -1.
        -14    1    6    6    0    0  0.53834588356E+02  0.37365023921E+02  0.18243672201E+02  0.68023080579E+02  0.00000000000E+00 0.  1.
</event>
<event>
12    1  0.8251070E-002  0.2006987E+03  0.7818608E-02  0.1149240E+00
         21   -1    0    0  503  502  0.00000000000E+00  0.00000000000E+00  0.11134718219E+03  0.11134718219E+03  0.00000000000E+00 0. -1.
         21   -1    0    0  501  503 -0.00000000000E+00 -0.00000000000E+00 -0.54985266685E+03  0.54985266685E+03  0.00000000000E+00 0.  1.
          6    2    1    2  501    0  0.85387772469E+02  0.58036542534E+02 -0.41315974025E+03  0.45932662680E+03  0.17210655759E+03 0.  0.
         24    2    3    3    0    0  0.48776930178E+01  0.70968522082E+01 -0.30289179827E+03  0.31352596160E+03  0.80504223101E+02 0.  0.
         -6    2    1    2    0  502 -0.85387772469E+02 -0.58036542534E+02 -0.25345744406E+02  0.20187322223E+03  0.17161316715E+03 0.  0.
        -24    2    5    5    0    0 -0.71926714255E+00 -0.61050763080E+02  0.23724709271E+02  0.10385362856E+03  0.80591571004E+02 0.  0.
          5    1    3    3  501    0  0.80510079451E+02  0.50939690326E+02 -0.11026794198E+03  0.14580066520E+03  0.47000000000E+01 0. -1.
        -13    1    4    4    0    0  0.21723814630E+02  0.16873335179E+02 -0.28719900366E+03  0.28851326012E+03  0.00000000000E+00 0.  1.
         14    1    4    4    0    0 -0.16846121612E+02 -0.97764829706E+01 -0.15692794613E+02  0.25012701481E+02  0.00000000000E+00 0. -1.
         -5    1    5    5    0  502 -0.84668505326E+02  0.30142205456E+01 -0.49070453677E+02  0.98019593673E+02  0.47000000000E+01 0.  1.
         13    1    6    6    0    0 -0.28918042812E+02 -0.63397337999E+02  0.48704081853E+01  0.69851245811E+02  0.00000000000E+00 0. -1.
        -14    1    6    6    0    0  0.28198775669E+02  0.23465749192E+01  0.18854301086E+02  0.34002382748E+02  0.00000000000E+00 0.  1.
</event>
<event>
12    1  0.8251070E-002  0.2730213E+03  0.7818608E-02  0.1099576E+00
         21   -1    0    0  501  502  0.00000000000E+00  0.00000000000E+00  0.28112956926E+03  0.28112956926E+03  0.00000000000E+00 0. -1.
         21   -1    0    0  502  503 -0.00000000000E+00 -0.00000000000E+00 -0.38613575536E+03  0.38613575536E+03  0.00000000000E+00 0. -1.
         -6    2    1    2    0  503 -0.66940674781E+01 -0.21214198969E+03 -0.23932207760E+03  0.36299338863E+03  0.17158120246E+03 0.  0.
        -24    2    3    3    0    0 -0.10129870965E+02 -0.10713431514E+03 -0.21758639518E+03  0.25560183240E+03  0.80050494016E+02 0.  0.
          6    2    1    2  501    0  0.66940674781E+01  0.21214198969E+03  0.13431589149E+03  0.30427193599E+03  0.17173123768E+03 0.  0.
         24    2    5    5    0    0 -0.56825754244E+02  0.16265810520E+03  0.10679170618E+03  0.21904815202E+03  0.83010835823E+02 0.  0.
          5    1    5    5  501    0  0.63519821722E+02  0.49483884494E+02  0.27524185305E+02  0.85223783963E+02  0.47000000000E+01 0. -1.
        -13    1    6    6    0    0 -0.46651549785E+02  0.27016912182E+02  0.42233394960E+02  0.68483138735E+02  0.00000000000E+00 0.  1.
         14    1    6    6    0    0 -0.10174204459E+02  0.13564119301E+03  0.64558311225E+02  0.15056501329E+03  0.00000000000E+00 0. -1.
         -5    1    3    3    0  503  0.34358034871E+01 -0.10500767455E+03 -0.21735682415E+02  0.10739155623E+03  0.47000000000E+01 0.  1.
         11    1    4    4    0    0  0.18197871416E+02 -0.70297843075E+02 -0.18529223690E+03  0.19901297023E+03  0.00000000000E+00 0. -1.
        -12    1    4    4    0    0 -0.28327742381E+02 -0.36836472066E+02 -0.32294158285E+02  0.56588862173E+02  0.00000000000E+00 0.  1.
</event>
<event>
12    1  0.8251070E-002  0.1938215E+03  0.7818608E-02  0.1155132E+00
         21   -1    0    0  503  502  0.00000000000E+00  0.00000000000E+00  0.26013038859E+03  0.26013038859E+03  0.00000000000E+00 0. -1.
         21   -1    0    0  501  503 -0.00000000000E+00 -0.00000000000E+00 -0.35898905193E+03  0.35898905193E+03  0.00000000000E+00 0. -1.
          6    2    1    2  501    0  0.85253888114E+02  0.25534107856E+02 -0.28891068812E+03  0.34790249747E+03  0.17218172357E+03 0.  0.
         24    2    3    3    0    0  0.74693592795E+02  0.66810844375E+02 -0.12704681096E+03  0.18045909346E+03  0.79885984424E+02 0.  0.
         -6    2    1    2    0  502 -0.85253888114E+02 -0.25534107856E+02  0.19005202478E+03  0.27121694305E+03  0.17180990068E+03 0.  0.
        -24    2    5    5    0    0 -0.95108674692E+01  0.12438011477E+02  0.16353057387E+03  0.18231045070E+03  0.79054987927E+02 0.  0.
          5    1    3    3  501    0  0.10560295319E+02 -0.41276736519E+02 -0.16186387716E+03  0.16744340401E+03  0.47000000000E+01 0. -1.
        -13    1    4    4    0    0 -0.16198487343E+02  0.10026712643E+02 -0.91602220932E+01  0.21138486876E+02  0.00000000000E+00 0.  1.
         14    1    4    4    0    0  0.90892080137E+02  0.56784131732E+02 -0.11788658886E+03  0.15932060658E+03  0.00000000000E+00 0. -1.
         -5    1    5    5    0  502 -0.75743020645E+02 -0.37972119333E+02  0.26521450912E+02  0.88906492347E+02  0.47000000000E+01 0.  1.
         13    1    6    6    0    0 -0.23638565089E+02  0.31646487644E+02  0.38970231052E+02  0.55488384802E+02  0.00000000000E+00 0. -1.
        -14    1    6    6    0    0  0.14127697620E+02 -0.19208476167E+02  0.12456034282E+03  0.12682206590E+03  0.00000000000E+00 0.  1.
</event>
<event>
12    1  0.8251070E-002  0.1778257E+03  0.7818608E-02  0.1170315E+00
         21   -1    0    0  501  502  0.00000000000E+00  0.00000000000E+00  0.45018572493E+03  0.45018572493E+03  0.00000000000E+00 0.  1.
         21   -1    0    0  502  503 -0.00000000000E+00 -0.00000000000E+00 -0.96262581537E+02  0.96262581537E+02  0.00000000000E+00 0.  1.
         -6    2    1    2    0  503 -0.32407362654E+02 -0.17056904846E+02  0.32644335379E+02  0.17923985226E+03  0.17239517641E+03 0.  0.
        -24    2    3    3    0    0  0.68701900946E+01 -0.72638497225E+02  0.26451773026E+02  0.11073819250E+03  0.78991772934E+02 0.  0.
          6    2    1    2  501    0  0.32407362654E+02  0.17056904846E+02  0.32127880801E+03  0.36720845420E+03  0.17401379602E+03 0.  0.
         24    2    5    5    0    0 -0.49466272858E+02  0.72920215901E+01  0.20065389518E+03  0.22101986117E+03  0.78023763380E+02 0.  0.
          5    1    5    5  501    0  0.81873635512E+02  0.97648832557E+01  0.12062491283E+03  0.14618859303E+03  0.47000000000E+01 0. -1.
        -11    1    6    6    0    0 -0.20369989774E+02 -0.13736334279E+02  0.17543634657E+03  0.17714834196E+03  0.00000000000E+00 0.  1.
         12    1    6    6    0    0 -0.29096283085E+02  0.21028355869E+02  0.25217548617E+02  0.43871519214E+02  0.00000000000E+00 0. -1.
         -5    1    3    3    0  503 -0.39277552749E+02  0.55581592380E+02  0.61925623531E+01  0.68501659760E+02  0.47000000000E+01 0.  1.
         13    1    4    4    0    0 -0.19426386917E+02 -0.17716511849E+01  0.29180792724E+02  0.35100454706E+02  0.00000000000E+00 0. -1.
        -14    1    4    4    0    0  0.26296577012E+02 -0.70866846041E+02 -0.27290196983E+01  0.75637737795E+02  0.00000000000E+00 0.  1.
</event>
<event>
12    1  0.8251070E-002  0.2242321E+03  0.7818608E-02  0.1134060E+00
         21   -1    0    0  501  502  0.00000000000E+00  0.00000000000E+00  0.14887953880E+03  0.14887953880E+03  0.00000000000E+00 0. -1.
         21   -1    0    0  502  503 -0.00000000000E+00 -0.00000000000E+00 -0.33479634856E+03  0.33479634856E+03  0.00000000000E+00 0. -1.
         -6    2    1    2    0  503  0.96736004613E+02 -0.60004574057E+02 -0.15239450558E+03  0.25695185564E+03  0.17274769836E+03 0.  0.
        -24    2    3    3    0    0  0.68382398409E+02  0.30601744262E+02 -0.97744418470E+02  0.14730627239E+03  0.80824175716E+02 0.  0.
          6    2    1    2  501    0 -0.96736004613E+02  0.60004574057E+02 -0.33522304175E+02  0.22672403172E+03  0.19318809018E+03 0.  0.
         24    2    5    5    0    0  0.83765099506E+00  0.60716270601E+02 -0.66022273945E+02  0.12377033914E+03  0.85281821159E+02 0.  0.
          5    1    5    5  501    0 -0.97573655608E+02 -0.71169654400E+00  0.32499969770E+02  0.10295369258E+03  0.47000000000E+01 0. -1.
        -13    1    6    6    0    0  0.42799594906E+02  0.27888357982E+02 -0.27416692545E+02  0.57976209475E+02  0.00000000000E+00 0.  1.
         14    1    6    6    0    0 -0.41961943911E+02  0.32827912619E+02 -0.38605581400E+02  0.65794129669E+02  0.00000000000E+00 0. -1.
         -5    1    3    3    0  503  0.28353606205E+02 -0.90606318319E+02 -0.54650087112E+02  0.10964558325E+03  0.47000000000E+01 0.  1.
         11    1    4    4    0    0  0.62053788618E+02  0.46792458191E+02 -0.40819712294E+02  0.87786421143E+02  0.00000000000E+00 0. -1.
        -12    1    4    4    0    0  0.63286097907E+01 -0.16190713929E+02 -0.56924706177E+02  0.59519851249E+02  0.00000000000E+00 0.  1.
</event>
<event>
12    1  0.8251070E-002  0.1923930E+03  0.7818608E-02  0.1156971E+00
         21   -1    0    0  503  502  0.00000000000E+00  0.00000000000E+00  0.66685615692E+03  0.66685615692E+03  0.00000000000E+00 0.  1.
         21   -1    0    0  501  503 -0.00000000000E+00 -0.00000000000E+00 -0.79220997541E+02  0.79220997541E+02  0.00000000000E+00 0.  1.
          6    2    1    2  501    0  0.78194846746E+02  0.46812808011E+01  0.84617379457E+02  0.20752172016E+03  0.17253641640E+03 0.  0.
         24    2    3    3    0    0  0.33573362860E+02 -0.41138880018E+02 -0.71236246451E+01  0.95588410570E+02  0.79163249455E+02 0.  0.
         -6    2    1    2    0  502 -0.78194846746E+02 -0.46812808011E+01  0.50301777992E+03  0.53855543430E+03  0.17572342033E+03 0.  0.
        -24    2    5    5    0    0 -0.12301604294E+03 -0.91524263196E+01  0.37536409898E+03  0.40310624446E+03  0.79873173189E+02 0.  0.
          5    1    3    3  501    0  0.44621483886E+02  0.45820160819E+02  0.91741004102E+02  0.11193330959E+03  0.47000000000E+01 0. -1.
        -11    1    4    4    0    0 -0.12788474385E+02  0.15644299812E+02 -0.93147617683E+01  0.22249808550E+02  0.00000000000E+00 0.  1.
         12    1    4    4    0    0  0.46361837245E+02 -0.56783179830E+02  0.21911371232E+01  0.73338602020E+02  0.00000000000E+00 0. -1.
         -5    1    5    5    0  502  0.44821196190E+02  0.44711455185E+01  0.12765368094E+03  0.13544918984E+03  0.47000000000E+01 0.  1.
         11    1    6    6    0    0 -0.50133002280E+02  0.31342482170E+02  0.20622698909E+03  0.21453493920E+03  0.00000000000E+00 0. -1.
        -12    1    6    6    0    0 -0.72883040656E+02 -0.40494908489E+02  0.16913710989E+03  0.18857130527E+03  0.00000000000E+00 0.  1.
</event>
<event>
12    1  0.8251070E-002  0.1754550E+03  0.7818608E-02  0.1172554E+00
         21   -1    0    0  501  502  0.00000000000E+00  0.00000000000E+00  0.24401371941E+03  0.24401371941E+03  0.00000000000E+00 0.  1.
         21   -1    0    0  502  503 -0.00000000000E+00 -0.00000000000E+00 -0.17665059723E+03  0.17665059723E+03  0.00000000000E+00 0.  1.
         -6    2    1    2    0  503 -0.31786734058E+02 -0.73134582187E+01 -0.79574775913E+02  0.19265668306E+03  0.17239654704E+03 0.  0.
        -24    2    3    3    0    0  0.27433719901E+02  0.31466698616E+02 -0.58389477068E+01  0.90333542505E+02  0.79895516031E+02 0.  0.
          6    2    1    2  501    0  0.31786734058E+02  0.73134582187E+01  0.14693789809E+03  0.22800763357E+03  0.17126836234E+03 0.  0.
         24    2    5    5    0    0  0.46297579913E+02 -0.21780952543E+02  0.16461616766E+03  0.19070266608E+03  0.81554573121E+02 0.  0.
          5    1    5    5  501    0 -0.14510845855E+02  0.29094410762E+02 -0.17678269563E+02  0.37304967494E+02  0.47000000000E+01 0. -1.
        -11    1    6    6    0    0  0.59119416828E+02 -0.26329496360E+02  0.70866006231E+02  0.95970509344E+02  0.00000000000E+00 0.  1.
         12    1    6    6    0    0 -0.12821836915E+02  0.45485438173E+01  0.93750161424E+02  0.94732156735E+02  0.00000000000E+00 0. -1.
         -5    1    3    3    0  503 -0.59220453959E+02 -0.38780156835E+02 -0.73735828206E+02  0.10232314055E+03  0.47000000000E+01 0.  1.
         11    1    4    4    0    0  0.21762244437E+02 -0.20424403205E+02 -0.20387219007E+02  0.36144020641E+02  0.00000000000E+00 0. -1.
        -12    1    4    4    0    0  0.56714754635E+01  0.51891101821E+02  0.14548271300E+02  0.54189521865E+02  0.00000000000E+00 0.  1.
</event>
<event>
12    1  0.8251070E-002  0.1742034E+03  0.7818608E-02  0.1173536E+00
         21   -1    0    0  501  502  0.00000000000E+00  0.00000000000E+00  0.21727591534E+03  0.21727591534E+03  0.00000000000E+00 0.  1.
         21   -1    0    0  502  503 -0.00000000000E+00 -0.00000000000E+00 -0.14956259925E+03  0.14956259925E+03  0.00000000000E+00 0.  1.
         -6    2    1    2    0  503 -0.22177441997E+02 -0.18985052907E+02 -0.13329589199E+02  0.17470637112E+03  0.17173341840E+03 0.  0.
        -24    2    3    3    0    0 -0.55346087486E+02 -0.75644493808E+02 -0.15856231323E+02  0.10883585263E+03  0.52995697012E+02 0.  0.
          6    2    1    2  501    0  0.22177441997E+02  0.18985052907E+02  0.81042905290E+02  0.19213214347E+03  0.17173973591E+03 0.  0.
         24    2    5    5    0    0 -0.51146332404E+02  0.25105153729E+02  0.31936908111E+02  0.10354704041E+03  0.80348039273E+02 0.  0.
          5    1    5    5  501    0  0.73323774401E+02 -0.61201008214E+01  0.49105997179E+02  0.88585103067E+02  0.47000000000E+01 0. -1.
        -13    1    6    6    0    0 -0.76016465735E+01  0.73257212007E+01  0.51525918731E+02  0.52596307122E+02  0.00000000000E+00 0.  1.
         14    1    6    6    0    0 -0.43544685831E+02  0.17779432528E+02 -0.19589010621E+02  0.50950733284E+02  0.00000000000E+00 0. -1.
         -5    1    3    3    0  503  0.33168645489E+02  0.56659440901E+02  0.25266421242E+01  0.65870518498E+02  0.47000000000E+01 0.  1.
         13    1    4    4    0    0 -0.49709056993E+01 -0.41800092147E+02  0.93505964506E+01  0.43120659328E+02  0.00000000000E+00 0. -1.
        -14    1    4    4    0    0 -0.50375181786E+02 -0.33844401661E+02 -0.25206827773E+02  0.65715193298E+02  0.00000000000E+00 0.  1.
</event>
<event>
12    1  0.8251070E-002  0.1912362E+03  0.7818608E-02  0.1157702E+00
         21   -1    0    0  501  502  0.00000000000E+00  0.00000000000E+00  0.49933221229E+03  0.49933221229E+03  0.00000000000E+00 0. -1.
         21   -1    0    0  502  503 -0.00000000000E+00 -0.00000000000E+00 -0.72679661540E+02  0.72679661540E+02  0.00000000000E+00 0. -1.
         -6    2    1    2    0  503 -0.53153505394E+02 -0.62161306961E+02  0.21891856827E+03  0.28965627925E+03  0.17113181281E+03 0.  0.
        -24    2    3    3    0    0 -0.42260111112E+02 -0.44723542644E+01  0.36655626644E+02  0.98113722113E+02  0.80478248978E+02 0.  0.
          6    2    1    2  501    0  0.53153505394E+02  0.62161306961E+02  0.20773398248E+03  0.28235559459E+03  0.17286396703E+03 0.  0.
         24    2    5    5    0    0 -0.28153435417E+02  0.68546144034E+02  0.13349829376E+03  0.17197166348E+03  0.79128179638E+02 0.  0.
          5    1    5    5  501    0  0.81306940810E+02 -0.63848370723E+01  0.74235688717E+02  0.11038393111E+03  0.47000000000E+01 0. -1.
        -13    1    6    6    0    0 -0.18551761644E+02  0.49966942803E+02  0.20583098372E+02  0.57136040918E+02  0.00000000000E+00 0.  1.
         14    1    6    6    0    0 -0.96016737730E+01  0.18579201230E+02  0.11291519539E+03  0.11483562256E+03  0.00000000000E+00 0. -1.
         -5    1    3    3    0  503 -0.10893394282E+02 -0.57688952697E+02  0.18226294163E+03  0.19154255713E+03  0.47000000000E+01 0.  1.
         13    1    4    4    0    0 -0.19922934686E+02  0.46001499387E+01  0.60707580185E+02  0.64058527909E+02  0.00000000000E+00 0. -1.
        -14    1    4    4    0    0 -0.22337176425E+02 -0.90725042031E+01 -0.24051953541E+02  0.34055194205E+02  0.00000000000E+00 0.  1.
</event>
<event>
12    1  0.8251070E-002  0.1885439E+03  0.7818608E-02  0.1159875E+00
         21   -1    0    0  503  502  0.00000000000E+00  0.00000000000E+00  0.26625081364E+03  0.26625081364E+03  0.00000000000E+00 0.  1.
         21   -1    0    0  501  503 -0.00000000000E+00 -0.00000000000E+00 -0.13965821744E+03  0.13965821744E+03  0.00000000000E+00 0. -1.
          6    2    1    2  501    0  0.61361341454E+02  0.43121086659E+02  0.19667369226E+02  0.18915614218E+03  0.17253578867E+03 0.  0.
         24    2    3    3    0    0  0.95881761188E+02 -0.45854360882E+00  0.37752655736E+02  0.13050453401E+03  0.80079010922E+02 0.  0.
         -6    2    1    2    0  502 -0.61361341454E+02 -0.43121086659E+02  0.10692522698E+03  0.21675288890E+03  0.17298603511E+03 0.  0.
        -24    2    5    5    0    0 -0.84912611716E+02 -0.70957512324E+01  0.12438541519E+03  0.17006846649E+03  0.78683228634E+02 0.  0.
          5    1    3    3  501    0 -0.34520419735E+02  0.43579630267E+02 -0.18085286510E+02  0.58651608171E+02  0.47000000000E+01 0. -1.
        -11    1    4    4    0    0  0.12824771390E+02 -0.33211246916E+02  0.12288973735E+02  0.37662721070E+02  0.00000000000E+00 0.  1.
         12    1    4    4    0    0  0.83056989798E+02  0.32752703307E+02  0.25463682002E+02  0.92841812937E+02  0.00000000000E+00 0. -1.
         -5    1    5    5    0  502  0.23551270262E+02 -0.36025335426E+02 -0.17460188208E+02  0.46684422411E+02  0.47000000000E+01 0.  1.
         13    1    6    6    0    0 -0.61831315750E+02  0.10066749348E+02  0.26456455085E+02  0.68002904832E+02  0.00000000000E+00 0. -1.
        -14    1    6    6    0    0 -0.23081295966E+02 -0.17162500580E+02  0.97928960103E+02  0.10206556166E+03  0.00000000000E+00 0.  1.
</event>
<event>
12    1  0.8251070E-002  0.2263019E+03  0.7818608E-02  0.1129311E+00
         21   -1    0    0  501  502  0.00000000000E+00  0.00000000000E+00  0.24240923660E+03  0.24240923660E+03  0.00000000000E+00 0. -1.
         21   -1    0    0  502  503 -0.00000000000E+00 -0.00000000000E+00 -0.26845746327E+03  0.26845746327E+03  0.00000000000E+00 0. -1.
         -6    2    1    2    0  503  0.13961259920E+03  0.47062414152E+02 -0.13114571299E+03  0.26155640923E+03  0.17177313089E+03 0.  0.
        -24    2    3    3    0    0  0.57046329579E+01  0.21845318393E+02 -0.77222021217E+02  0.11493751592E+03  0.82083075193E+02 0.  0.
          6    2    1    2  501    0 -0.13961259920E+03 -0.47062414152E+02  0.10509748632E+03  0.24931029064E+03  0.17147475239E+03 0.  0.
         24    2    5    5    0    0 -0.10712498753E+03 -0.42850604886E+02  0.41671700335E+00  0.13952259683E+03  0.78450265004E+02 0.  0.
          5    1    5    5  501    0 -0.32487611665E+02 -0.42118092660E+01  0.10468076931E+03  0.10978769381E+03  0.47000000000E+01 0. -1.
        -11    1    6    6    0    0  0.60288809271E+01 -0.14006116025E+02 -0.15413934436E+02  0.21681975605E+02  0.00000000000E+00 0.  1.
         12    1    6    6    0    0 -0.11315386846E+03 -0.28844488861E+02  0.15830651439E+02  0.11784062122E+03  0.00000000000E+00 0. -1.
         -5    1    3    3    0  503  0.13390796624E+03  0.25217095759E+02 -0.53923691772E+02  0.14661889331E+03  0.47000000000E+01 0.  1.
         13    1    4    4    0    0  0.40480533195E+02  0.27475153244E+02 -0.53328086859E+02  0.72370176603E+02  0.00000000000E+00 0. -1.
        -14    1    4    4    0    0 -0.34775900237E+02 -0.56298348511E+01 -0.23893934358E+02  0.42567339321E+02  0.00000000000E+00 0.  1.
</event>
<event>
12    1  0.8251070E-002  0.3694417E+03  0.7818608E-02  0.1054948E+00
         21   -1    0    0  503  502  0.00000000000E+00  0.00000000000E+00  0.74175072197E+02  0.74175072197E+02  0.00000000000E+00 0. -1.
         21   -1    0    0  501  503 -0.00000000000E+00 -0.00000000000E+00 -0.21130305939E+04  0.21130305939E+04  0.00000000000E+00 0.  1.
          6    2    1    2  501    0 -0.32608089093E+03  0.15737502879E+00 -0.62533508381E+03  0.72631339409E+03  0.17366176087E+03 0.  0.
         24    2    3    3    0    0 -0.21060621446E+03 -0.13910197962E+02 -0.26607182656E+03  0.34865683645E+03  0.78860012290E+02 0.  0.
         -6    2    1    2    0  502  0.32608089093E+03 -0.15737502879E+00 -0.14135204379E+04  0.14608922720E+04  0.17273514373E+03 0.  0.
        -24    2    5    5    0    0  0.23660268513E+03 -0.57374353272E+02 -0.86570922737E+03  0.90286060240E+03  0.80200710648E+02 0.  0.
          5    1    3    3  501    0 -0.11547467648E+03  0.14067572991E+02 -0.35926325725E+03  0.37765655764E+03  0.47000000000E+01 0. -1.
        -13    1    4    4    0    0 -0.16962404329E+02  0.19369610758E+02 -0.52371504665E+02  0.58358199788E+02  0.00000000000E+00 0.  1.
         14    1    4    4    0    0 -0.19364381013E+03 -0.33279808720E+02 -0.21370032189E+03  0.29029863666E+03  0.00000000000E+00 0. -1.
         -5    1    5    5    0  502  0.89478205807E+02  0.57216978244E+02 -0.54781121053E+03  0.55803166962E+03  0.47000000000E+01 0.  1.
         11    1    6    6    0    0  0.24904918400E+02 -0.25220837157E+02 -0.65240833652E+02  0.74247639444E+02  0.00000000000E+00 0. -1.
        -12    1    6    6    0    0  0.21169776673E+03 -0.32153516115E+02 -0.80046839372E+03  0.82861296296E+03  0.00000000000E+00 0.  1.
</event>
<event>
12    1  0.8251070E-002  0.2201590E+03  0.7818608E-02  0.1134116E+00
         21   -1    0    0  501  502  0.00000000000E+00  0.00000000000E+00  0.30335490680E+03  0.30335490680E+03  0.00000000000E+00 0.  1.
         21   -1    0    0  502  503 -0.00000000000E+00 -0.00000000000E+00 -0.28243158436E+03  0.28243158436E+03  0.00000000000E+00 0. -1.
         -6    2    1    2    0  503 -0.90526156018E+02 -0.98503969937E+02 -0.18364518875E+03  0.28525654659E+03  0.17247528810E+03 0.  0.
        -24    2    3    3    0    0 -0.10108940410E+03 -0.12363999050E+03 -0.11522543371E+03  0.21145441505E+03  0.77007494431E+02 0.  0.
          6    2    1    2  501    0  0.90526156018E+02  0.98503969937E+02  0.20456851119E+03  0.30052994456E+03  0.17484837658E+03 0.  0.
         24    2    5    5    0    0  0.81548646637E+02  0.11982777216E+03  0.21758984552E+03  0.27356802024E+03  0.80531013128E+02 0.  0.
          5    1    5    5  501    0  0.89775093807E+01 -0.21323802219E+02 -0.13021334330E+02  0.26961924329E+02  0.47000000000E+01 0. -1.
        -11    1    6    6    0    0  0.72425425094E+02  0.13202050209E+03  0.19707708417E+03  0.24802062874E+03  0.00000000000E+00 0.  1.
         12    1    6    6    0    0  0.91232215435E+01 -0.12192729933E+02  0.20512761341E+02  0.25547391499E+02  0.00000000000E+00 0. -1.
         -5    1    3    3    0  503  0.10563248078E+02  0.25136020567E+02 -0.68419755044E+02  0.73802131542E+02  0.47000000000E+01 0.  1.
         13    1    4    4    0    0 -0.65905634561E+02 -0.11797469613E+03 -0.11228348685E+03  0.17569622367E+03  0.00000000000E+00 0. -1.
        -14    1    4    4    0    0 -0.35183769535E+02 -0.56652943755E+01 -0.29419468516E+01  0.35758191374E+02  0.00000000000E+00 0.  1.
</event>
<event>
12    1  0.8251070E-002  0.2246842E+03  0.7818608E-02  0.1130668E+00
         21   -1    0    0  501  502  0.00000000000E+00  0.00000000000E+00  0.10141433880E+04  0.10141433880E+04  0.00000000000E+00 0. -1.
         21   -1    0    0  502  503 -0.00000000000E+00 -0.00000000000E+00 -0.52396755234E+02  0.52396755234E+02  0.00000000000E+00 0. -1.
         -6    2    1    2    0  503  0.42218267158E+02  0.13859121042E+03  0.60498790174E+03  0.64492445326E+03  0.17008022660E+03 0.  0.
        -24    2    3    3    0    0  0.77499168547E+02  0.10914224933E+03  0.31913717323E+03  0.35536493900E+03  0.80731362051E+02 0.  0.
          6    2    1    2  501    0 -0.42218267158E+02 -0.13859121042E+03  0.35675873102E+03  0.42161568996E+03  0.17173552974E+03 0.  0.
         24    2    5    5    0    0 -0.29901559390E+02 -0.57418574007E+02  0.30705364921E+03  0.32552519433E+03  0.86566233357E+02 0.  0.
          5    1    5    5  501    0 -0.12316707768E+02 -0.81172636413E+02  0.49705081810E+02  0.96090495629E+02  0.47000000000E+01 0. -1.
        -13    1    6    6    0    0 -0.23759031708E+02  0.16875594813E+02  0.49926617716E+02  0.57809553229E+02  0.00000000000E+00 0.  1.
         14    1    6    6    0    0 -0.61425276826E+01 -0.74294168820E+02  0.25712703149E+03  0.26771564110E+03  0.00000000000E+00 0. -1.
         -5    1    3    3    0  503 -0.35280901388E+02  0.29448961088E+02  0.28585072850E+03  0.28955951426E+03  0.47000000000E+01 0.  1.
         13    1    4    4    0    0  0.18630091189E+02 -0.11277251027E+02  0.55252562539E+02  0.59389412824E+02  0.00000000000E+00 0. -1.
        -14    1    4    4    0    0  0.58869077357E+02  0.12041950036E+03  0.26388461069E+03  0.29597552618E+03  0.00000000000E+00 0.  1.
</event>
<event>
12    1  0.8251070E-002  0.3526181E+03  0.7818608E-02  0.1061666E+00
         21   -1    0    0  501  502  0.00000000000E+00  0.00000000000E+00  0.42953958844E+03  0.42953958844E+03  0.00000000000E+00 0.  1.
         21   -1    0    0  502  503 -0.00000000000E+00 -0.00000000000E+00 -0.31261640124E+03  0.31261640124E+03  0.00000000000E+00 0.  1.
         -6    2    1    2    0  503  0.54173285017E+02 -0.30327484761E+03 -0.44684315670E+02  0.35426872412E+03  0.16911316573E+03 0.  0.
        -24    2    3    3    0    0  0.90502061214E+02 -0.28710903491E+03 -0.42988120076E+02  0.31419278920E+03  0.79037391831E+02 0.  0.
          6    2    1    2  501    0 -0.54173285017E+02  0.30327484761E+03  0.16160750287E+03  0.38788726555E+03  0.17154931591E+03 0.  0.
         24    2    5    5    0    0 -0.71100457616E+02  0.13825945911E+03  0.13570838062E+03  0.21993053854E+03  0.76037649268E+02 0.  0.
          5    1    5    5  501    0  0.16927172599E+02  0.16501538850E+03  0.25899122248E+02  0.16795672701E+03  0.47000000000E+01 0. -1.
        -11    1    6    6    0    0 -0.61448817111E+02  0.14656922726E+03  0.11722741302E+03  0.19748610550E+03  0.00000000000E+00 0.  1.
         12    1    6    6    0    0 -0.96516405048E+01 -0.83097681459E+01  0.18480967600E+02  0.22444433041E+02  0.00000000000E+00 0. -1.
         -5    1    3    3    0  503 -0.36328776198E+02 -0.16165812696E+02 -0.16961955942E+01  0.40075934919E+02  0.47000000000E+01 0.  1.
         13    1    4    4    0    0  0.13674880743E+02 -0.14727691636E+02 -0.22905284842E+02  0.30472271625E+02  0.00000000000E+00 0. -1.
        -14    1    4    4    0    0  0.76827180471E+02 -0.27238134328E+03 -0.20082835234E+02  0.28372051758E+03  0.00000000000E+00 0.  1.
</event>
<event>
12    1  0.8251070E-002  0.1920314E+03  0.7818608E-02  0.1156782E+00
         21   -1    0    0  503  502  0.00000000000E+00  0.00000000000E+00  0.35983875374E+03  0.35983875374E+03  0.00000000000E+00 0. -1.
         21   -1    0    0  501  503 -0.00000000000E+00 -0.00000000000E+00 -0.12709447559E+03  0.12709447559E+03  0.00000000000E+00 0.  1.
          6    2    1    2  501    0 -0.61780769501E+01  0.82219209176E+02  0.86499356110E+01  0.19222611877E+03  0.17342979087E+03 0.  0.
         24    2    3    3    0    0  0.46497423839E+01  0.36318716861E+02  0.71739543277E+02  0.11331803641E+03  0.79710388336E+02 0.  0.
         -6    2    1    2    0  502  0.61780769501E+01 -0.82219209176E+02  0.22409434254E+03  0.29470711056E+03  0.17273054063E+03 0.  0.
        -24    2    5    5    0    0  0.15476372464E+02 -0.10101146837E+03  0.83899341383E+02  0.15287504206E+03  0.76738804753E+02 0.  0.
          5    1    3    3  501    0 -0.10827819334E+02  0.45900492315E+02 -0.63089607666E+02  0.78908082360E+02  0.47000000000E+01 0. -1.
        -11    1    4    4    0    0  0.27032493849E+02  0.51831657043E+02  0.59660621423E+02  0.83526439790E+02  0.00000000000E+00 0.  1.
         12    1    4    4    0    0 -0.22382751466E+02 -0.15512940182E+02  0.12078921854E+02  0.29791596624E+02  0.00000000000E+00 0. -1.
         -5    1    5    5    0  502 -0.92982955143E+01  0.18792259194E+02  0.14019500115E+03  0.14183206849E+03  0.47000000000E+01 0.  1.
         13    1    6    6    0    0  0.34189554553E+02 -0.30535744348E+02  0.61282136419E+02  0.76530108895E+02  0.00000000000E+00 0. -1.
        -14    1    6    6    0    0 -0.18713182089E+02 -0.70475724022E+02  0.22617204964E+02  0.76344933170E+02  0.00000000000E+00 0.  1.
</event>
<event>
12    1  0.8251070E-002  0.1733683E+03  0.7818608E-02  0.1174764E+00
         21   -1    0    0  501  502  0.00000000000E+00  0.00000000000E+00  0.32252851399E+03  0.32252851399E+03  0.00000000000E+00 0. -1.
         21   -1    0    0  502  503 -0.00000000000E+00 -0.00000000000E+00 -0.10315028770E+03  0.10315028770E+03  0.00000000000E+00 0. -1.
         -6    2    1    2    0  503 -0.26738445051E+00  0.24193401340E+01  0.41356876707E+02  0.17823286876E+03  0.17335120293E+03 0.  0.
        -24    2    3    3    0    0  0.25349572045E+01  0.62121300568E+02 -0.93615888066E+01  0.99704975998E+02  0.77381915856E+02 0.  0.
          6    2    1    2  501    0  0.26738445051E+00 -0.24193401340E+01  0.17802134959E+03  0.24744593292E+03  0.17184866630E+03 0.  0.
         24    2    5    5    0    0  0.59889498354E+02 -0.32059802882E+02  0.10807312560E+03  0.15075985566E+03  0.80213157440E+02 0.  0.
          5    1    5    5  501    0 -0.59622113904E+02  0.29640462748E+02  0.69948223985E+02  0.96686077265E+02  0.47000000000E+01 0. -1.
        -13    1    6    6    0    0  0.39618829166E+02  0.29659433838E+01  0.50199989215E+01  0.40045584448E+02  0.00000000000E+00 0.  1.
         14    1    6    6    0    0  0.20270669189E+02 -0.35025746266E+02  0.10305312668E+03  0.11071427121E+03  0.00000000000E+00 0. -1.
         -5    1    3    3    0  503 -0.28023416550E+01 -0.59701960434E+02  0.50718465513E+02  0.78527892767E+02  0.47000000000E+01 0.  1.
         13    1    4    4    0    0  0.21800947110E+02  0.17205095530E+02  0.27042413651E+02  0.38763239585E+02  0.00000000000E+00 0. -1.
        -14    1    4    4    0    0 -0.19265989906E+02  0.44916205038E+02 -0.36404002457E+02  0.60941736413E+02  0.00000000000E+00 0.  1.
</event>
<event>
12    1  0.8251070E-002  0.1894224E+03  0.7818608E-02  0.1159197E+00
         21   -1    0    0  501  502  0.00000000000E+00  0.00000000000E+00  0.11596197481E+03  0.11596197481E+03  0.00000000000E+00 0.  1.
         21   -1    0    0  502  503 -0.00000000000E+00 -0.00000000000E+00 -0.36819654432E+03  0.36819654432E+03  0.00000000000E+00 0.  1.
         -6    2    1    2    0  503  0.21868491321E+02 -0.75741762511E+02 -0.22435747361E+03  0.29362754630E+03  0.17223766859E+03 0.  0.
        -24    2    3    3    0    0  0.38495790639E+02 -0.29128542275E+02 -0.39068671131E+02  0.10178571117E+03  0.80644727432E+02 0.  0.
          6    2    1    2  501    0 -0.21868491321E+02  0.75741762511E+02 -0.27877095902E+02  0.19053097283E+03  0.17120126644E+03 0.  0.
         24    2    5    5    0    0 -0.49432955879E+02  0.44420862521E+02  0.39728004063E+02  0.11094870078E+03  0.79463637872E+02 0.  0.
          5    1    5    5  501    0  0.27564464559E+02  0.31320899990E+02 -0.67605099966E+02  0.79582272046E+02  0.47000000000E+01 0. -1.
        -11    1    6    6    0    0  0.10951490331E+02  0.41292168539E+02  0.21313283504E+02  0.47741327766E+02  0.00000000000E+00 0.  1.
         12    1    6    6    0    0 -0.60384446210E+02  0.31286939819E+01  0.18414720560E+02  0.63207373014E+02  0.00000000000E+00 0. -1.
         -5    1    3    3    0  503 -0.16627299318E+02 -0.46613220237E+02 -0.18528880248E+03  0.19184183513E+03  0.47000000000E+01 0.  1.
         13    1    4    4    0    0 -0.27274481125E+01  0.12766835890E+02 -0.40949321285E+02  0.42979971912E+02  0.00000000000E+00 0. -1.
        -14    1    4    4    0    0  0.41223238751E+02 -0.41895378164E+02  0.18806501541E+01  0.58805739258E+02  0.00000000000E+00 0.  1.
</event>
<event>
12    1  0.8251070E-002  0.2310925E+03  0.7818608E-02  0.1125921E+00
         21   -1    0    0  503  502  0.00000000000E+00  0.00000000000E+00  0.32541392243E+03  0.32541392243E+03  0.00000000000E+00 0.  1.
         21   -1    0    0  501  503 -0.00000000000E+00 -0.00000000000E+00 -0.16890298827E+03  0.16890298827E+03  0.00000000000E+00 0. -1.
          6    2    1    2  501    0 -0.12080925099E+03 -0.96014269650E+02  0.35824671823E+02  0.23385285380E+03  0.17201783343E+03 0.  0.
         24    2    3    3    0    0 -0.15164205486E+03 -0.98790673770E+02  0.21212650231E+02  0.19929896270E+03  0.80716726745E+02 0.  0.
         -6    2    1    2    0  502  0.12080925099E+03  0.96014269650E+02  0.12068626234E+03  0.26046405691E+03  0.17164712617E+03 0.  0.
        -24    2    5    5    0    0  0.10539796019E+03  0.31330540288E+02  0.18174541656E+02  0.13818472257E+03  0.81696822576E+02 0.  0.
          5    1    3    3  501    0  0.30832803878E+02  0.27764041200E+01  0.14612021592E+02  0.34553891095E+02  0.47000000000E+01 0. -1.
        -11    1    4    4    0    0 -0.11770862368E+03 -0.11053191927E+03  0.10425868132E+02  0.16180643990E+03  0.00000000000E+00 0.  1.
         12    1    4    4    0    0 -0.33933431180E+02  0.11741245504E+02  0.10786782099E+02  0.37492522797E+02  0.00000000000E+00 0. -1.
         -5    1    5    5    0  502  0.15411290795E+02  0.64683729362E+02  0.10251172069E+03  0.12227933434E+03  0.47000000000E+01 0.  1.
         11    1    6    6    0    0  0.45065388754E+02  0.52939885514E+02 -0.57914245136E+01  0.69764327129E+02  0.00000000000E+00 0. -1.
        -12    1    6    6    0    0  0.60332571438E+02 -0.21609345227E+02  0.23965966170E+02  0.68420395438E+02  0.00000000000E+00 0.  1.
</event>
<event>
12    1  0.8251070E-002  0.2187298E+03  0.7818608E-02  0.1134916E+00
         21   -1    0    0  501  502  0.00000000000E+00  0.00000000000E+00  0.19188613162E+03  0.19188613162E+03  0.00000000000E+00 0.  1.
         21   -1    0    0  502  503 -0.00000000000E+00 -0.00000000000E+00 -0.10129501388E+04  0.10129501388E+04  0.00000000000E+00 0. -1.
         -6    2    1    2    0  503  0.12213422346E+03  0.49935950272E+02 -0.93365196210E+03  0.95883059954E+03  0.17389584416E+03 0.  0.
        -24    2    3    3    0    0  0.57260333316E+02 -0.46989836137E+01 -0.23446229605E+03  0.25449979890E+03  0.80602438872E+02 0.  0.
          6    2    1    2  501    0 -0.12213422346E+03 -0.49935950272E+02  0.11258795494E+03  0.24600567085E+03  0.17444877421E+03 0.  0.
         24    2    5    5    0    0 -0.13032909028E+03 -0.87788778354E+02  0.74002913022E+02  0.19113411268E+03  0.79770148030E+02 0.  0.
          5    1    5    5  501    0  0.81948668203E+01  0.37852828081E+02  0.38585041920E+02  0.54871558169E+02  0.47000000000E+01 0. -1.
        -11    1    6    6    0    0 -0.62571377584E+02 -0.12889998531E+02  0.62684231996E+02  0.89502191570E+02  0.00000000000E+00 0.  1.
         12    1    6    6    0    0 -0.67757712698E+02 -0.74898779822E+02  0.11318681026E+02  0.10163192111E+03  0.00000000000E+00 0. -1.
         -5    1    3    3    0  503  0.64873890146E+02  0.54634933886E+02 -0.69918966605E+03  0.70433080064E+03  0.47000000000E+01 0.  1.
         13    1    4    4    0    0  0.32781017300E+02  0.34273954170E+02 -0.16074444865E+03  0.16759497845E+03  0.00000000000E+00 0. -1.
        -14    1    4    4    0    0  0.24479316015E+02 -0.38972937783E+02 -0.73717847397E+02  0.86904820446E+02  0.00000000000E+00 0.  1.
</event>
<event>
12    1  0.8251070E-002  0.1940266E+03  0.7818608E-02  0.1154897E+00
         21   -1    0    0  503  502  0.00000000000E+00  0.00000000000E+00  0.19014463452E+03  0.19014463452E+03  0.00000000000E+00 0.  1.
         21   -1    0    0  501  503 -0.00000000000E+00 -0.00000000000E+00 -0.24033263470E+03  0.24033263470E+03  0.00000000000E+00 0.  1.
          6    2    1    2  501    0  0.73369935532E+02  0.48854982448E+02 -0.11553412216E+03  0.22581955344E+03  0.17284785385E+03 0.  0.
         24    2    3    3    0    0  0.11650549157E+03  0.91460929072E+01 -0.63039536326E+02  0.14698273688E+03  0.63029843884E+02 0.  0.
         -6    2    1    2    0  502 -0.73369935532E+02 -0.48854982448E+02  0.65346121978E+02  0.20465771578E+03  0.17275621036E+03 0.  0.
        -24    2    5    5    0    0  0.25118639793E+02 -0.28934894243E+02  0.54390537338E+02  0.10347014629E+03  0.79243715533E+02 0.  0.
          5    1    3    3  501    0 -0.43135556034E+02  0.39708889541E+02 -0.52494585831E+02  0.78836816555E+02  0.47000000000E+01 0. -1.
        -11    1    4    4    0    0  0.96696905843E+02  0.25807603173E+02 -0.67500302394E+02  0.12071708580E+03  0.00000000000E+00 0.  1.
         12    1    4    4    0    0  0.19808585724E+02 -0.16661510266E+02  0.44607660673E+01  0.26265651079E+02  0.00000000000E+00 0. -1.
         -5    1    5    5    0  502 -0.98488575326E+02 -0.19920088206E+02  0.10955584641E+02  0.10118756949E+03  0.47000000000E+01 0.  1.
         11    1    6    6    0    0  0.21585839899E+02  0.23518267255E+02  0.35163793605E+02  0.47492628475E+02  0.00000000000E+00 0. -1.
        -12    1    6    6    0    0  0.35327998940E+01 -0.52453161497E+02  0.19226743733E+02  0.55977517815E+02  0.00000000000E+00 0.  1.
</event>
<event>
12    1  0.8251070E-002  0.2970024E+03  0.7818608E-02  0.1086762E+00
         21   -1    0    0  503  502  0.00000000000E+00  0.00000000000E+00  0.27139093484E+03  0.27139093484E+03  0.00000000000E+00 0. -1.
         21   -1    0    0  501  503 -0.00000000000E+00 -0.00000000000E+00 -0.42613900868E+03  0.42613900868E+03  0.00000000000E+00 0.  1.
          6    2    1    2  501    0  0.22002335622E+03  0.96920437801E+02 -0.24736713437E+03  0.38652418660E+03  0.17437488096E+03 0.  0.
         24    2    3    3    0    0  0.18474293934E+03  0.81690199376E+02 -0.26608443759E+03  0.34352307710E+03  0.80024585382E+02 0.  0.
         -6    2    1    2    0  502 -0.22002335622E+03 -0.96920437801E+02  0.92619060532E+02  0.31100575692E+03  0.17419082041E+03 0.  0.
        -24    2    5    5    0    0 -0.81298901455E+02 -0.10013976935E+03  0.79441361743E+02  0.17154042004E+03  0.80484165944E+02 0.  0.
          5    1    3    3  501    0  0.35280416882E+02  0.15230238425E+02  0.18717303217E+02  0.43001109492E+02  0.47000000000E+01 0. -1.
        -11    1    4    4    0    0  0.18713910019E+03  0.88581743053E+02 -0.26476659524E+03  0.33610878890E+03  0.00000000000E+00 0.  1.
         12    1    4    4    0    0 -0.23961608496E+01 -0.68915436773E+01 -0.13178423483E+01  0.74142882010E+01  0.00000000000E+00 0. -1.
         -5    1    5    5    0  502 -0.13872445477E+03  0.32193315489E+01  0.13177698789E+02  0.13946533688E+03  0.47000000000E+01 0.  1.
         13    1    6    6    0    0 -0.82528699795E+02 -0.11089954007E+03  0.63152721567E+02  0.15198013199E+03  0.00000000000E+00 0. -1.
        -14    1    6    6    0    0  0.12297983407E+01  0.10759770718E+02  0.16288640175E+02  0.19560288051E+02  0.00000000000E+00 0.  1.
</event>
<event>
12    1  0.8251070E-002  0.1906652E+03  0.7818608E-02  0.1158384E+00
         21   -1    0    0  501  502  0.00000000000E+00  0.00000000000E+00  0.25384132453E+03  0.25384132453E+03  0.00000000000E+00 0. -1.
         21   -1    0    0  502  503 -0.00000000000E+00 -0.00000000000E+00 -0.14642696638E+03  0.14642696638E+03  0.00000000000E+00 0. -1.
         -6    2    1    2    0  503 -0.34511990696E+02  0.68255249296E+02  0.17256712386E+02  0.19144455250E+03  0.17465212854E+03 0.  0.
        -24    2    3    3    0    0 -0.70077466255E+02  0.25592041003E+02 -0.35964412699E+02  0.11437555388E+03  0.78882979818E+02 0.  0.
          6    2    1    2  501    0  0.34511990696E+02 -0.68255249296E+02  0.90157645763E+02  0.20882373841E+03  0.17213104332E+03 0.  0.
         24    2    5    5    0    0 -0.37548879206E+02 -0.53574721280E+02  0.95901647863E+01  0.99638135582E+02  0.74536016205E+02 0.  0.
          5    1    5    5  501    0  0.72060869902E+02 -0.14680528016E+02  0.80567480977E+02  0.10918560283E+03  0.47000000000E+01 0. -1.
        -13    1    6    6    0    0 -0.29787748880E+02 -0.52357251783E+01  0.33517505763E+02  0.45145830306E+02  0.00000000000E+00 0.  1.
         14    1    6    6    0    0 -0.77611303262E+01 -0.48338996102E+02 -0.23927340976E+02  0.54492305276E+02  0.00000000000E+00 0. -1.
         -5    1    3    3    0  503  0.35565475559E+02  0.42663208293E+02  0.53221125085E+02  0.77068998624E+02  0.47000000000E+01 0.  1.
         11    1    4    4    0    0 -0.12471959710E+02  0.33918185537E+02 -0.42520802459E+02  0.55803330822E+02  0.00000000000E+00 0. -1.
        -12    1    4    4    0    0 -0.57605506546E+02 -0.83261445336E+01  0.65563897596E+01  0.58572223057E+02  0.00000000000E+00 0.  1.
</event>
<event>
12    1  0.8251070E-002  0.2203870E+03  0.7818608E-02  0.1133728E+00
         21   -1    0    0  503  502  0.00000000000E+00  0.00000000000E+00  0.76856485958E+03  0.76856485958E+03  0.00000000000E+00 0. -1.
         21   -1    0    0  501  503 -0.00000000000E+00 -0.00000000000E+00 -0.72992907614E+02  0.72992907614E+02  0.00000000000E+00 0.  1.
          6    2    1    2  501    0 -0.59956426822E+02 -0.12408333560E+03  0.19251825957E+03  0.29263237826E+03  0.17198540997E+03 0.  0.
         24    2    3    3    0    0 -0.98441109681E+01 -0.14437240021E+03  0.13279619951E+03  0.21193724333E+03  0.79638357863E+02 0.  0.
         -6    2    1    2    0  502  0.59956426822E+02  0.12408333560E+03  0.50305369240E+03  0.54892538894E+03  0.17106904424E+03 0.  0.
        -24    2    5    5    0    0 -0.33682387090E+00  0.42619162110E+02  0.37456129521E+03  0.38520589170E+03  0.79189069329E+02 0.  0.
          5    1    3    3  501    0 -0.50112315854E+02  0.20289064605E+02  0.59722060064E+02  0.80695134929E+02  0.47000000000E+01 0. -1.
        -13    1    4    4    0    0  0.27092575019E+02 -0.11446409361E+03  0.96087677890E+02  0.15188442379E+03  0.00000000000E+00 0.  1.
         14    1    4    4    0    0 -0.36936685987E+02 -0.29908306597E+02  0.36708521617E+02  0.60052819538E+02  0.00000000000E+00 0. -1.
         -5    1    5    5    0  502  0.60293250693E+02  0.81464173493E+02  0.12849239718E+03  0.16371949724E+03  0.47000000000E+01 0.  1.
         13    1    6    6    0    0 -0.39733018280E+02  0.21030466142E+02  0.19383090808E+03  0.19897591356E+03  0.00000000000E+00 0. -1.
        -14    1    6    6    0    0  0.39396194410E+02  0.21588695967E+02  0.18073038713E+03  0.18622997815E+03  0.00000000000E+00 0.  1.
</event>
<event>
12    1  0.8251070E-002  0.2255800E+03  0.7818608E-02  0.1130734E+00
         21   -1    0    0  501  502  0.00000000000E+00  0.00000000000E+00  0.22099092833E+03  0.22099092833E+03  0.00000000000E+00 0. -1.
         21   -1    0    0  502  503 -0.00000000000E+00 -0.00000000000E+00 -0.74153643753E+03  0.74153643753E+03  0.00000000000E+00 0. -1.
         -6    2    1    2    0  503 -0.40826477040E+02  0.13149458884E+03 -0.66100953896E+03  0.69678977741E+03  0.17211843361E+03 0.  0.
        -24    2    3    3    0    0  0.18281725934E+02  0.13320697203E+03 -0.53204385544E+03  0.55483573752E+03  0.81815112424E+02 0.  0.
          6    2    1    2  501    0  0.40826477040E+02 -0.13149458884E+03  0.14046402976E+03  0.26573758844E+03  0.17868602109E+03 0.  0.
         24    2    5    5    0    0  0.97153750904E+02 -0.74950799910E+02  0.80998107185E+02  0.16609699534E+03  0.77272535678E+02 0.  0.
          5    1    5    5  501    0 -0.56327273864E+02 -0.56543788934E+02  0.59465922571E+02  0.99640593109E+02  0.47000000000E+01 0. -1.
        -11    1    6    6    0    0  0.22194246580E+01 -0.35024848634E+02  0.35865658175E-01  0.35095115814E+02  0.00000000000E+00 0.  1.
         12    1    6    6    0    0  0.94934326246E+02 -0.39925951276E+02  0.80962241527E+02  0.13100187952E+03  0.00000000000E+00 0. -1.
         -5    1    3    3    0  503 -0.59108202974E+02 -0.17123831861E+01 -0.12896568351E+03  0.14195403988E+03  0.47000000000E+01 0.  1.
         13    1    4    4    0    0 -0.22514658020E+02  0.10577583858E+03 -0.35722133814E+03  0.37323253111E+03  0.00000000000E+00 0. -1.
        -14    1    4    4    0    0  0.40796383954E+02  0.27431133450E+02 -0.17482251730E+03  0.18160320642E+03  0.00000000000E+00 0.  1.
</event>
<event>
12    1  0.8251070E-002  0.2301965E+03  0.7818608E-02  0.1126526E+00
         21   -1    0    0  503  502  0.00000000000E+00  0.00000000000E+00  0.24828496981E+03  0.24828496981E+03  0.00000000000E+00 0.  1.
         21   -1    0    0  501  503 -0.00000000000E+00 -0.00000000000E+00 -0.25701575631E+03  0.25701575631E+03  0.00000000000E+00 0.  1.
          6    2    1    2  501    0 -0.12798166952E+03 -0.83930339728E+02 -0.10857049088E+03  0.25451518142E+03  0.17195004050E+03 0.  0.
         24    2    3    3    0    0 -0.11730080009E+03 -0.94352550090E+01 -0.10921810007E+03  0.17910889510E+03  0.79390812965E+02 0.  0.
         -6    2    1    2    0  502  0.12798166952E+03  0.83930339728E+02  0.99839704368E+02  0.25078554470E+03  0.17176091873E+03 0.  0.
        -24    2    5    5    0    0 -0.45750021211E+01  0.49767192628E+02  0.39499380189E+02  0.10111445017E+03  0.78525326431E+02 0.  0.
          5    1    3    3  501    0 -0.10680869427E+02 -0.74495084719E+02  0.64760919701E+00  0.75406286321E+02  0.47000000000E+01 0. -1.
        -11    1    4    4    0    0 -0.62971458935E+02 -0.25859168657E+02 -0.15932986724E+02  0.69913956475E+02  0.00000000000E+00 0.  1.
         12    1    4    4    0    0 -0.54329341154E+02  0.16423913648E+02 -0.93285113348E+02  0.10919493863E+03  0.00000000000E+00 0. -1.
         -5    1    5    5    0  502  0.13255667164E+03  0.34163147100E+02  0.60340324179E+02  0.14967109453E+03  0.47000000000E+01 0.  1.
         13    1    6    6    0    0 -0.42334800189E+01  0.62266494820E+02  0.29439530142E+01  0.62479641401E+02  0.00000000000E+00 0. -1.
        -14    1    6    6    0    0 -0.34152210223E+00 -0.12499302192E+02  0.36555427174E+02  0.38634808768E+02  0.00000000000E+00 0.  1.
</event>
<event>
12    1  0.8251070E-002  0.1927389E+03  0.7818608E-02  0.1156162E+00
         21   -1    0    0  503  502  0.00000000000E+00  0.00000000000E+00  0.20418198344E+03  0.20418198344E+03  0.00000000000E+00 0.  1.
         21   -1    0    0  501  503 -0.00000000000E+00 -0.00000000000E+00 -0.18365591148E+03  0.18365591148E+03  0.00000000000E+00 0. -1.
          6    2    1    2  501    0  0.72671000231E+02 -0.42404055776E+02  0.32202989744E+02  0.19541062269E+03  0.17340444253E+03 0.  0.
         24    2    3    3    0    0  0.64790178007E+02  0.49713818667E+01  0.77906449199E+02  0.12894683061E+03  0.79595153710E+02 0.  0.
         -6    2    1    2    0  502 -0.72671000231E+02  0.42404055776E+02 -0.11676917788E+02  0.19242727224E+03  0.17266362232E+03 0.  0.
        -24    2    5    5    0    0 -0.31614658703E+02  0.83305994935E+02  0.26990165371E+02  0.12260016342E+03  0.79768136532E+02 0.  0.
          5    1    3    3  501    0  0.78808222242E+01 -0.47375437643E+02 -0.45703459455E+02  0.66463792075E+02  0.47000000000E+01 0. -1.
        -11    1    4    4    0    0  0.20014758811E+02  0.40635311704E+02  0.30326799656E+02  0.54511777671E+02  0.00000000000E+00 0.  1.
         12    1    4    4    0    0  0.44775419196E+02 -0.35663929837E+02  0.47579649543E+02  0.74435052940E+02  0.00000000000E+00 0. -1.
         -5    1    5    5    0  502 -0.41056341528E+02 -0.40901939159E+02 -0.38667083159E+02  0.69827108824E+02  0.47000000000E+01 0.  1.
         13    1    6    6    0    0  0.62126061246E+01  0.56780531766E+02 -0.16182418150E+02  0.59367465161E+02  0.00000000000E+00 0. -1.
        -14    1    6    6    0    0 -0.37827264828E+02  0.26525463169E+02  0.43172583521E+02  0.63232698255E+02  0.00000000000E+00 0.  1.
</event>
<event>
12    1  0.8251070E-002  0.2503184E+03  0.7818608E-02  0.1113121E+00
         21   -1    0    0  501  502  0.00000000000E+00  0.00000000000E+00  0.32369199727E+03  0.32369199727E+03  0.00000000000E+00 0. -1.
         21   -1    0    0  502  503 -0.00000000000E+00 -0.00000000000E+00 -0.25656174190E+03  0.25656174190E+03  0.00000000000E+00 0.  1.
         -6    2    1    2    0  503 -0.67333258346E+02  0.16900027551E+03 -0.11027460082E+03  0.27353209440E+03  0.17194318328E+03 0.  0.
        -24    2    3    3    0    0 -0.23117915536E+02  0.11397045619E+03  0.14598442850E+01  0.14128250545E+03  0.80217905092E+02 0.  0.
          6    2    1    2  501    0  0.67333258346E+02 -0.16900027551E+03  0.17740485619E+03  0.30672164477E+03  0.17178714610E+03 0.  0.
         24    2    5    5    0    0 -0.67529971726E+01 -0.12267517538E+03  0.53510301227E+02  0.15504191999E+03  0.77973347948E+02 0.  0.
          5    1    5    5  501    0  0.74086255519E+02 -0.46325100129E+02  0.12389455497E+03  0.15167972478E+03  0.47000000000E+01 0. -1.
        -11    1    6    6    0    0 -0.31384206106E+02 -0.21530599588E+02  0.14485352655E+00  0.38059901394E+02  0.00000000000E+00 0.  1.
         12    1    6    6    0    0  0.24631208934E+02 -0.10114457579E+03  0.53365447701E+02  0.11698201860E+03  0.00000000000E+00 0. -1.
         -5    1    3    3    0  503 -0.44215342810E+02  0.55029819321E+02 -0.11173444511E+03  0.13224958895E+03  0.47000000000E+01 0.  1.
         11    1    4    4    0    0  0.27984242792E+02  0.21717532776E+02  0.49313936189E+01  0.35764335833E+02  0.00000000000E+00 0. -1.
        -12    1    4    4    0    0 -0.51102158328E+02  0.92252923414E+02 -0.34715493339E+01  0.10551816962E+03  0.00000000000E+00 0.  1.
</event>
<event>
12    1  0.8251070E-002  0.1787821E+03  0.7818608E-02  0.1170572E+00
         21   -1    0    0  503  502  0.00000000000E+00  0.00000000000E+00  0.10669594293E+03  0.10669594293E+03  0.00000000000E+00 0.  1.
         21   -1    0    0  501  503 -0.00000000000E+00 -0.00000000000E+00 -0.61812513086E+03  0.61812513086E+03  0.00000000000E+00 0.  1.
          6    2    1    2  501    0 -0.49166555386E+02  0.56850071421E+01 -0.52231410773E+03  0.55206437714E+03  0.17179458634E+03 0.  0.
         24    2    3    3    0    0  0.11131407760E+01  0.12872174672E+02 -0.47553891742E+03  0.48285663442E+03  0.82742585531E+02 0.  0.
         -6    2    1    2    0  502  0.49166555386E+02 -0.56850071421E+01  0.10884919798E+02  0.17275669665E+03  0.16515666891E+03 0.  0.
        -24    2    5    5    0    0  0.39434159326E+02 -0.23220788446E+02  0.66485873064E+02  0.11346269052E+03  0.79744296881E+02 0.  0.
          5    1    3    3  501    0 -0.50279696162E+02 -0.71871675301E+01 -0.46775190307E+02  0.69207742714E+02  0.47000000000E+01 0. -1.
        -11    1    4    4    0    0  0.12298843321E+02 -0.27509439077E+02 -0.87122408393E+02  0.92186467714E+02  0.00000000000E+00 0.  1.
         12    1    4    4    0    0 -0.11185702544E+02  0.40381613749E+02 -0.38841650903E+03  0.39067016671E+03  0.00000000000E+00 0. -1.
         -5    1    5    5    0  502  0.97323960600E+01  0.17535781303E+02 -0.55600953266E+02  0.59294006131E+02  0.47000000000E+01 0.  1.
         11    1    6    6    0    0 -0.82056898644E+01 -0.30456130300E+02  0.23695945899E+00  0.31543071645E+02  0.00000000000E+00 0. -1.
        -12    1    6    6    0    0  0.47639849190E+02  0.72353418548E+01  0.66248913605E+02  0.81919618874E+02  0.00000000000E+00 0.  1.
</event>
<event>
12    1  0.8251070E-002  0.2319780E+03  0.7818608E-02  0.1125393E+00
         21   -1    0    0  501  502  0.00000000000E+00  0.00000000000E+00  0.11159337848E+03  0.11159337848E+03  0.00000000000E+00 0. -1.
         21   -1    0    0  502  503 -0.00000000000E+00 -0.00000000000E+00 -0.17098445848E+04  0.17098445848E+04  0.00000000000E+00 0. -1.
         -6    2    1    2    0  503 -0.11911516427E+03  0.10043169253E+03 -0.15717047164E+04  0.15887320416E+04  0.17186866256E+03 0.  0.
        -24    2    3    3    0    0 -0.14669219596E+03  0.10138111373E+03 -0.11460966666E+04  0.11622045558E+04  0.73383443227E+02 0.  0.
          6    2    1    2  501    0  0.11911516427E+03 -0.10043169253E+03 -0.26546489899E+02  0.23270592168E+03  0.17079924658E+03 0.  0.
         24    2    5    5    0    0  0.10349519109E+03 -0.10906203222E+03  0.31709433784E+02  0.17159692914E+03  0.76382173636E+02 0.  0.
          5    1    5    5  501    0  0.15619973186E+02  0.86303396832E+01 -0.58255923682E+02  0.61108992542E+02  0.47000000000E+01 0. -1.
        -13    1    6    6    0    0  0.52444396941E+02 -0.77539688305E+02 -0.15967355527E+02  0.94961963309E+02  0.00000000000E+00 0.  1.
         14    1    6    6    0    0  0.51050794144E+02 -0.31522343910E+02  0.47676789311E+02  0.76634965827E+02  0.00000000000E+00 0. -1.
         -5    1    3    3    0  503  0.27577031691E+02 -0.94942119671E+00 -0.42560804987E+03  0.42652748586E+03  0.47000000000E+01 0.  1.
         11    1    4    4    0    0 -0.91719981903E+02  0.64601307649E+02 -0.91426582631E+03  0.92112316505E+03  0.00000000000E+00 0. -1.
        -12    1    4    4    0    0 -0.54972214058E+02  0.36779806080E+02 -0.23183084024E+03  0.24108139070E+03  0.00000000000E+00 0.  1.
</event>
<event>
12    1  0.8251070E-002  0.2004510E+03  0.7818608E-02  0.1151542E+00
         21   -1    0    0  501  502  0.00000000000E+00  0.00000000000E+00  0.54991537941E+03  0.54991537941E+03  0.00000000000E+00 0.  1.
         21   -1    0    0  502  503 -0.00000000000E+00 -0.00000000000E+00 -0.69782128557E+02  0.69782128557E+02  0.00000000000E+00 0.  1.
         -6    2    1    2    0  503  0.76570725244E+02 -0.26357519567E+02  0.26812409047E+03  0.33477024908E+03  0.18336520111E+03 0.  0.
        -24    2    3    3    0    0  0.31879282778E+02 -0.87851130087E+02  0.17259766166E+03  0.21259751167E+03  0.81692346227E+02 0.  0.
          6    2    1    2  501    0 -0.76570725244E+02  0.26357519567E+02  0.21200916038E+03  0.28492725889E+03  0.17227264428E+03 0.  0.
         24    2    5    5    0    0 -0.78141124738E+02  0.67315150214E+02  0.20510242937E+03  0.24309680830E+03  0.79948025930E+02 0.  0.
          5    1    5    5  501    0  0.15703994935E+01 -0.40957630647E+02  0.69067310183E+01  0.41830450585E+02  0.47000000000E+01 0. -1.
        -11    1    6    6    0    0 -0.73577845426E+02  0.11828872057E+02  0.10919035722E+03  0.13219741170E+03  0.00000000000E+00 0.  1.
         12    1    6    6    0    0 -0.45632793118E+01  0.55486278157E+02  0.95912072148E+02  0.11089939660E+03  0.00000000000E+00 0. -1.
         -5    1    3    3    0  503  0.44691442467E+02  0.61493610520E+02  0.95526428809E+02  0.12217273741E+03  0.47000000000E+01 0.  1.
         11    1    4    4    0    0  0.33002887849E+02  0.23697339130E+01  0.57610451837E+02  0.66436213062E+02  0.00000000000E+00 0. -1.
        -12    1    4    4    0    0 -0.11236050718E+01 -0.90220864000E+02  0.11498720982E+03  0.14616129861E+03  0.00000000000E+00 0.  1.
</event>
<event>
12    1  0.8251070E-002  0.2076841E+03  0.7818608E-02  0.1143617E+00
         21   -1    0    0  503  502  0.00000000000E+00  0.00000000000E+00  0.23383219330E+02  0.23383219330E+02  0.00000000000E+00 0. -1.
         21   -1    0    0  501  503 -0.00000000000E+00 -0.00000000000E+00 -0.19126964237E+04  0.19126964237E+04  0.00000000000E+00 0. -1.
          6    2    1    2  501    0  0.59492353635E+02  0.99464299899E+02 -0.74810931837E+03  0.77613179720E+03  0.17111553788E+03 0.  0.
         24    2    3    3    0    0 -0.12003189187E+02  0.15882077904E+01 -0.37667316100E+03  0.38539115298E+03  0.80604414389E+02 0.  0.
         -6    2    1    2    0  502 -0.59492353635E+02 -0.99464299899E+02 -0.11412038860E+04  0.11599478458E+04  0.17233748437E+03 0.  0.
        -24    2    5    5    0    0 -0.33062321007E+02 -0.12881374928E+03 -0.10332019036E+04  0.10448546010E+04  0.80801389508E+02 0.  0.
          5    1    3    3  501    0  0.71495542823E+02  0.97876092109E+02 -0.37143615736E+03  0.39074064422E+03  0.47000000000E+01 0. -1.
        -11    1    4    4    0    0 -0.94410940749E+01  0.31360528784E+02 -0.70192079376E+02  0.77456730050E+02  0.00000000000E+00 0.  1.
         12    1    4    4    0    0 -0.25620951124E+01 -0.29772320993E+02 -0.30648108163E+03  0.30793442293E+03  0.00000000000E+00 0. -1.
         -5    1    5    5    0  502 -0.26430032629E+02  0.29349449377E+02 -0.10800198242E+03  0.11509324485E+03  0.47000000000E+01 0.  1.
         13    1    6    6    0    0 -0.56432351738E+02 -0.61345586180E+02 -0.50148802466E+03  0.50836810496E+03  0.00000000000E+00 0. -1.
        -14    1    6    6    0    0  0.23370030731E+02 -0.67468163097E+02 -0.53171387892E+03  0.53648649601E+03  0.00000000000E+00 0.  1.
</event>
<event>
12    1  0.8251070E-002  0.2106672E+03  0.7818608E-02  0.1141041E+00
         21   -1    0    0  503  502  0.00000000000E+00  0.00000000000E+00  0.14947503509E+03  0.14947503509E+03  0.00000000000E+00 0. -1.
         21   -1    0    0  501  503 -0.00000000000E+00 -0.00000000000E+00 -0.65319667176E+03  0.65319667176E+03  0.00000000000E+00 0.  1.
          6    2    1    2  501    0 -0.59941981638E+02  0.10728494812E+03 -0.54826884770E+03  0.58734606450E+03  0.17109520410E+03 0.  0.
         24    2    3    3    0    0 -0.26315868231E+02  0.12883475911E+03 -0.50736554832E+03  0.52998510429E+03  0.78571566523E+02 0.  0.
         -6    2    1    2    0  502  0.59941981638E+02 -0.10728494812E+03  0.44547211035E+02  0.21532564235E+03  0.17110691683E+03 0.  0.
        -24    2    5    5    0    0  0.60058607772E+02 -0.14438744596E+03  0.34690919740E+02  0.17664948141E+03  0.74476898777E+02 0.  0.
          5    1    3    3  501    0 -0.33626113406E+02 -0.21549810988E+02 -0.40903299383E+02  0.57360960216E+02  0.47000000000E+01 0.  1.
        -13    1    4    4    0    0 -0.46764237388E+02  0.47523516345E+02 -0.27464144571E+03  0.28261865156E+03  0.00000000000E+00 0.  1.
         14    1    4    4    0    0  0.20448369156E+02  0.81311242765E+02 -0.23272410261E+03  0.24736645273E+03  0.00000000000E+00 0. -1.
         -5    1    5    5    0  502 -0.11662613363E+00  0.37102497837E+02  0.98562912950E+01  0.38676160945E+02  0.47000000000E+01 0.  1.
         13    1    6    6    0    0  0.12770713653E+02 -0.20972907002E+02  0.37069004820E+02  0.44464199910E+02  0.00000000000E+00 0. -1.
        -14    1    6    6    0    0  0.47287894118E+02 -0.12341453896E+03 -0.23780850799E+01  0.13218528150E+03  0.00000000000E+00 0.  1.
</event>
<event>
12    1  0.8251070E-002  0.2101410E+03  0.7818608E-02  0.1141474E+00
         21   -1    0    0  501  502  0.00000000000E+00  0.00000000000E+00  0.26469295981E+03  0.26469295981E+03  0.00000000000E+00 0.  1.
         21   -1    0    0  502  503 -0.00000000000E+00 -0.00000000000E+00 -0.17420611341E+03  0.17420611341E+03  0.00000000000E+00 0.  1.
         -6    2    1    2    0  503 -0.11636416503E+03 -0.18459709882E+02  0.90644402594E+02  0.22885727631E+03  0.17400536028E+03 0.  0.
        -24    2    3    3    0    0 -0.93404824489E+01 -0.91897462379E+01 -0.27567053916E+02  0.69057278469E+02  0.61945695570E+02 0.  0.
          6    2    1    2  501    0  0.11636416503E+03  0.18459709882E+02 -0.15755619414E+00  0.21004179691E+03  0.17388545606E+03 0.  0.
         24    2    5    5    0    0  0.94006392911E+02  0.40484700962E+02 -0.57187169450E+02  0.14477743454E+03  0.84934800189E+02 0.  0.
          5    1    5    5  501    0  0.22357772123E+02 -0.22024991081E+02  0.57029613256E+02  0.65264362362E+02  0.47000000000E+01 0. -1.
        -11    1    6    6    0    0  0.83271660370E+02  0.14224898814E+02 -0.40901188965E+01  0.84576865866E+02  0.00000000000E+00 0.  1.
         12    1    6    6    0    0  0.10734732540E+02  0.26259802148E+02 -0.53097050554E+02  0.60200568678E+02  0.00000000000E+00 0. -1.
         -5    1    3    3    0  503 -0.10702368258E+03 -0.92699636437E+01  0.11821145651E+03  0.15979999784E+03  0.47000000000E+01 0.  1.
         13    1    4    4    0    0 -0.24146960794E+02 -0.28422138171E+02 -0.86507671358E+01  0.38284845904E+02  0.00000000000E+00 0. -1.
        -14    1    4    4    0    0  0.14806478345E+02  0.19232391933E+02 -0.18916286780E+02  0.30772432566E+02  0.00000000000E+00 0.  1.
</event>
<event>
12    1  0.8251070E-002  0.2024962E+03  0.7818608E-02  0.1148133E+00
         21   -1    0    0  503  502  0.00000000000E+00  0.00000000000E+00  0.92768785202E+02  0.92768785202E+02  0.00000000000E+00 0.  1.
         21   -1    0    0  501  503 -0.00000000000E+00 -0.00000000000E+00 -0.83992592665E+03  0.83992592665E+03  0.00000000000E+00 0. -1.
          6    2    1    2  501    0  0.82442217625E+02 -0.60588743146E+02 -0.69769978775E+03  0.72649137566E+03  0.17474841926E+03 0.  0.
         24    2    3    3    0    0  0.14814984661E+02 -0.88280098641E+02 -0.55255503416E+03  0.56392033488E+03  0.68382883234E+02 0.  0.
         -6    2    1    2    0  502 -0.82442217625E+02  0.60588743146E+02 -0.49457353688E+02  0.20620333619E+03  0.17206414786E+03 0.  0.
        -24    2    5    5    0    0 -0.12477054362E+02 -0.51272022922E+01  0.23389521500E+02  0.85611185612E+02  0.81241862959E+02 0.  0.
          5    1    3    3  501    0  0.67627232964E+02  0.27691355495E+02 -0.14514475359E+03  0.16257104079E+03  0.47000000000E+01 0. -1.
        -11    1    4    4    0    0  0.97062230758E+01 -0.21380000660E+01 -0.85406057029E+01  0.13104341130E+02  0.00000000000E+00 0.  1.
         12    1    4    4    0    0  0.51087615849E+01 -0.86142098575E+02 -0.54401442846E+03  0.55081599375E+03  0.00000000000E+00 0. -1.
         -5    1    5    5    0  502 -0.69965163263E+02  0.65715945438E+02 -0.72846875188E+02  0.12059215057E+03  0.47000000000E+01 0.  1.
         11    1    6    6    0    0  0.95511801655E+00 -0.39789925265E+02  0.27251454438E+02  0.48236834183E+02  0.00000000000E+00 0. -1.
        -12    1    6    6    0    0 -0.13432172378E+02  0.34662722973E+02 -0.38619329386E+01  0.37374351429E+02  0.00000000000E+00 0.  1.
</event>
<event>
12    1  0.8251070E-002  0.2117877E+03  0.7818608E-02  0.1140355E+00
         21   -1    0    0  503  502  0.00000000000E+00  0.00000000000E+00  0.73020125319E+02  0.73020125319E+02  0.00000000000E+00 0. -1.
         21   -1    0    0  501  503 -0.00000000000E+00 -0.00000000000E+00 -0.14374509450E+04  0.14374509450E+04  0.00000000000E+00 0. -1.
          6    2    1    2  501    0 -0.74314594139E+02 -0.96873689637E+02 -0.12554361983E+04  0.12731748084E+04  0.17305165162E+03 0.  0.
         24    2    3    3    0    0  0.17000593547E+00 -0.98463588749E+01 -0.78883850176E+03  0.79269878158E+03  0.77512558777E+02 0.  0.
         -6    2    1    2    0  502  0.74314594139E+02  0.96873689637E+02 -0.10899462137E+03  0.23729626190E+03  0.17182117965E+03 0.  0.
        -24    2    5    5    0    0  0.40640062943E+02  0.31098123786E+02  0.12456638472E+02  0.95053871480E+02  0.79128772404E+02 0.  0.
          5    1    3    3  501    0 -0.74484600075E+02 -0.87027330763E+02 -0.46659769654E+03  0.48047602684E+03  0.47000000000E+01 0. -1.
        -11    1    4    4    0    0  0.12781636208E+02  0.29156484829E+02 -0.20871997152E+03  0.21113383751E+03  0.00000000000E+00 0.  1.
         12    1    4    4    0    0 -0.12611630272E+02 -0.39002843704E+02 -0.58011853025E+03  0.58156494407E+03  0.00000000000E+00 0. -1.
         -5    1    5    5    0  502  0.33674531196E+02  0.65775565851E+02 -0.12145125984E+03  0.14224239042E+03  0.47000000000E+01 0.  1.
         11    1    6    6    0    0 -0.60011666467E+01  0.37068904417E+02  0.26522288132E+02  0.45973355800E+02  0.00000000000E+00 0. -1.
        -12    1    6    6    0    0  0.46641229590E+02 -0.59707806306E+01 -0.14065649660E+02  0.49080515679E+02  0.00000000000E+00 0.  1.
</event>
<event>
12    1  0.8251070E-002  0.2124316E+03  0.7818608E-02  0.1140550E+00
         21   -1    0    0  503  502  0.00000000000E+00  0.00000000000E+00  0.15913004117E+03  0.15913004117E+03  0.00000000000E+00 0.  1.
         21   -1    0    0  501  503 -0.00000000000E+00 -0.00000000000E+00 -0.44559864903E+03  0.44559864903E+03  0.00000000000E+00 0.  1.
          6    2    1    2  501    0  0.11005320195E+03 -0.46755186688E+02 -0.32986848686E+03  0.39235240816E+03  0.17558313933E+03 0.  0.
         24    2    3    3    0    0  0.14774868957E+03 -0.29137439440E+02 -0.27302945264E+03  0.32175424517E+03  0.79385430832E+02 0.  0.
         -6    2    1    2    0  502 -0.11005320195E+03  0.46755186688E+02  0.43399879004E+02  0.21237628205E+03  0.17006581354E+03 0.  0.
        -24    2    5    5    0    0 -0.57776188031E+02  0.20750430842E+02 -0.42467790981E+02  0.10843168017E+03  0.78646345814E+02 0.  0.
          5    1    3    3  501    0 -0.37695487625E+02 -0.17617747248E+02 -0.56839034228E+02  0.70598162988E+02  0.47000000000E+01 0. -1.
        -13    1    4    4    0    0  0.13460649674E+02  0.15075762130E+02 -0.79842035435E+02  0.82360295749E+02  0.00000000000E+00 0.  1.
         14    1    4    4    0    0  0.13428803990E+03 -0.44213201570E+02 -0.19318741720E+03  0.23939394942E+03  0.00000000000E+00 0. -1.
         -5    1    5    5    0  502 -0.52277013917E+02  0.26004755846E+02  0.85867669985E+02  0.10394460188E+03  0.47000000000E+01 0.  1.
         13    1    6    6    0    0  0.16238715246E+02  0.37824807839E+01 -0.25752275441E+02  0.30678701473E+02  0.00000000000E+00 0. -1.
        -14    1    6    6    0    0 -0.74014903277E+02  0.16967950058E+02 -0.16715515540E+02  0.77752978695E+02  0.00000000000E+00 0.  1.
</event>
<event>
12    1  0.8251070E-002  0.2433662E+03  0.7818608E-02  0.1117660E+00
         21   -1    0    0  503  502  0.00000000000E+00  0.00000000000E+00  0.55892893515E+03  0.55892893515E+03  0.00000000000E+00 0. -1.
         21   -1    0    0  501  503 -0.00000000000E+00 -0.00000000000E+00 -0.64612666333E+03  0.64612666333E+03  0.00000000000E+00 0.  1.
          6    2    1    2  501    0  0.17032693449E+03 -0.27406517715E+02 -0.59462116993E+03  0.64228953366E+03  0.17087752192E+03 0.  0.
         24    2    3    3    0    0  0.66067950173E+02  0.31274217235E+02 -0.39173424018E+03  0.40670820858E+03  0.81319132382E+02 0.  0.
         -6    2    1    2    0  502 -0.17032693449E+03  0.27406517715E+02  0.50742344175E+03  0.56276606482E+03  0.17165288418E+03 0.  0.
        -24    2    5    5    0    0 -0.17141616737E+03  0.55672079381E+02  0.49235893831E+03  0.53037536139E+03  0.79986354961E+02 0.  0.
          5    1    3    3  501    0  0.10425898432E+03 -0.58680734950E+02 -0.20288692975E+03  0.23558132508E+03  0.47000000000E+01 0. -1.
        -13    1    4    4    0    0  0.82384211043E+02  0.39161941113E+02 -0.32601197029E+03  0.33853304216E+03  0.00000000000E+00 0.  1.
         14    1    4    4    0    0 -0.16316260870E+02 -0.78877238785E+01 -0.65722269888E+02  0.68175166417E+02  0.00000000000E+00 0. -1.
         -5    1    5    5    0  502  0.10892328772E+01 -0.28265561666E+02  0.15064503441E+02  0.32390703427E+02  0.47000000000E+01 0.  1.
         13    1    6    6    0    0 -0.13764240860E+03  0.22116731676E+02  0.42926297162E+03  0.45133278329E+03  0.00000000000E+00 0. -1.
        -14    1    6    6    0    0 -0.33773758767E+02  0.33555347705E+02  0.63095966688E+02  0.79042578102E+02  0.00000000000E+00 0.  1.
</event>
<event>
12    1  0.8251070E-002  0.1947519E+03  0.7818608E-02  0.1154284E+00
         21   -1    0    0  503  502  0.00000000000E+00  0.00000000000E+00  0.17586631623E+02  0.17586631623E+02  0.00000000000E+00 0. -1.
         21   -1    0    0  501  503 -0.00000000000E+00 -0.00000000000E+00 -0.33968965294E+04  0.33968965294E+04  0.00000000000E+00 0.  1.
          6    2    1    2  501    0  0.61343694666E+02 -0.69207895572E+02 -0.27226044378E+04  0.27295609949E+04  0.17139287818E+03 0.  0.
         24    2    3    3    0    0  0.57768154310E+02  0.13085948390E+02 -0.19515229907E+04  0.19540780813E+04  0.80441052965E+02 0.  0.
         -6    2    1    2    0  502 -0.61343694666E+02  0.69207895572E+02 -0.65670545999E+03  0.68492216610E+03  0.17118274079E+03 0.  0.
        -24    2    5    5    0    0 -0.66569786390E+02  0.37032014162E+02 -0.64176157993E+03  0.64875575999E+03  0.56773269383E+02 0.  0.
          5    1    3    3  501    0  0.35755403556E+01 -0.82293843961E+02 -0.77108144713E+03  0.77548291365E+03  0.47000000000E+01 0. -1.
        -11    1    4    4    0    0  0.14736149543E+02  0.24525223715E+00 -0.15469849535E+04  0.15470551576E+04  0.00000000000E+00 0.  1.
         12    1    4    4    0    0  0.43032004768E+02  0.12840696152E+02 -0.40453803714E+03  0.40702292368E+03  0.00000000000E+00 0. -1.
         -5    1    5    5    0  502  0.52260917239E+01  0.32175881410E+02 -0.14943880061E+02  0.36166406104E+02  0.47000000000E+01 0.  1.
         13    1    6    6    0    0 -0.49376500162E+02  0.27562248708E+02 -0.24225880198E+03  0.24877106636E+03  0.00000000000E+00 0. -1.
        -14    1    6    6    0    0 -0.17193286228E+02  0.94697654534E+01 -0.39950277795E+03  0.39998469363E+03  0.00000000000E+00 0.  1.
</event>
<event>
12    1  0.8251070E-002  0.1872437E+03  0.7818608E-02  0.1161121E+00
         21   -1    0    0  503  502  0.00000000000E+00  0.00000000000E+00  0.71998318471E+03  0.71998318471E+03  0.00000000000E+00 0.  1.
         21   -1    0    0  501  503 -0.00000000000E+00 -0.00000000000E+00 -0.53392109190E+02  0.53392109190E+02  0.00000000000E+00 0.  1.
          6    2    1    2  501    0  0.42407931511E+02 -0.60085023566E+02  0.21603702665E+03  0.28546223558E+03  0.17148774985E+03 0.  0.
         24    2    3    3    0    0 -0.16420212172E+02  0.11324630743E+02  0.51808411639E+02  0.96906627857E+02  0.79428662187E+02 0.  0.
         -6    2    1    2    0  502 -0.42407931511E+02  0.60085023566E+02  0.45055404888E+03  0.48791305832E+03  0.17219627989E+03 0.  0.
        -24    2    5    5    0    0  0.24615517208E+02  0.52787220552E+02  0.36871101141E+03  0.38177271072E+03  0.80063589563E+02 0.  0.
          5    1    3    3  501    0  0.58828143683E+02 -0.71409654309E+02  0.16422861501E+03  0.18855560773E+03  0.47000000000E+01 0. -1.
        -11    1    4    4    0    0  0.28504873165E+02 -0.92651483114E+01  0.31490078344E+02  0.43474081951E+02  0.00000000000E+00 0.  1.
         12    1    4    4    0    0 -0.44925085337E+02  0.20589779054E+02  0.20318333295E+02  0.53432545905E+02  0.00000000000E+00 0. -1.
         -5    1    5    5    0  502 -0.67023448719E+02  0.72978030141E+01  0.81843037467E+02  0.10614034760E+03  0.47000000000E+01 0.  1.
         11    1    6    6    0    0  0.80797712480E+00 -0.19616990389E+02  0.43116037507E+02  0.47375857029E+02  0.00000000000E+00 0. -1.
        -12    1    6    6    0    0  0.23807540084E+02  0.72404210941E+02  0.32559497390E+03  0.33439685369E+03  0.00000000000E+00 0.  1.
</event>
<event>
12    1  0.8251070E-002  0.1874492E+03  0.7818608E-02  0.1161086E+00
         21   -1    0    0  503  502  0.00000000000E+00  0.00000000000E+00  0.20437624941E+03  0.20437624941E+03  0.00000000000E+00 0.  1.
         21   -1    0    0  501  503 -0.00000000000E+00 -0.00000000000E+00 -0.21565199739E+03  0.21565199739E+03  0.00000000000E+00 0.  1.
          6    2    1    2  501    0  0.50045648154E+02 -0.54984968058E+02 -0.10152006328E+03  0.21317486615E+03  0.17207349214E+03 0.  0.
         24    2    3    3    0    0 -0.12206286829E+02 -0.15836426041E+02 -0.11191910664E+03  0.13875617324E+03  0.79546234055E+02 0.  0.
         -6    2    1    2    0  502 -0.50045648154E+02  0.54984968058E+02  0.90244315304E+02  0.20685338065E+03  0.17063519868E+03 0.  0.
        -24    2    5    5    0    0  0.35012259963E+01 -0.10478225271E+02  0.91503646183E+02  0.12213990282E+03  0.80144786525E+02 0.  0.
          5    1    3    3  501    0  0.62251934982E+02 -0.39148542017E+02  0.10399043363E+02  0.74418692907E+02  0.47000000000E+01 0. -1.
        -13    1    4    4    0    0  0.86886592959E+01  0.34413767268E+01 -0.10985513198E+03  0.11025192014E+03  0.00000000000E+00 0.  1.
         14    1    4    4    0    0 -0.20894946125E+02 -0.19277802768E+02 -0.20639746682E+01  0.28504253096E+02  0.00000000000E+00 0. -1.
         -5    1    5    5    0  502 -0.53546874150E+02  0.65463193329E+02 -0.12593308787E+01  0.84713477832E+02  0.47000000000E+01 0.  1.
         13    1    6    6    0    0 -0.32366440097E+02 -0.23495372888E+02  0.62541250104E+02  0.74236291369E+02  0.00000000000E+00 0. -1.
        -14    1    6    6    0    0  0.35867666094E+02  0.13017147617E+02  0.28962396079E+02  0.47903611448E+02  0.00000000000E+00 0.  1.
</event>
<event>
12    1  0.8251070E-002  0.2741196E+03  0.7818608E-02  0.1098999E+00
         21   -1    0    0  503  502  0.00000000000E+00  0.00000000000E+00  0.17213730873E+03  0.17213730873E+03  0.00000000000E+00 0. -1.
         21   -1    0    0  501  503 -0.00000000000E+00 -0.00000000000E+00 -0.92684970251E+03  0.92684970251E+03  0.00000000000E+00 0.  1.
          6    2    1    2  501    0 -0.13077870388E+03  0.16825678277E+03 -0.77715241282E+03  0.82395047617E+03  0.17179959282E+03 0.  0.
         24    2    3    3    0    0 -0.31882248631E+02  0.14864621490E+03 -0.53331167605E+03  0.56004617886E+03  0.78218946909E+02 0.  0.
         -6    2    1    2    0  502  0.13077870388E+03 -0.16825678277E+03  0.22440019043E+02  0.27503653507E+03  0.17241846430E+03 0.  0.
        -24    2    5    5    0    0  0.14780135844E+03 -0.96209675442E+02  0.42128180428E+02  0.19828843971E+03  0.80261937007E+02 0.  0.
          5    1    3    3  501    0 -0.98896455251E+02  0.19610567863E+02 -0.24384073677E+03  0.26390429731E+03  0.47000000000E+01 0. -1.
        -13    1    4    4    0    0 -0.39565923115E+02  0.12502012818E+03 -0.32807167872E+03  0.35330796920E+03  0.00000000000E+00 0.  1.
         14    1    4    4    0    0  0.76836744838E+01  0.23626086726E+02 -0.20523999733E+03  0.20673820966E+03  0.00000000000E+00 0. -1.
         -5    1    5    5    0  502 -0.17022654555E+02 -0.72047107326E+02 -0.19688161385E+02  0.76748095356E+02  0.47000000000E+01 0.  1.
         13    1    6    6    0    0  0.10032633553E+03 -0.98643364466E+02  0.51516844213E+02  0.14983281414E+03  0.00000000000E+00 0. -1.
        -14    1    6    6    0    0  0.47475022904E+02  0.24336890242E+01 -0.93886637848E+01  0.48455625573E+02  0.00000000000E+00 0.  1.
</event>
<event>
12    1  0.8251070E-002  0.1864906E+03  0.7818608E-02  0.1161950E+00
         21   -1    0    0  501  502  0.00000000000E+00  0.00000000000E+00  0.10495622084E+04  0.10495622084E+04  0.00000000000E+00 0. -1.
         21   -1    0    0  502  503 -0.00000000000E+00 -0.00000000000E+00 -0.36067922019E+02  0.36067922019E+02  0.00000000000E+00 0. -1.
         -6    2    1    2    0  503  0.32976915533E+02  0.63014538318E+02  0.66867954058E+03  0.69419816251E+03  0.17239620601E+03 0.  0.
        -24    2    3    3    0    0 -0.23959293777E+02  0.36958988627E+02  0.56941321245E+03  0.57673958470E+03  0.80356253351E+02 0.  0.
          6    2    1    2  501    0 -0.32976915533E+02 -0.63014538318E+02  0.34481474583E+03  0.39143196793E+03  0.17106568207E+03 0.  0.
         24    2    5    5    0    0 -0.56825841303E+02 -0.96009357326E+02  0.30352369440E+03  0.33325576774E+03  0.80534469213E+02 0.  0.
          5    1    5    5  501    0  0.23848925770E+02  0.32994819008E+02  0.41291051423E+02  0.58176200197E+02  0.47000000000E+01 0. -1.
        -11    1    6    6    0    0 -0.87136350785E+00 -0.27168408047E+01  0.11912635718E+03  0.11916051978E+03  0.00000000000E+00 0.  1.
         12    1    6    6    0    0 -0.55954477795E+02 -0.93292516521E+02  0.18439733722E+03  0.21409524796E+03  0.00000000000E+00 0. -1.
         -5    1    3    3    0  503  0.56936209310E+02  0.26055549691E+02  0.99266328131E+02  0.11745857781E+03  0.47000000000E+01 0.  1.
         13    1    4    4    0    0 -0.23445071725E+02 -0.20138753647E+02  0.28354511184E+03  0.28522459788E+03  0.00000000000E+00 0. -1.
        -14    1    4    4    0    0 -0.51422205255E+00  0.57097742275E+02  0.28586810061E+03  0.29151498683E+03  0.00000000000E+00 0.  1.
</event>
<event>
12    1  0.8251070E-002  0.2202619E+03  0.7818608E-02  0.1133959E+00
         21   -1    0    0  501  502  0.00000000000E+00  0.00000000000E+00  0.22314854076E+03  0.22314854076E+03  0.00000000000E+00 0. -1.
         21   -1    0    0  502  503 -0.00000000000E+00 -0.00000000000E+00 -0.23430210326E+03  0.23430210326E+03  0.00000000000E+00 0. -1.
         -6    2    1    2    0  503 -0.10501145890E+03 -0.85385266656E+02 -0.69520131988E+02  0.22958669712E+03  0.17192717202E+03 0.  0.
        -24    2    3    3    0    0 -0.14160019687E+03 -0.75785951819E+02 -0.59981805583E+02  0.19029353916E+03  0.82581401048E+02 0.  0.
          6    2    1    2  501    0  0.10501145890E+03  0.85385266656E+02  0.58366569487E+02  0.22786394691E+03  0.17377362172E+03 0.  0.
         24    2    5    5    0    0  0.58724742675E+02  0.12174036812E+03  0.19911469236E+02  0.15740091947E+03  0.78161820671E+02 0.  0.
          5    1    5    5  501    0  0.46286716224E+02 -0.36355101462E+02  0.38455100251E+02  0.70463027443E+02  0.47000000000E+01 0. -1.
        -11    1    6    6    0    0 -0.49219116514E+01  0.36711444214E+02 -0.22157724976E+02  0.43161558437E+02  0.00000000000E+00 0.  1.
         12    1    6    6    0    0  0.63646654327E+02  0.85028923904E+02  0.42069194212E+02  0.11423936103E+03  0.00000000000E+00 0. -1.
         -5    1    3    3    0  503  0.36588737969E+02 -0.95993148368E+01 -0.95383264052E+01  0.39293157955E+02  0.47000000000E+01 0.  1.
         11    1    4    4    0    0 -0.21018157339E+01  0.11273689113E+02 -0.16697144324E+02  0.20256068823E+02  0.00000000000E+00 0. -1.
        -12    1    4    4    0    0 -0.13949838113E+03 -0.87059640933E+02 -0.43284661259E+02  0.17003747034E+03  0.00000000000E+00 0.  1.
</event>
<event>
12    1  0.8251070E-002  0.1830522E+03  0.7818608E-02  0.1166287E+00
         21   -1    0    0  503  502  0.00000000000E+00  0.00000000000E+00  0.13193500087E+04  0.13193500087E+04  0.00000000000E+00 0. -1.
         21   -1    0    0  501  503 -0.00000000000E+00 -0.00000000000E+00 -0.26846520974E+02  0.26846520974E+02  0.00000000000E+00 0. -1.
          6    2    1    2  501    0  0.23738069525E+02 -0.57509254411E+02  0.46090068671E+03  0.49592092315E+03  0.17215489748E+03 0.  0.
         24    2    3    3    0    0  0.18233904792E+02  0.29257365806E+02  0.30960786269E+03  0.32136333721E+03  0.78923362329E+02 0.  0.
         -6    2    1    2    0  502 -0.23738069525E+02  0.57509254411E+02  0.83160280105E+03  0.85027560656E+03  0.16593546365E+03 0.  0.
        -24    2    5    5    0    0 -0.35512311242E+02  0.32000504236E+01  0.29450371879E+03  0.31028890618E+03  0.90969227488E+02 0.  0.
          5    1    3    3  501    0  0.55041647331E+01 -0.86766620216E+02  0.15129282401E+03  0.17455758595E+03  0.47000000000E+01 0. -1.
        -13    1    4    4    0    0 -0.13916135319E+02 -0.53731103312E+00  0.69805367585E+01  0.15578042842E+02  0.00000000000E+00 0.  1.
         14    1    4    4    0    0  0.32150040111E+02  0.29794676839E+02  0.30262732593E+03  0.30578529436E+03  0.00000000000E+00 0. -1.
         -5    1    5    5    0  502  0.11774241717E+02  0.54309203987E+02  0.53709908227E+03  0.53998670037E+03  0.47000000000E+01 0.  1.
         11    1    6    6    0    0 -0.41899011906E+02  0.39892641466E+02  0.21230160718E+03  0.22004300137E+03  0.00000000000E+00 0. -1.
        -12    1    6    6    0    0  0.63867006639E+01 -0.36692591042E+02  0.82202111606E+02  0.90245904811E+02  0.00000000000E+00 0.  1.
</event>
<event>
12    1  0.8251070E-002  0.1762295E+03  0.7818608E-02  0.1171552E+00
         21   -1    0    0  501  502  0.00000000000E+00  0.00000000000E+00  0.16278541979E+03  0.16278541979E+03  0.00000000000E+00 0.  1.
         21   -1    0    0  502  503 -0.00000000000E+00 -0.00000000000E+00 -0.35798381953E+03  0.35798381953E+03  0.00000000000E+00 0.  1.
         -6    2    1    2    0  503 -0.19698233328E+02  0.32080361339E+02  0.80495684170E+02  0.19356280195E+03  0.17195881236E+03 0.  0.
        -24    2    3    3    0    0  0.26742011027E+02  0.74636215226E+02  0.49468416029E+02  0.12318895479E+03  0.80266397824E+02 0.  0.
          6    2    1    2  501    0  0.19698233328E+02 -0.32080361339E+02 -0.27569408391E+03  0.32720643737E+03  0.17216171111E+03 0.  0.
         24    2    5    5    0    0  0.38425276404E+01 -0.87094640322E+02 -0.20462072570E+03  0.23581996933E+03  0.78365650348E+02 0.  0.
          5    1    5    5  501    0  0.15855705687E+02  0.55014278982E+02 -0.71073358208E+02  0.91386468045E+02  0.47000000000E+01 0. -1.
        -13    1    6    6    0    0 -0.22420130601E+02 -0.30745994968E+01 -0.80715652729E+02  0.83827990634E+02  0.00000000000E+00 0.  1.
         14    1    6    6    0    0  0.26262658242E+02 -0.84020040825E+02 -0.12390507297E+03  0.15199197869E+03  0.00000000000E+00 0. -1.
         -5    1    3    3    0  503 -0.46440244355E+02 -0.42555853887E+02  0.31027268140E+02  0.70373847160E+02  0.47000000000E+01 0.  1.
         11    1    4    4    0    0 -0.28146710416E+02  0.34730285374E+02  0.15622880876E+02  0.47355088810E+02  0.00000000000E+00 0. -1.
        -12    1    4    4    0    0  0.54888721443E+02  0.39905929852E+02  0.33845535153E+02  0.75833865976E+02  0.00000000000E+00 0.  1.
</event>
<event>
12    1  0.8251070E-002  0.1758301E+03  0.7818608E-02  0.1172070E+00
         21   -1    0    0  501  502  0.00000000000E+00  0.00000000000E+00  0.53527837214E+03  0.53527837214E+03  0.00000000000E+00 0.  1.
         21   -1    0    0  502  503 -0.00000000000E+00 -0.00000000000E+00 -0.76800085547E+02  0.76800085547E+02  0.00000000000E+00 0.  1.
         -6    2    1    2    0  503 -0.49949316764E+01  0.36214104018E+02  0.75632046747E+02  0.19078585737E+03  0.17129689490E+03 0.  0.
        -24    2    3    3    0    0 -0.14859436241E+02 -0.44819177865E+02  0.49050809997E+02  0.10480706132E+03  0.79680465552E+02 0.  0.
          6    2    1    2  501    0  0.49949316764E+01 -0.36214104018E+02  0.38284623984E+03  0.42129260032E+03  0.17198779331E+03 0.  0.
         24    2    5    5    0    0 -0.63103127610E+02 -0.86718481638E+01  0.22845371557E+03  0.25025148512E+03  0.79859251083E+02 0.  0.
          5    1    5    5  501    0  0.68098059287E+02 -0.27542255854E+02  0.15439252427E+03  0.17104111519E+03  0.47000000000E+01 0. -1.
        -13    1    6    6    0    0 -0.21618448279E+02 -0.43112583303E+02  0.10887256776E+03  0.11907681620E+03  0.00000000000E+00 0.  1.
         14    1    6    6    0    0 -0.41484679331E+02  0.34440735139E+02  0.11958114781E+03  0.13117466892E+03  0.00000000000E+00 0. -1.
         -5    1    3    3    0  503  0.98645045642E+01  0.81033281882E+02  0.26581236750E+02  0.85978796049E+02  0.47000000000E+01 0.  1.
         13    1    4    4    0    0 -0.13932003573E+02 -0.29715649132E+02 -0.17058530917E+02  0.36988025142E+02  0.00000000000E+00 0. -1.
        -14    1    4    4    0    0 -0.92743266728E+00 -0.15103528733E+02  0.66109340913E+02  0.67819036174E+02  0.00000000000E+00 0.  1.
</event>
<event>
12    1  0.8251070E-002  0.2217883E+03  0.7818608E-02  0.1132963E+00
         21   -1    0    0  503  502  0.00000000000E+00  0.00000000000E+00  0.28223443869E+03  0.28223443869E+03  0.00000000000E+00 0.  1.
         21   -1    0    0  501  503 -0.00000000000E+00 -0.00000000000E+00 -0.32530564249E+03  0.32530564249E+03  0.00000000000E+00 0. -1.
          6    2    1    2  501    0  0.99126807010E+02 -0.49826974128E+02 -0.22962415741E+03  0.31772625338E+03  0.18950954382E+03 0.  0.
         24    2    3    3    0    0  0.49537095108E+02  0.28477773747E+02 -0.89888900084E+02  0.14998000094E+03  0.10558919895E+03 0.  0.
         -6    2    1    2    0  502 -0.99126807010E+02  0.49826974128E+02  0.18655295361E+03  0.28981382781E+03  0.19204478402E+03 0.  0.
        -24    2    5    5    0    0 -0.39674573442E+02  0.34662534350E+02  0.20448409806E+03  0.22571902107E+03  0.79748147607E+02 0.  0.
          5    1    3    3  501    0  0.49589711902E+02 -0.78304747874E+02 -0.13973525733E+03  0.16774625244E+03  0.47000000000E+01 0. -1.
        -13    1    4    4    0    0  0.42926798520E+02 -0.70647810364E+01  0.92311632274E+01  0.44472862925E+02  0.00000000000E+00 0.  1.
         14    1    4    4    0    0  0.66102965886E+01  0.35542554783E+02 -0.99120063311E+02  0.10550713802E+03  0.00000000000E+00 0. -1.
         -5    1    5    5    0  502 -0.59452233569E+02  0.15164439777E+02 -0.17931144448E+02  0.64094806742E+02  0.47000000000E+01 0.  1.
         11    1    6    6    0    0  0.10034426963E+02  0.18826392717E+02  0.85919921789E+01  0.22998806857E+02  0.00000000000E+00 0. -1.
        -12    1    6    6    0    0 -0.49709000405E+02  0.15836141633E+02  0.19589210588E+03  0.20272021421E+03  0.00000000000E+00 0.  1.
</event>
<event>
12    1  0.8251070E-002  0.2230209E+03  0.7818608E-02  0.1131760E+00
         21   -1    0    0  501  502  0.00000000000E+00  0.00000000000E+00  0.19640377431E+03  0.19640377431E+03  0.00000000000E+00 0.  1.
         21   -1    0    0  502  503 -0.00000000000E+00 -0.00000000000E+00 -0.30362476302E+03  0.30362476302E+03  0.00000000000E+00 0.  1.
         -6    2    1    2    0  503  0.10703593430E+02 -0.14140154978E+03 -0.15607134563E+03  0.27172028200E+03  0.17136126029E+03 0.  0.
        -24    2    3    3    0    0 -0.22253640284E+02 -0.16207977619E+03 -0.13636904582E+03  0.22785641396E+03  0.80974998411E+02 0.  0.
          6    2    1    2  501    0 -0.10703593430E+02  0.14140154978E+03  0.48850356926E+02  0.22830825533E+03  0.17213174282E+03 0.  0.
         24    2    5    5    0    0  0.16946685846E+02  0.46453895692E+02  0.82589338539E+02  0.12371378205E+03  0.77710658481E+02 0.  0.
          5    1    5    5  501    0 -0.27650279276E+02  0.94947654091E+02 -0.33738981613E+02  0.10459447328E+03  0.47000000000E+01 0. -1.
        -11    1    6    6    0    0  0.22647406335E+02  0.54278475732E+01  0.78743737046E+02  0.82115422833E+02  0.00000000000E+00 0.  1.
         12    1    6    6    0    0 -0.57007204890E+01  0.41026048118E+02  0.38456014927E+01  0.41598359212E+02  0.00000000000E+00 0. -1.
         -5    1    3    3    0  503  0.32957233714E+02  0.20678226411E+02 -0.19702299815E+02  0.43863868041E+02  0.47000000000E+01 0.  1.
         11    1    4    4    0    0 -0.57185753877E+01 -0.35040711381E+02  0.63552916214E+01  0.36068591464E+02  0.00000000000E+00 0. -1.
        -12    1    4    4    0    0 -0.16535064896E+02 -0.12703906481E+03 -0.14272433744E+03  0.19178782249E+03  0.00000000000E+00 0.  1.
</event>
<event>
12    1  0.8251070E-002  0.2077082E+03  0.7818608E-02  0.1144649E+00
         21   -1    0    0  501  502  0.00000000000E+00  0.00000000000E+00  0.31854984277E+03  0.31854984277E+03  0.00000000000E+00 0. -1.
         21   -1    0    0  502  503 -0.00000000000E+00 -0.00000000000E+00 -0.13269091588E+03  0.13269091588E+03  0.00000000000E+00 0.  1.
         -6    2    1    2    0  503  0.23517444287E+02  0.10532826217E+03  0.72526351513E+02  0.22000629954E+03  0.17746996133E+03 0.  0.
        -24    2    3    3    0    0  0.41802170324E+02  0.13218252200E+03  0.24536260401E+02  0.16186318884E+03  0.79862527274E+02 0.  0.
          6    2    1    2  501    0 -0.23517444287E+02 -0.10532826217E+03  0.11333257537E+03  0.23123445911E+03  0.17022922616E+03 0.  0.
         24    2    5    5    0    0 -0.68842852176E+02 -0.36787957065E+02  0.99701586869E+02  0.14780748582E+03  0.76249290870E+02 0.  0.
          5    1    5    5  501    0  0.45325407889E+02 -0.68540305109E+02  0.13630988504E+02  0.83426973290E+02  0.47000000000E+01 0. -1.
        -11    1    6    6    0    0 -0.59579147111E+02 -0.11873312445E+02  0.20264958666E+02  0.64041540180E+02  0.00000000000E+00 0.  1.
         12    1    6    6    0    0 -0.92637050657E+01 -0.24914644620E+02  0.79436628203E+02  0.83765945636E+02  0.00000000000E+00 0. -1.
         -5    1    3    3    0  503 -0.18284726037E+02 -0.26854259821E+02  0.47990091113E+02  0.58143110699E+02  0.47000000000E+01 0.  1.
         11    1    4    4    0    0  0.12817787182E+02  0.11813501887E+02  0.33464357285E+02  0.37732183923E+02  0.00000000000E+00 0. -1.
        -12    1    4    4    0    0  0.28984383142E+02  0.12036902011E+03 -0.89280968846E+01  0.12413100492E+03  0.00000000000E+00 0.  1.
</event>
<event>
12    1  0.8251070E-002  0.1857769E+03  0.7818608E-02  0.1162865E+00
         21   -1    0    0  503  502  0.00000000000E+00  0.00000000000E+00  0.51997577844E+02  0.51997577844E+02  0.00000000000E+00 0.  1.
         21   -1    0    0  501  503 -0.00000000000E+00 -0.00000000000E+00 -0.96398805967E+03  0.96398805967E+03  0.00000000000E+00 0.  1.
          6    2    1    2  501    0 -0.56883914087E+02 -0.27932899350E+02 -0.74140917837E+03  0.76377337000E+03  0.17218061564E+03 0.  0.
         24    2    3    3    0    0  0.34650061362E+02 -0.20777381266E+02 -0.42317106247E+03  0.43252231942E+03  0.79809036814E+02 0.  0.
         -6    2    1    2    0  502  0.56883914087E+02  0.27932899350E+02 -0.17058130346E+03  0.25221226751E+03  0.17463396075E+03 0.  0.
        -24    2    5    5    0    0  0.60065397729E+02  0.82707709392E+02 -0.11137342239E+03  0.17135396656E+03  0.80682869573E+02 0.  0.
          5    1    3    3  501    0 -0.91533975449E+02 -0.71555180833E+01 -0.31823811589E+03  0.33125105058E+03  0.47000000000E+01 0. -1.
        -11    1    4    4    0    0  0.30746981005E+02 -0.40530379162E+02 -0.14578537217E+03  0.15440681078E+03  0.00000000000E+00 0.  1.
         12    1    4    4    0    0  0.39030803566E+01  0.19752997895E+02 -0.27738569031E+03  0.27811550864E+03  0.00000000000E+00 0. -1.
         -5    1    5    5    0  502 -0.31814836427E+01 -0.54774810043E+02 -0.59207881062E+02  0.80858300954E+02  0.47000000000E+01 0.  1.
         13    1    6    6    0    0  0.18977492043E+02  0.79263864032E+02 -0.99147255150E+02  0.12834751088E+03  0.00000000000E+00 0. -1.
        -14    1    6    6    0    0  0.41087905686E+02  0.34438453604E+01 -0.12226167245E+02  0.43006455679E+02  0.00000000000E+00 0.  1.
</event>
<event>
12    1  0.8251070E-002  0.1938210E+03  0.7818608E-02  0.1155412E+00
         21   -1    0    0  503  502  0.00000000000E+00  0.00000000000E+00  0.85718843048E+02  0.85718843048E+02  0.00000000000E+00 0.  1.
         21   -1    0    0  501  503 -0.00000000000E+00 -0.00000000000E+00 -0.46807294980E+03  0.46807294980E+03  0.00000000000E+00 0.  1.
          6    2    1    2  501    0  0.64941895285E+02 -0.56255656338E+02 -0.26443107448E+03  0.32691642230E+03  0.17195466085E+03 0.  0.
         24    2    3    3    0    0  0.45896755239E+02 -0.14921314228E+02 -0.26518903801E+03  0.28115716416E+03  0.79968539543E+02 0.  0.
         -6    2    1    2    0  502 -0.64941895285E+02  0.56255656338E+02 -0.11792303228E+03  0.22687537055E+03  0.17373670765E+03 0.  0.
        -24    2    5    5    0    0 -0.15879906310E+02  0.94518041735E+02 -0.10368692569E+03  0.16287657658E+03  0.81190941616E+02 0.  0.
          5    1    3    3  501    0  0.19045140046E+02 -0.41334342110E+02  0.75796353528E+00  0.45759258143E+02  0.47000000000E+01 0. -1.
        -13    1    4    4    0    0  0.44253313444E+02 -0.35344776773E+02 -0.10184708228E+03  0.11653513275E+03  0.00000000000E+00 0.  1.
         14    1    4    4    0    0  0.16434417953E+01  0.20423462545E+02 -0.16334195574E+03  0.16462203141E+03  0.00000000000E+00 0. -1.
         -5    1    5    5    0  502 -0.49061988975E+02 -0.38262385397E+02 -0.14236106582E+02  0.63998793966E+02  0.47000000000E+01 0.  1.
         11    1    6    6    0    0 -0.26542224285E+02  0.35736660430E+02 -0.91716414590E+02  0.10194851286E+03  0.00000000000E+00 0. -1.
        -12    1    6    6    0    0  0.10662317976E+02  0.58781381305E+02 -0.11970511103E+02  0.60928063721E+02  0.00000000000E+00 0.  1.
</event>
<event>
12    1  0.8251070E-002  0.1951389E+03  0.7818608E-02  0.1154163E+00
         21   -1    0    0  501  502  0.00000000000E+00  0.00000000000E+00  0.11044186443E+03  0.11044186443E+03  0.00000000000E+00 0.  1.
         21   -1    0    0  502  503 -0.00000000000E+00 -0.00000000000E+00 -0.34661349695E+03  0.34661349695E+03  0.00000000000E+00 0.  1.
         -6    2    1    2    0  503 -0.61536371832E+02 -0.67809085533E+02 -0.14266636792E+03  0.24172896607E+03  0.17232064114E+03 0.  0.
        -24    2    3    3    0    0  0.31233986098E+02 -0.51486366092E+02 -0.10265540556E+03  0.13928025896E+03  0.72349502167E+02 0.  0.
          6    2    1    2  501    0  0.61536371832E+02  0.67809085533E+02 -0.93505264603E+02  0.21532639532E+03  0.17098954609E+03 0.  0.
         24    2    5    5    0    0 -0.73344797870E+01  0.14873254581E+02  0.70498517609E+01  0.82364679667E+02  0.80369345843E+02 0.  0.
          5    1    5    5  501    0  0.68870851619E+02  0.52935830952E+02 -0.10055511636E+03  0.13296171565E+03  0.47000000000E+01 0. -1.
        -11    1    6    6    0    0  0.15147169841E+01 -0.18988106064E+02  0.33471832660E+02  0.38512415155E+02  0.00000000000E+00 0.  1.
         12    1    6    6    0    0 -0.88491967711E+01  0.33861360645E+02 -0.26421980899E+02  0.43852264512E+02  0.00000000000E+00 0. -1.
         -5    1    3    3    0  503 -0.92770357929E+02 -0.16322719441E+02 -0.40010962357E+02  0.10244870711E+03  0.47000000000E+01 0.  1.
         13    1    4    4    0    0  0.17038702798E+01  0.13673176748E+02 -0.46014997540E+02  0.48033727056E+02  0.00000000000E+00 0. -1.
        -14    1    4    4    0    0  0.29530115818E+02 -0.65159542840E+02 -0.56640408018E+02  0.91246531900E+02  0.00000000000E+00 0.  1.
</event>
<event>
12    1  0.8251070E-002  0.2535246E+03  0.7818608E-02  0.1113588E+00
         21   -1    0    0  503  502  0.00000000000E+00  0.00000000000E+00  0.15739219567E+03  0.15739219567E+03  0.00000000000E+00 0.  1.
         21   -1    0    0  501  503 -0.00000000000E+00 -0.00000000000E+00 -0.45235695045E+03  0.45235695045E+03  0.00000000000E+00 0. -1.
          6    2    1    2  501    0 -0.15254994353E+03  0.57041378428E+02 -0.27010736308E+03  0.37044934889E+03  0.19429237860E+03 0.  0.
         24    2    3    3    0    0 -0.61035440734E+02 -0.13713784409E+02 -0.27239109084E+02  0.10139865462E+03  0.75008834057E+02 0.  0.
         -6    2    1    2    0  502  0.15254994353E+03 -0.57041378428E+02 -0.24857391694E+02  0.23929979722E+03  0.17355488730E+03 0.  0.
        -24    2    5    5    0    0  0.42998126215E+02  0.31823675181E+02  0.36851472662E+00  0.95922550828E+02  0.79620442062E+02 0.  0.
          5    1    3    3  501    0 -0.91514502791E+02  0.70755162837E+02 -0.24286825400E+03  0.26905069428E+03  0.47000000000E+01 0. -1.
        -13    1    4    4    0    0  0.13153816286E+02  0.13309563283E+02 -0.54076773392E+01  0.19478458149E+02  0.00000000000E+00 0.  1.
         14    1    4    4    0    0 -0.74189257020E+02 -0.27023347692E+02 -0.21831431744E+02  0.81920196470E+02  0.00000000000E+00 0. -1.
         -5    1    5    5    0  502  0.10955181731E+03 -0.88865053609E+02 -0.25225906421E+02  0.14337724639E+03  0.47000000000E+01 0.  1.
         13    1    6    6    0    0  0.56192659454E+02  0.93038454617E+01 -0.22480638744E+02  0.61233615239E+02  0.00000000000E+00 0. -1.
        -14    1    6    6    0    0 -0.13194533239E+02  0.22519829719E+02  0.22849153471E+02  0.34688935589E+02  0.00000000000E+00 0.  1.
</event>
<event>
12    1  0.8251070E-002  0.2400022E+03  0.7818608E-02  0.1120010E+00
         21   -1    0    0  503  502  0.00000000000E+00  0.00000000000E+00  0.91663805789E+02  0.91663805789E+02  0.00000000000E+00 0.  1.
         21   -1    0    0  501  503 -0.00000000000E+00 -0.00000000000E+00 -0.86008972970E+03  0.86008972970E+03  0.00000000000E+00 0. -1.
          6    2    1    2  501    0 -0.12602732298E+03  0.11053516578E+03 -0.63225701147E+03  0.67581326489E+03  0.16992272193E+03 0.  0.
         24    2    3    3    0    0 -0.73728229752E+02  0.56908783987E+02 -0.18296931093E+03  0.22029980533E+03  0.79873487028E+02 0.  0.
         -6    2    1    2    0  502  0.12602732298E+03 -0.11053516578E+03 -0.13616891244E+03  0.27594027061E+03  0.17175608058E+03 0.  0.
        -24    2    5    5    0    0  0.15847396598E+03 -0.86491087623E+02 -0.12409536674E+03  0.23352844628E+03  0.80877494055E+02 0.  0.
          5    1    3    3  501    0 -0.52299093224E+02  0.53626381794E+02 -0.44928770054E+03  0.45551345955E+03  0.47000000000E+01 0. -1.
        -13    1    4    4    0    0  0.14088792992E+02  0.25588561557E+02 -0.49837170738E+02  0.57766877688E+02  0.00000000000E+00 0.  1.
         14    1    4    4    0    0 -0.87817022745E+02  0.31320222429E+02 -0.13313214019E+03  0.16253292765E+03  0.00000000000E+00 0. -1.
         -5    1    5    5    0  502 -0.32446643004E+02 -0.24044078158E+02 -0.12073545696E+02  0.42411824322E+02  0.47000000000E+01 0.  1.
         13    1    6    6    0    0  0.42939299222E+02  0.46886418007E+01 -0.36531734399E+01  0.43348730728E+02  0.00000000000E+00 0. -1.
        -14    1    6    6    0    0  0.11553466676E+03 -0.91179729423E+02 -0.12044219330E+03  0.19017971555E+03  0.00000000000E+00 0.  1.
</event>
<event>
12    1  0.8251070E-002  0.1940494E+03  0.7818608E-02  0.1154865E+00
         21   -1    0    0  503  502  0.00000000000E+00  0.00000000000E+00  0.25699390285E+02  0.25699390285E+02  0.00000000000E+00 0.  1.
         21   -1    0    0  501  503 -0.00000000000E+00 -0.00000000000E+00 -0.15582328086E+04  0.15582328086E+04  0.00000000000E+00 0.  1.
          6    2    1    2  501    0  0.62929860441E+02 -0.64878557953E+02 -0.95993887526E+03  0.97934997444E+03  0.17168090627E+03 0.  0.
         24    2    3    3    0    0  0.84594606786E+02 -0.28389738389E+02 -0.88700642250E+03  0.89483945526E+03  0.77427594397E+02 0.  0.
         -6    2    1    2    0  502 -0.62929860441E+02  0.64878557953E+02 -0.57259454303E+03  0.60458222442E+03  0.17171418335E+03 0.  0.
        -24    2    5    5    0    0 -0.59688569546E+02 -0.29414473581E+02 -0.28669083762E+03  0.30347642818E+03  0.74016008381E+02 0.  0.
          5    1    3    3  501    0 -0.21664746346E+02 -0.36488819564E+02 -0.72932452757E+02  0.84510519183E+02  0.47000000000E+01 0. -1.
        -11    1    4    4    0    0  0.60455541062E+02 -0.55244816055E+02 -0.63497113132E+03  0.64023058328E+03  0.00000000000E+00 0.  1.
         12    1    4    4    0    0  0.24139065725E+02  0.26855077666E+02 -0.25203529118E+03  0.25460887198E+03  0.00000000000E+00 0. -1.
         -5    1    5    5    0  502 -0.32412908950E+01  0.94293031534E+02 -0.28590370541E+03  0.30110579624E+03  0.47000000000E+01 0.  1.
         13    1    6    6    0    0  0.81882399164E+01 -0.75045665153E+01 -0.13922304626E+03  0.13966539443E+03  0.00000000000E+00 0. -1.
        -14    1    6    6    0    0 -0.67876809462E+02 -0.21909907065E+02 -0.14746779136E+03  0.16381103376E+03  0.00000000000E+00 0.  1.
</event>
<event>
12    1  0.8251070E-002  0.2362604E+03  0.7818608E-02  0.1124352E+00
         21   -1    0    0  503  502  0.00000000000E+00  0.00000000000E+00  0.81284467481E+02  0.81284467481E+02  0.00000000000E+00 0.  1.
         21   -1    0    0  501  503 -0.00000000000E+00 -0.00000000000E+00 -0.78204173892E+03  0.78204173892E+03  0.00000000000E+00 0.  1.
          6    2    1    2  501    0  0.74857147912E+02 -0.14467735917E+03 -0.51815626211E+03  0.56472599175E+03  0.15457814512E+03 0.  0.
         24    2    3    3    0    0  0.32367867339E+02 -0.18850548328E+02 -0.16125065098E+03  0.18388293937E+03  0.80050864722E+02 0.  0.
         -6    2    1    2    0  502 -0.74857147912E+02  0.14467735917E+03 -0.18260100933E+03  0.29860021465E+03  0.17112518439E+03 0.  0.
        -24    2    5    5    0    0  0.69224099783E+01  0.53893168862E+02 -0.26418034077E+02  0.10024478353E+03  0.79991941405E+02 0.  0.
          5    1    3    3  501    0  0.42489280573E+02 -0.12582681084E+03 -0.35690561113E+03  0.38084305238E+03  0.47000000000E+01 0. -1.
        -11    1    4    4    0    0  0.24649393545E+02 -0.18349570439E+02 -0.98279119746E+01  0.32262783377E+02  0.00000000000E+00 0.  1.
         12    1    4    4    0    0  0.77184737938E+01 -0.50097788954E+00 -0.15142273901E+03  0.15162015600E+03  0.00000000000E+00 0. -1.
         -5    1    5    5    0  502 -0.81779557890E+02  0.90784190303E+02 -0.15618297525E+03  0.19835543112E+03  0.47000000000E+01 0.  1.
         11    1    6    6    0    0  0.79546905383E+01  0.25051877311E+02 -0.54167759956E+02  0.60208137963E+02  0.00000000000E+00 0. -1.
        -12    1    6    6    0    0 -0.10322805600E+01  0.28841291552E+02  0.27749725879E+02  0.40036645562E+02  0.00000000000E+00 0.  1.
</event>
<event>
12    1  0.8251070E-002  0.1986891E+03  0.7818608E-02  0.1150961E+00
         21   -1    0    0  503  502  0.00000000000E+00  0.00000000000E+00  0.31187759821E+03  0.31187759821E+03  0.00000000000E+00 0.  1.
         21   -1    0    0  501  503 -0.00000000000E+00 -0.00000000000E+00 -0.29141044505E+03  0.29141044505E+03  0.00000000000E+00 0.  1.
          6    2    1    2  501    0  0.98467311419E+02 -0.14395344949E+01 -0.21686346894E+03  0.29376718264E+03  0.17196368732E+03 0.  0.
         24    2    3    3    0    0  0.10135489453E+03  0.50918641727E+02 -0.18791563626E+03  0.23368570654E+03  0.80194765218E+02 0.  0.
         -6    2    1    2    0  502 -0.98467311419E+02  0.14395344949E+01  0.23733062210E+03  0.30952086062E+03  0.17256724861E+03 0.  0.
        -24    2    5    5    0    0 -0.21437907664E+02  0.52798535306E+02  0.16633763879E+03  0.19275883903E+03  0.78996776699E+02 0.  0.
          5    1    3    3  501    0 -0.28875831137E+01 -0.52358176222E+02 -0.28947832678E+02  0.60081476099E+02  0.47000000000E+01 0. -1.
        -11    1    4    4    0    0  0.10895191472E+03  0.33686642082E+02 -0.13074022783E+03  0.17348866461E+03  0.00000000000E+00 0.  1.
         12    1    4    4    0    0 -0.75970201868E+01  0.17231999645E+02 -0.57175408435E+02  0.60197041931E+02  0.00000000000E+00 0. -1.
         -5    1    5    5    0  502 -0.77029403754E+02 -0.51359000811E+02  0.70992983309E+02  0.11676202159E+03  0.47000000000E+01 0.  1.
         11    1    6    6    0    0  0.94417903238E+01  0.23490677166E+01  0.11205356722E+03  0.11247518593E+03  0.00000000000E+00 0. -1.
        -12    1    6    6    0    0 -0.30879697988E+02  0.50449467590E+02  0.54284071570E+02  0.80283653094E+02  0.00000000000E+00 0.  1.
</event>
<event>
12    1  0.8251070E-002  0.2984022E+03  0.7818608E-02  0.1086096E+00
         21   -1    0    0  501  502  0.00000000000E+00  0.00000000000E+00  0.56077976007E+03  0.56077976007E+03  0.00000000000E+00 0. -1.
         21   -1    0    0  502  503 -0.00000000000E+00 -0.00000000000E+00 -0.31325516892E+03  0.31325516892E+03  0.00000000000E+00 0.  1.
         -6    2    1    2    0  503  0.20548532193E+03 -0.13089603014E+03 -0.18330155334E+03  0.35020473577E+03  0.17229599318E+03 0.  0.
        -24    2    3    3    0    0  0.13452489805E+03 -0.44510313893E+02 -0.40024518245E+02  0.16841289736E+03  0.81748551649E+02 0.  0.
          6    2    1    2  501    0 -0.20548532193E+03  0.13089603014E+03  0.43082614449E+03  0.52383019322E+03  0.17154858297E+03 0.  0.
         24    2    5    5    0    0 -0.12935842851E+03  0.13210133221E+03  0.21463290244E+03  0.29457408194E+03  0.80760398335E+02 0.  0.
          5    1    5    5  501    0 -0.76126893411E+02 -0.12053020652E+01  0.21619324204E+03  0.22925611128E+03  0.47000000000E+01 0. -1.
        -13    1    6    6    0    0 -0.73609978271E+02  0.11466795782E+03  0.11157426094E+03  0.17611355756E+03  0.00000000000E+00 0.  1.
         14    1    6    6    0    0 -0.55748450243E+02  0.17433374383E+02  0.10305864150E+03  0.11846052438E+03  0.00000000000E+00 0. -1.
         -5    1    3    3    0  503  0.70960423872E+02 -0.86385716248E+02 -0.14327703509E+03  0.18179183841E+03  0.47000000000E+01 0.  1.
         11    1    4    4    0    0 -0.69936989860E+01 -0.77802440294E+01  0.94134337801E+01  0.14073263950E+02  0.00000000000E+00 0. -1.
        -12    1    4    4    0    0  0.14151859704E+03 -0.36730069864E+02 -0.49437952025E+02  0.15433963341E+03  0.00000000000E+00 0.  1.
</event>
<event>
12    1  0.8251070E-002  0.2095711E+03  0.7818608E-02  0.1142902E+00
         21   -1    0    0  503  502  0.00000000000E+00  0.00000000000E+00  0.89219399339E+03  0.89219399339E+03  0.00000000000E+00 0. -1.
         21   -1    0    0  501  503 -0.00000000000E+00 -0.00000000000E+00 -0.81126073345E+03  0.81126073345E+03  0.00000000000E+00 0. -1.
          6    2    1    2  501    0  0.75494951935E+02 -0.82312282028E+02 -0.78560929322E+03  0.81308179822E+03  0.17732808427E+03 0.  0.
         24    2    3    3    0    0  0.86554090077E+02 -0.11816236515E+03 -0.54211186291E+03  0.56666625171E+03  0.75969822116E+02 0.  0.
         -6    2    1    2    0  502 -0.75494951935E+02  0.82312282028E+02  0.86654255316E+03  0.89037292861E+03  0.17144432339E+03 0.  0.
        -24    2    5    5    0    0 -0.10458988214E+03  0.92178084353E+02  0.80983748778E+03  0.82570915623E+03  0.80765161930E+02 0.  0.
          5    1    3    3  501    0 -0.11059138142E+02  0.35850083126E+02 -0.24349743031E+03  0.24641554651E+03  0.47000000000E+01 0. -1.
        -13    1    4    4    0    0  0.10041073142E+03 -0.99026303246E+02 -0.45057999944E+03  0.47213436606E+03  0.00000000000E+00 0.  1.
         14    1    4    4    0    0 -0.13856641341E+02 -0.19136061908E+02 -0.91531863470E+02  0.94531885652E+02  0.00000000000E+00 0. -1.
         -5    1    5    5    0  502  0.29094930202E+02 -0.98658023244E+01  0.56705065376E+02  0.64663772378E+02  0.47000000000E+01 0.  1.
         13    1    6    6    0    0  0.10976839189E+02  0.12329745171E+02  0.16079667603E+03  0.16164184061E+03  0.00000000000E+00 0. -1.
        -14    1    6    6    0    0 -0.11556672133E+03  0.79848339182E+02  0.64904081175E+03  0.66406731562E+03  0.00000000000E+00 0.  1.
</event>
<event>
12    1  0.8251070E-002  0.2421160E+03  0.7818608E-02  0.1118517E+00
         21   -1    0    0  503  502  0.00000000000E+00  0.00000000000E+00  0.26397101312E+03  0.26397101312E+03  0.00000000000E+00 0.  1.
         21   -1    0    0  501  503 -0.00000000000E+00 -0.00000000000E+00 -0.24035451993E+03  0.24035451993E+03  0.00000000000E+00 0. -1.
          6    2    1    2  501    0  0.53931171806E+02  0.16211459710E+03  0.82662130741E+02  0.25511370139E+03  0.17047069806E+03 0.  0.
         24    2    3    3    0    0 -0.22907618873E+02  0.60261701639E+02  0.75179546109E+02  0.12722198493E+03  0.79857608344E+02 0.  0.
         -6    2    1    2    0  502 -0.53931171806E+02 -0.16211459710E+03 -0.59045637548E+02  0.24921183166E+03  0.17155301175E+03 0.  0.
        -24    2    5    5    0    0 -0.15361329563E+02 -0.98229739638E+02 -0.10218702903E+03  0.16288583672E+03  0.78768995842E+02 0.  0.
          5    1    3    3  501    0  0.76838790679E+02  0.10185289546E+03  0.74825846322E+01  0.12789171646E+03  0.47000000000E+01 0. -1.
        -13    1    4    4    0    0  0.27105956398E+02  0.37614289172E+02  0.24192501870E+02  0.52295743315E+02  0.00000000000E+00 0.  1.
         14    1    4    4    0    0 -0.50013575271E+02  0.22647412467E+02  0.50987044239E+02  0.74926241619E+02  0.00000000000E+00 0. -1.
         -5    1    5    5    0  502 -0.38569842243E+02 -0.63884857459E+02  0.43141391482E+02  0.86325994939E+02  0.47000000000E+01 0.  1.
         13    1    6    6    0    0 -0.11327799206E+02 -0.42841930002E+02 -0.97567513562E+02  0.10715955255E+03  0.00000000000E+00 0. -1.
        -14    1    6    6    0    0 -0.40335303573E+01 -0.55387809636E+02 -0.46195154683E+01  0.55726284163E+02  0.00000000000E+00 0.  1.
</event>
<event>
12    1  0.8251070E-002  0.1844413E+03  0.7818608E-02  0.1164563E+00
         21   -1    0    0  501  502  0.00000000000E+00  0.00000000000E+00  0.30558899822E+03  0.30558899822E+03  0.00000000000E+00 0.  1.
         21   -1    0    0  502  503 -0.00000000000E+00 -0.00000000000E+00 -0.11072197865E+03  0.11072197865E+03  0.00000000000E+00 0. -1.
         -6    2    1    2    0  503  0.54103366694E+02 -0.28928768576E+01  0.69040993048E+02  0.19303810288E+03  0.17193460216E+03 0.  0.
        -24    2    3    3    0    0 -0.15291377086E+02 -0.20435154782E+02 -0.96561092740E+01  0.86554837094E+02  0.82140596625E+02 0.  0.
          6    2    1    2  501    0 -0.54103366694E+02  0.28928768576E+01  0.12582602652E+03  0.22327287399E+03  0.17630384081E+03 0.  0.
         24    2    5    5    0    0 -0.30059701354E+01  0.38540672790E+02  0.87371161726E+01  0.90556589313E+02  0.81423211393E+02 0.  0.
          5    1    5    5  501    0 -0.51097396559E+02 -0.35647795932E+02  0.11708891035E+03  0.13271628467E+03  0.47000000000E+01 0. -1.
        -11    1    6    6    0    0  0.31816612539E+02 -0.42760176309E+01 -0.76190346012E+01  0.32994406321E+02  0.00000000000E+00 0.  1.
         12    1    6    6    0    0 -0.34822582674E+02  0.42816690420E+02  0.16356150774E+02  0.57562182992E+02  0.00000000000E+00 0. -1.
         -5    1    3    3    0  503  0.69394743780E+02  0.17542277925E+02  0.78697102322E+02  0.10648326579E+03  0.47000000000E+01 0.  1.
         13    1    4    4    0    0 -0.24907124338E+02 -0.48858419967E+02 -0.13008221517E+02  0.56362433158E+02  0.00000000000E+00 0. -1.
        -14    1    4    4    0    0  0.96157472519E+01  0.28423265185E+02  0.33521122425E+01  0.30192403936E+02  0.00000000000E+00 0.  1.
</event>
<event>
12    1  0.8251070E-002  0.1824307E+03  0.7818608E-02  0.1165717E+00
         21   -1    0    0  501  502  0.00000000000E+00  0.00000000000E+00  0.69779896194E+03  0.69779896194E+03  0.00000000000E+00 0.  1.
         21   -1    0    0  502  503 -0.00000000000E+00 -0.00000000000E+00 -0.52193654843E+02  0.52193654843E+02  0.00000000000E+00 0.  1.
         -6    2    1    2    0  503  0.32144210332E+02 -0.50969016719E+02  0.43531987509E+03  0.47160274552E+03  0.17109840738E+03 0.  0.
        -24    2    3    3    0    0  0.71291651628E+02 -0.62209473890E+02  0.21942272171E+03  0.25184710652E+03  0.79549456456E+02 0.  0.
          6    2    1    2  501    0 -0.32144210332E+02  0.50969016719E+02  0.21028543200E+03  0.27838987126E+03  0.17219136617E+03 0.  0.
         24    2    5    5    0    0 -0.63864884094E+02  0.28202485663E+02  0.59811088673E+02  0.12286130771E+03  0.81507244987E+02 0.  0.
          5    1    5    5  501    0  0.31720673763E+02  0.22766531057E+02  0.15047434333E+03  0.15552856355E+03  0.47000000000E+01 0. -1.
        -11    1    6    6    0    0  0.10132023718E+02 -0.68354736252E+01 -0.95867973011E+01  0.15533457014E+02  0.00000000000E+00 0.  1.
         12    1    6    6    0    0 -0.73996907812E+02  0.35037959288E+02  0.69397885974E+02  0.10732785069E+03  0.00000000000E+00 0. -1.
         -5    1    3    3    0  503 -0.39147441296E+02  0.11240457171E+02  0.21589715338E+03  0.21975563900E+03  0.47000000000E+01 0.  1.
         13    1    4    4    0    0  0.23567806695E+02 -0.33008413450E+02  0.20970893436E+02  0.45659339049E+02  0.00000000000E+00 0. -1.
        -14    1    4    4    0    0  0.47723844933E+02 -0.29201060441E+02  0.19845182828E+03  0.20618776747E+03  0.00000000000E+00 0.  1.
</event>
<event>
12    1  0.8251070E-002  0.1790026E+03  0.7818608E-02  0.1171307E+00
         21   -1    0    0  501  502  0.00000000000E+00  0.00000000000E+00  0.96496466307E+03  0.96496466307E+03  0.00000000000E+00 0. -1.
         21   -1    0    0  502  503 -0.00000000000E+00 -0.00000000000E+00 -0.38586261102E+02  0.38586261102E+02  0.00000000000E+00 0. -1.
         -6    2    1    2    0  503  0.23374987789E+02  0.42546353312E+02  0.25704778804E+03  0.31323393285E+03  0.17229436763E+03 0.  0.
        -24    2    3    3    0    0  0.69591192281E+02  0.38520728758E+02  0.23653400853E+03  0.26229231567E+03  0.80759773914E+02 0.  0.
          6    2    1    2  501    0 -0.23374987789E+02 -0.42546353312E+02  0.66933061393E+03  0.69031699132E+03  0.16179460909E+03 0.  0.
         24    2    5    5    0    0  0.45793248988E+01 -0.28004608148E+02  0.64241828267E+03  0.64861244092E+03  0.84803421600E+02 0.  0.
          5    1    5    5  501    0 -0.27954312688E+02 -0.14541745164E+02  0.26912331256E+02  0.41704550398E+02  0.47000000000E+01 0. -1.
        -11    1    6    6    0    0  0.70962618311E+01  0.29952715562E+02  0.26073144025E+03  0.26254219859E+03  0.00000000000E+00 0.  1.
         12    1    6    6    0    0 -0.25169369323E+01 -0.57957323710E+02  0.38168684242E+03  0.38607024234E+03  0.00000000000E+00 0. -1.
         -5    1    3    3    0  503 -0.46216204492E+02  0.40256245546E+01  0.20513779507E+02  0.50941617175E+02  0.47000000000E+01 0.  1.
         13    1    4    4    0    0 -0.34289294019E+01  0.20690267779E+02  0.92868658440E+01  0.22936665294E+02  0.00000000000E+00 0. -1.
        -14    1    4    4    0    0  0.73020121683E+02  0.17830460979E+02  0.22724714269E+03  0.23935565038E+03  0.00000000000E+00 0.  1.
</event>
<event>
12    1  0.8251070E-002  0.1845920E+03  0.7818608E-02  0.1163531E+00
         21   -1    0    0  501  502  0.00000000000E+00  0.00000000000E+00  0.41845088798E+03  0.41845088798E+03  0.00000000000E+00 0. -1.
         21   -1    0    0  502  503 -0.00000000000E+00 -0.00000000000E+00 -0.11189495379E+03  0.11189495379E+03  0.00000000000E+00 0. -1.
         -6    2    1    2    0  503 -0.10857291225E+02 -0.64597765256E+02  0.14358347001E+02  0.18472517114E+03  0.17212342861E+03 0.  0.
        -24    2    3    3    0    0 -0.71284947160E+02 -0.50457200119E+02 -0.67032607035E+01  0.11902023599E+03  0.80581698518E+02 0.  0.
          6    2    1    2  501    0  0.10857291225E+02  0.64597765256E+02  0.29219758719E+03  0.34562067062E+03  0.17257886879E+03 0.  0.
         24    2    5    5    0    0  0.44662711023E+02  0.95873399944E+02  0.25442249587E+03  0.28587103249E+03  0.76190381536E+02 0.  0.
          5    1    5    5  501    0 -0.33805419798E+02 -0.31275634688E+02  0.37775091318E+02  0.59749638132E+02  0.47000000000E+01 0. -1.
        -11    1    6    6    0    0  0.13620080770E+02  0.86815565390E+02  0.12720331272E+03  0.15460637684E+03  0.00000000000E+00 0.  1.
         12    1    6    6    0    0  0.31042630253E+02  0.90578345536E+01  0.12721918315E+03  0.13126465564E+03  0.00000000000E+00 0. -1.
         -5    1    3    3    0  503  0.60427655935E+02 -0.14140565138E+02  0.21061607705E+02  0.65704935152E+02  0.47000000000E+01 0.  1.
         11    1    4    4    0    0  0.11308927009E+02 -0.17158423208E+02 -0.20356990972E+02  0.28925946804E+02  0.00000000000E+00 0. -1.
        -12    1    4    4    0    0 -0.82593874169E+02 -0.33298776910E+02  0.13653730269E+02  0.90094289188E+02  0.00000000000E+00 0.  1.
</event>
<event>
12    1  0.8251070E-002  0.1879140E+03  0.7818608E-02  0.1160390E+00
         21   -1    0    0  501  502  0.00000000000E+00  0.00000000000E+00  0.41235830321E+03  0.41235830321E+03  0.00000000000E+00 0.  1.
         21   -1    0    0  502  503 -0.00000000000E+00 -0.00000000000E+00 -0.14244985442E+03  0.14244985442E+03  0.00000000000E+00 0.  1.
         -6    2    1    2    0  503  0.53301679803E+02  0.53017627326E+02 -0.40310159887E+02  0.19218891601E+03  0.17222001211E+03 0.  0.
        -24    2    3    3    0    0  0.17277442277E+02  0.61527902709E+02 -0.85251990927E+02  0.13377634328E+03  0.80895087861E+02 0.  0.
          6    2    1    2  501    0 -0.53301679803E+02 -0.53017627326E+02  0.31021860868E+03  0.36261924162E+03  0.17206159173E+03 0.  0.
         24    2    5    5    0    0 -0.38066889872E+02 -0.65969401626E+02  0.32125676596E+03  0.33930018937E+03  0.78215463811E+02 0.  0.
          5    1    5    5  501    0 -0.15234789931E+02  0.12951774300E+02 -0.11038157280E+02  0.23319052251E+02  0.47000000000E+01 0. -1.
        -11    1    6    6    0    0  0.10518139512E+02 -0.37329054082E+02  0.22003673718E+03  0.22342841191E+03  0.00000000000E+00 0.  1.
         12    1    6    6    0    0 -0.48585029384E+02 -0.28640347544E+02  0.10122002877E+03  0.11587177746E+03  0.00000000000E+00 0. -1.
         -5    1    3    3    0  503  0.36024237527E+02 -0.85102753831E+01  0.44941831040E+02  0.58412572736E+02  0.47000000000E+01 0.  1.
         11    1    4    4    0    0  0.16839331226E+02 -0.14361362329E+02 -0.38118304142E+01  0.22457556750E+02  0.00000000000E+00 0. -1.
        -12    1    4    4    0    0  0.43811105078E+00  0.75889265038E+02 -0.81440160513E+02  0.11131878653E+03  0.00000000000E+00 0.  1.
</event>
<event>
12    1  0.8251070E-002  0.2807171E+03  0.7818608E-02  0.1095330E+00
         21   -1    0    0  501  502  0.00000000000E+00  0.00000000000E+00  0.20767416432E+03  0.20767416432E+03  0.00000000000E+00 0. -1.
         21   -1    0    0  502  503 -0.00000000000E+00 -0.00000000000E+00 -0.74883298302E+03  0.74883298302E+03  0.00000000000E+00 0. -1.
         -6    2    1    2    0  503 -0.14782083412E+03  0.16538764787E+03 -0.60656291360E+03  0.66827153255E+03  0.17165139090E+03 0.  0.
        -24    2    3    3    0    0 -0.16669546831E+03  0.11666995009E+03 -0.41009305877E+03  0.46491922804E+03  0.81082151813E+02 0.  0.
          6    2    1    2  501    0  0.14782083412E+03 -0.16538764787E+03  0.65404094902E+02  0.28823561479E+03  0.17204069558E+03 0.  0.
         24    2    5    5    0    0  0.17813710067E+03 -0.13121876581E+03  0.53956220164E+02  0.24090980412E+03  0.78581606599E+02 0.  0.
          5    1    5    5  501    0 -0.30316266547E+02 -0.34168882065E+02  0.11447874739E+02  0.47325810664E+02  0.47000000000E+01 0. -1.
        -13    1    6    6    0    0  0.22759969130E+02 -0.49667345931E+02 -0.71424528172E+01  0.55098784731E+02  0.00000000000E+00 0.  1.
         14    1    6    6    0    0  0.15537713154E+03 -0.81551419875E+02  0.61098672981E+02  0.18581101939E+03  0.00000000000E+00 0. -1.
         -5    1    3    3    0  503  0.18874634192E+02  0.48717697779E+02 -0.19646985483E+03  0.20335230451E+03  0.47000000000E+01 0.  1.
         11    1    4    4    0    0 -0.39127712698E+02  0.71539970807E+02 -0.12354584563E+03  0.14802878536E+03  0.00000000000E+00 0. -1.
        -12    1    4    4    0    0 -0.12756775561E+03  0.45129979285E+02 -0.28654721314E+03  0.31689044268E+03  0.00000000000E+00 0.  1.
</event>
<event>
12    1  0.8251070E-002  0.1772400E+03  0.7818608E-02  0.1170524E+00
         21   -1    0    0  503  502  0.00000000000E+00  0.00000000000E+00  0.36743781606E+03  0.36743781606E+03  0.00000000000E+00 0. -1.
         21   -1    0    0  501  503 -0.00000000000E+00 -0.00000000000E+00 -0.16812125629E+03  0.16812125629E+03  0.00000000000E+00 0. -1.
          6    2    1    2  501    0 -0.40927274616E+02  0.65263337537E+01 -0.88132243000E+02  0.19785973566E+03  0.17223108866E+03 0.  0.
         24    2    3    3    0    0 -0.55408480778E+02  0.51556345667E+02 -0.93373350759E+02  0.15003749695E+03  0.89802624342E+02 0.  0.
         -6    2    1    2    0  502  0.40927274616E+02 -0.65263337537E+01  0.28744880277E+03  0.33769933668E+03  0.17232641394E+03 0.  0.
        -24    2    5    5    0    0  0.65359528382E+02  0.29505299332E+02  0.10418973703E+03  0.14928174519E+03  0.79291282659E+02 0.  0.
          5    1    3    3  501    0  0.14481206162E+02 -0.45030011914E+02  0.52411077592E+01  0.47822238712E+02  0.47000000000E+01 0. -1.
        -13    1    4    4    0    0 -0.69168838666E+02  0.37677222835E+02 -0.30952297051E+02  0.84628281654E+02  0.00000000000E+00 0.  1.
         14    1    4    4    0    0  0.13760357888E+02  0.13879122832E+02 -0.62421053708E+02  0.65409215297E+02  0.00000000000E+00 0. -1.
         -5    1    5    5    0  502 -0.24432253766E+02 -0.36031633086E+02  0.18325906575E+03  0.18841759150E+03  0.47000000000E+01 0.  1.
         11    1    6    6    0    0  0.25475426996E+02  0.54266506919E+02  0.59671531983E+02  0.84584530991E+02  0.00000000000E+00 0. -1.
        -12    1    6    6    0    0  0.39884101386E+02 -0.24761207587E+02  0.44518205045E+02  0.64697214197E+02  0.00000000000E+00 0.  1.
</event>
<event>
12    1  0.8251070E-002  0.2300333E+03  0.7818608E-02  0.1127249E+00
         21   -1    0    0  501  502  0.00000000000E+00  0.00000000000E+00  0.48213415933E+03  0.48213415933E+03  0.00000000000E+00 0. -1.
         21   -1    0    0  502  503 -0.00000000000E+00 -0.00000000000E+00 -0.64345275133E+03  0.64345275133E+03  0.00000000000E+00 0. -1.
         -6    2    1    2    0  503 -0.14260124662E+03  0.59153803779E+02 -0.59391763691E+03  0.63563051631E+03  0.16569159844E+03 0.  0.
        -24    2    3    3    0    0 -0.25138384679E+02 -0.19272860851E+02 -0.22078996635E+03  0.23663851865E+03  0.79032890102E+02 0.  0.
          6    2    1    2  501    0  0.14260124662E+03 -0.59153803779E+02  0.43259904491E+03  0.48995639435E+03  0.17053165884E+03 0.  0.
         24    2    5    5    0    0  0.20209456051E+02 -0.46510561311E+02  0.10996253681E+03  0.14462176194E+03  0.79069843168E+02 0.  0.
          5    1    5    5  501    0  0.12239179057E+03 -0.12643242468E+02  0.32263650811E+03  0.34533463241E+03  0.47000000000E+01 0. -1.
        -13    1    6    6    0    0 -0.11013022934E+01 -0.28098928572E+02 -0.29269366853E+01  0.28272417866E+02  0.00000000000E+00 0.  1.
         14    1    6    6    0    0  0.21310758344E+02 -0.18411632738E+02  0.11288947349E+03  0.11634934407E+03  0.00000000000E+00 0. -1.
         -5    1    3    3    0  503 -0.11746286194E+03  0.78426664630E+02 -0.37312767055E+03  0.39899199766E+03  0.47000000000E+01 0.  1.
         11    1    4    4    0    0 -0.25022548088E+02  0.22028338368E+01 -0.21191892615E+03  0.21340246402E+03  0.00000000000E+00 0. -1.
        -12    1    4    4    0    0 -0.11583659081E+00 -0.21475694688E+02 -0.88710402010E+01  0.23236054629E+02  0.00000000000E+00 0.  1.
</event>
<event>
12    1  0.8251070E-002  0.1842309E+03  0.7818608E-02  0.1164050E+00
         21   -1    0    0  503  502  0.00000000000E+00  0.00000000000E+00  0.53715927971E+02  0.53715927971E+02  0.00000000000E+00 0.  1.
         21   -1    0    0  501  503 -0.00000000000E+00 -0.00000000000E+00 -0.69029736890E+03  0.69029736890E+03  0.00000000000E+00 0.  1.
          6    2    1    2  501    0 -0.35074850276E+02 -0.51676208928E+02 -0.20542105236E+03  0.27514200391E+03  0.17205998336E+03 0.  0.
         24    2    3    3    0    0 -0.72874657744E+02 -0.38686753380E+02 -0.20798696051E+03  0.23481552025E+03  0.71220588166E+02 0.  0.
         -6    2    1    2    0  502  0.35074850276E+02  0.51676208928E+02 -0.43116038857E+03  0.46887129296E+03  0.17332147299E+03 0.  0.
        -24    2    5    5    0    0 -0.16887538990E+02  0.13850629573E+02 -0.93420150536E+02  0.12503787001E+03  0.80188000954E+02 0.  0.
          5    1    3    3  501    0  0.37799807468E+02 -0.12989455548E+02  0.25659081512E+01  0.40326483663E+02  0.47000000000E+01 0. -1.
        -11    1    4    4    0    0 -0.78729869615E+01 -0.29497483926E+02 -0.22135163459E+02  0.37710090732E+02  0.00000000000E+00 0.  1.
         12    1    4    4    0    0 -0.65001670782E+02 -0.91892694544E+01 -0.18585179705E+03  0.19710542952E+03  0.00000000000E+00 0. -1.
         -5    1    5    5    0  502  0.51962389266E+02  0.37825579356E+02 -0.33774023803E+03  0.34383342295E+03  0.47000000000E+01 0.  1.
         11    1    6    6    0    0 -0.56549296242E+01  0.47049206016E+02 -0.61447807563E+02  0.77597932126E+02  0.00000000000E+00 0. -1.
        -12    1    6    6    0    0 -0.11232609366E+02 -0.33198576444E+02 -0.31972342972E+02  0.47439937881E+02  0.00000000000E+00 0.  1.
</event>
<event>
12    1  0.8251070E-002  0.2247752E+03  0.7818608E-02  0.1130423E+00
         21   -1    0    0  503  502  0.00000000000E+00  0.00000000000E+00  0.35235246612E+03  0.35235246612E+03  0.00000000000E+00 0. -1.
         21   -1    0    0  501  503 -0.00000000000E+00 -0.00000000000E+00 -0.76579915988E+03  0.76579915988E+03  0.00000000000E+00 0.  1.
          6    2    1    2  501    0 -0.12581832586E+03 -0.75546684624E+02 -0.71079588596E+03  0.74540446373E+03  0.16988075338E+03 0.  0.
         24    2    3    3    0    0 -0.38484648964E+02 -0.96422190522E+02 -0.36921293702E+03  0.39218504343E+03  0.81930509572E+02 0.  0.
         -6    2    1    2    0  502  0.12581832586E+03  0.75546684624E+02  0.29734919220E+03  0.37274716227E+03  0.17025378760E+03 0.  0.
        -24    2    5    5    0    0  0.71802250231E+02  0.11181089340E+03  0.24615126100E+03  0.28982462356E+03  0.75832909164E+02 0.  0.
          5    1    3    3  501    0 -0.87333676899E+02  0.20875505898E+02 -0.34158294895E+03  0.35321942030E+03  0.47000000000E+01 0. -1.
        -13    1    4    4    0    0 -0.60016826203E+02 -0.86998127430E+02 -0.26383227704E+03  0.28421499610E+03  0.00000000000E+00 0.  1.
         14    1    4    4    0    0  0.21532177239E+02 -0.94240630927E+01 -0.10538065998E+03  0.10797004733E+03  0.00000000000E+00 0. -1.
         -5    1    5    5    0  502  0.54016075632E+02 -0.36264208778E+02  0.51197931207E+02  0.82922538702E+02  0.47000000000E+01 0.  1.
         13    1    6    6    0    0 -0.10859781006E+02  0.31621112550E-01  0.37956501440E+02  0.39479511712E+02  0.00000000000E+00 0. -1.
        -14    1    6    6    0    0  0.82662031237E+02  0.11177927229E+03  0.20819475956E+03  0.25034511185E+03  0.00000000000E+00 0.  1.
</event>
<event>
12    1  0.8251070E-002  0.1997586E+03  0.7818608E-02  0.1150253E+00
         21   -1    0    0  503  502  0.00000000000E+00  0.00000000000E+00  0.22687290457E+03  0.22687290457E+03  0.00000000000E+00 0.  1.
         21   -1    0    0  501  503 -0.00000000000E+00 -0.00000000000E+00 -0.18824791296E+03  0.18824791296E+03  0.00000000000E+00 0.  1.
          6    2    1    2  501    0 -0.99992430083E+02  0.15709779211E+02 -0.36511409622E+02  0.20306796616E+03  0.17221565727E+03 0.  0.
         24    2    3    3    0    0 -0.55055878101E+02  0.76794435523E+02 -0.24601233990E+02  0.12616171658E+03  0.79893823136E+02 0.  0.
         -6    2    1    2    0  502  0.99992430083E+02 -0.15709779211E+02  0.75136401229E+02  0.21205285137E+03  0.17051583430E+03 0.  0.
        -24    2    5    5    0    0  0.18797108604E+02 -0.61308046577E+02  0.10835659807E+02  0.98789628901E+02  0.74363777392E+02 0.  0.
          5    1    3    3  501    0 -0.44936551982E+02 -0.61084656311E+02 -0.11910175632E+02  0.76906249579E+02  0.47000000000E+01 0. -1.
        -11    1    4    4    0    0 -0.65946132481E+01 -0.13673265432E+02 -0.17673772393E+02  0.23298269079E+02  0.00000000000E+00 0.  1.
         12    1    4    4    0    0 -0.48461264853E+02  0.90467700955E+02 -0.69274615970E+01  0.10286344750E+03  0.00000000000E+00 0. -1.
         -5    1    5    5    0  502  0.81195321479E+02  0.45598267366E+02  0.64300741422E+02  0.11326322247E+03  0.47000000000E+01 0.  1.
         11    1    6    6    0    0  0.20483345008E+01  0.12693881878E+02 -0.13948411568E+02  0.18970727362E+02  0.00000000000E+00 0. -1.
        -12    1    6    6    0    0  0.16748774103E+02 -0.74001928455E+02  0.24784071376E+02  0.79818901539E+02  0.00000000000E+00 0.  1.
</event>
<event>
12    1  0.8251070E-002  0.3318194E+03  0.7818608E-02  0.1071433E+00
         21   -1    0    0  503  502  0.00000000000E+00  0.00000000000E+00  0.83841545281E+03  0.83841545281E+03  0.00000000000E+00 0.  1.
         21   -1    0    0  501  503 -0.00000000000E+00 -0.00000000000E+00 -0.17048178332E+03  0.17048178332E+03  0.00000000000E+00 0.  1.
          6    2    1    2  501    0 -0.13760439374E+03  0.23490480841E+03  0.84333381759E+02  0.34236860586E+03  0.18970741895E+03 0.  0.
         24    2    3    3    0    0 -0.78196139825E+02  0.24546139009E+03  0.79170077637E+02  0.28162708991E+03  0.81731182979E+02 0.  0.
         -6    2    1    2    0  502  0.13760439374E+03 -0.23490480841E+03  0.58360028773E+03  0.66652863027E+03  0.17191823912E+03 0.  0.
        -24    2    5    5    0    0  0.54620653998E+02 -0.14197810780E+03  0.20326718458E+03  0.26628241592E+03  0.80296810437E+02 0.  0.
          5    1    3    3  501    0 -0.59408253917E+02 -0.10556581674E+02  0.51633041225E+01  0.60741515947E+02  0.47000000000E+01 0. -1.
        -11    1    4    4    0    0  0.11845555625E+02  0.88630252978E+02  0.27370015455E+02  0.93513403730E+02  0.00000000000E+00 0.  1.
         12    1    4    4    0    0 -0.90041695450E+02  0.15683113711E+03  0.51800062182E+02  0.18811368618E+03  0.00000000000E+00 0. -1.
         -5    1    5    5    0  502  0.82983739743E+02 -0.92926700614E+02  0.38033310315E+03  0.40024621435E+03  0.47000000000E+01 0.  1.
         11    1    6    6    0    0 -0.17954508449E+02 -0.82786899408E+01  0.20368999744E+02  0.28386567797E+02  0.00000000000E+00 0. -1.
        -12    1    6    6    0    0  0.72575162447E+02 -0.13369941786E+03  0.18289818483E+03  0.23789584813E+03  0.00000000000E+00 0.  1.
</event>
<event>
12    1  0.8251070E-002  0.2128471E+03  0.7818608E-02  0.1139406E+00
         21   -1    0    0  503  502  0.00000000000E+00  0.00000000000E+00  0.33732490903E+03  0.33732490903E+03  0.00000000000E+00 0.  1.
         21   -1    0    0  501  503 -0.00000000000E+00 -0.00000000000E+00 -0.50592208975E+03  0.50592208975E+03  0.00000000000E+00 0.  1.
          6    2    1    2  501    0  0.11036924585E+03  0.61148782578E+02 -0.44574931843E+03  0.49379427742E+03  0.17093796971E+03 0.  0.
         24    2    3    3    0    0  0.11891794954E+03 -0.75471870864E+01 -0.31430989415E+03  0.34516511192E+03  0.78420699851E+02 0.  0.
         -6    2    1    2    0  502 -0.11036924585E+03 -0.61148782578E+02  0.27715213771E+03  0.34945272136E+03  0.17141573144E+03 0.  0.
        -24    2    5    5    0    0 -0.23109769119E+02  0.18692577915E+02  0.63835002966E+02  0.10549545235E+03  0.78555133286E+02 0.  0.
          5    1    3    3  501    0 -0.85487036958E+01  0.68695969664E+02 -0.13143942428E+03  0.14862916550E+03  0.47000000000E+01 0. -1.
        -13    1    4    4    0    0 -0.50860848050E+01 -0.89893002401E+01 -0.74255698448E+02  0.74970557751E+02  0.00000000000E+00 0.  1.
         14    1    4    4    0    0  0.12400403435E+03  0.14421131537E+01 -0.24005419571E+03  0.27019455417E+03  0.00000000000E+00 0. -1.
         -5    1    5    5    0  502 -0.87259476730E+02 -0.79841360493E+02  0.21331713475E+03  0.24395726901E+03  0.47000000000E+01 0.  1.
         13    1    6    6    0    0 -0.42149522404E+02 -0.13786609094E+02  0.23010916342E+02  0.49961536206E+02  0.00000000000E+00 0. -1.
        -14    1    6    6    0    0  0.19039753285E+02  0.32479187009E+02  0.40824086623E+02  0.55533916146E+02  0.00000000000E+00 0.  1.
</event>
<event>
12    1  0.8251070E-002  0.1991002E+03  0.7818608E-02  0.1151541E+00
         21   -1    0    0  503  502  0.00000000000E+00  0.00000000000E+00  0.60776670920E+03  0.60776670920E+03  0.00000000000E+00 0.  1.
         21   -1    0    0  501  503 -0.00000000000E+00 -0.00000000000E+00 -0.68909271642E+02  0.68909271642E+02  0.00000000000E+00 0. -1.
          6    2    1    2  501    0  0.72719434117E+02 -0.67951833992E+02  0.36598216133E+03  0.41663394849E+03  0.17243937132E+03 0.  0.
         24    2    3    3    0    0  0.24027317555E+02 -0.10606636333E+03  0.25012740678E+03  0.28522598178E+03  0.83443128196E+02 0.  0.
         -6    2    1    2    0  502 -0.72719434117E+02  0.67951833992E+02  0.17287527623E+03  0.26004203235E+03  0.16682454741E+03 0.  0.
        -24    2    5    5    0    0  0.10880113563E+02 -0.81049402921E+01  0.70332013223E+02  0.10736352019E+03  0.79976661947E+02 0.  0.
          5    1    3    3  501    0  0.48692116563E+02  0.38114529339E+02  0.11585475455E+03  0.13140796671E+03  0.47000000000E+01 0. -1.
        -13    1    4    4    0    0  0.17321682957E+02 -0.26807287405E+01  0.10762444940E+03  0.10904241888E+03  0.00000000000E+00 0.  1.
         14    1    4    4    0    0  0.67056345980E+01 -0.10338563459E+03  0.14250295738E+03  0.17618356290E+03  0.00000000000E+00 0. -1.
         -5    1    5    5    0  502 -0.83599547680E+02  0.76056774284E+02  0.10254326300E+03  0.15267851216E+03  0.47000000000E+01 0.  1.
         13    1    6    6    0    0 -0.17755715120E+01  0.24023376914E+02 -0.49026899859E+01  0.24582751304E+02  0.00000000000E+00 0. -1.
        -14    1    6    6    0    0  0.12655685075E+02 -0.32128317206E+02  0.75234703209E+02  0.82780768891E+02  0.00000000000E+00 0.  1.
</event>
<event>
12    1  0.8251070E-002  0.1751419E+03  0.7818608E-02  0.1172928E+00
         21   -1    0    0  501  502  0.00000000000E+00  0.00000000000E+00  0.56248170976E+02  0.56248170976E+02  0.00000000000E+00 0.  1.
         21   -1    0    0  502  503 -0.00000000000E+00 -0.00000000000E+00 -0.65638386621E+03  0.65638386621E+03  0.00000000000E+00 0.  1.
         -6    2    1    2    0  503 -0.31573746467E+01  0.24062036662E+02 -0.14982758073E+03  0.22946324224E+03  0.17209336120E+03 0.  0.
        -24    2    3    3    0    0 -0.37396713578E+02  0.31602370646E+02 -0.16619325502E+03  0.19048742586E+03  0.79170937740E+02 0.  0.
          6    2    1    2  501    0  0.31573746467E+01 -0.24062036662E+02 -0.45030811451E+03  0.48316879495E+03  0.17345240210E+03 0.  0.
         24    2    5    5    0    0  0.57806596836E+02 -0.88658438595E+01 -0.38294902514E+03  0.39498263570E+03  0.77078666485E+02 0.  0.
          5    1    5    5  501    0 -0.54649222189E+02 -0.15196192803E+02 -0.67359089375E+02  0.88186159249E+02  0.47000000000E+01 0. -1.
        -11    1    6    6    0    0  0.19006185043E+02 -0.37700658974E+02 -0.11076131552E+03  0.11853541147E+03  0.00000000000E+00 0.  1.
         12    1    6    6    0    0  0.38800411793E+02  0.28834815114E+02 -0.27218770962E+03  0.27644722423E+03  0.00000000000E+00 0. -1.
         -5    1    3    3    0  503  0.34239338932E+02 -0.75403339842E+01  0.16365674291E+02  0.38975816375E+02  0.47000000000E+01 0.  1.
         11    1    4    4    0    0  0.20678216929E+02 -0.55057727228E+01 -0.61772278443E+02  0.65373668802E+02  0.00000000000E+00 0. -1.
        -12    1    4    4    0    0 -0.58074930507E+02  0.37108143369E+02 -0.10442097657E+03  0.12511375706E+03  0.00000000000E+00 0.  1.
</event>
<event>
12    1  0.8251070E-002  0.1979324E+03  0.7818608E-02  0.1151626E+00
         21   -1    0    0  503  502  0.00000000000E+00  0.00000000000E+00  0.12387687086E+03  0.12387687086E+03  0.00000000000E+00 0.  1.
         21   -1    0    0  501  503 -0.00000000000E+00 -0.00000000000E+00 -0.31659440237E+03  0.31659440237E+03  0.00000000000E+00 0.  1.
          6    2    1    2  501    0 -0.51302002377E+02 -0.80347492847E+02 -0.11068835185E+03  0.22677992842E+03  0.17346356864E+03 0.  0.
         24    2    3    3    0    0 -0.20160055972E+02 -0.32252009868E+02  0.15451513900E+02  0.88156871030E+02  0.78014515513E+02 0.  0.
         -6    2    1    2    0  502  0.51302002377E+02  0.80347492847E+02 -0.82029179656E+02  0.21369134481E+03  0.17276454925E+03 0.  0.
        -24    2    5    5    0    0  0.61581402016E+02  0.11955859755E+03 -0.70962812124E+02  0.17140977342E+03  0.79114236374E+02 0.  0.
          5    1    3    3  501    0 -0.31141946405E+02 -0.48095482980E+02 -0.12613986575E+03  0.13862305739E+03  0.47000000000E+01 0. -1.
        -11    1    4    4    0    0  0.16780411790E+02  0.17672756581E+02  0.99190663024E+00  0.24390416638E+02  0.00000000000E+00 0.  1.
         12    1    4    4    0    0 -0.36940467762E+02 -0.49924766448E+02  0.14459607270E+02  0.63766454393E+02  0.00000000000E+00 0. -1.
         -5    1    5    5    0  502 -0.10279399639E+02 -0.39211104702E+02 -0.11066367532E+02  0.42281571390E+02  0.47000000000E+01 0.  1.
         13    1    6    6    0    0  0.26363191496E+02  0.98513208468E+02 -0.16629925866E+02  0.10332678521E+03  0.00000000000E+00 0. -1.
        -14    1    6    6    0    0  0.35218210520E+02  0.21045389081E+02 -0.54332886257E+02  0.68082988205E+02  0.00000000000E+00 0.  1.
</event>
<event>
12    1  0.8251070E-002  0.1887685E+03  0.7818608E-02  0.1159919E+00
         21   -1    0    0  501  502  0.00000000000E+00  0.00000000000E+00  0.33017423566E+03  0.33017423566E+03  0.00000000000E+00 0. -1.
         21   -1    0    0  502  503 -0.00000000000E+00 -0.00000000000E+00 -0.10669988654E+04  0.10669988654E+04  0.00000000000E+00 0. -1.
         -6    2    1    2    0  503  0.73325334654E+02 -0.13543416818E+02 -0.10308748032E+04  0.10477463584E+04  0.17178341837E+03 0.  0.
        -24    2    3    3    0    0 -0.18790412848E+02  0.41112556579E+01 -0.26151052645E+03  0.27267185957E+03  0.74781050531E+02 0.  0.
          6    2    1    2  501    0 -0.73325334654E+02  0.13543416818E+02  0.29405017353E+03  0.34942674260E+03  0.17341717057E+03 0.  0.
         24    2    5    5    0    0 -0.58610858824E+02 -0.26844717237E+02  0.28793713122E+03  0.30575551113E+03  0.80142182619E+02 0.  0.
          5    1    5    5  501    0 -0.14714475830E+02  0.40388134055E+02  0.61130423056E+01  0.43671231465E+02  0.47000000000E+01 0. -1.
        -13    1    6    6    0    0  0.16403656377E+02  0.62754455185E+00  0.18539291922E+02  0.24762453426E+02  0.00000000000E+00 0.  1.
         14    1    6    6    0    0 -0.75014515201E+02 -0.27472261789E+02  0.26939783930E+03  0.28099305771E+03  0.00000000000E+00 0. -1.
         -5    1    3    3    0  503  0.92115747502E+02 -0.17654672476E+02 -0.76936427678E+03  0.77507449886E+03  0.47000000000E+01 0.  1.
         11    1    4    4    0    0 -0.30170431251E+02 -0.35051358601E+01 -0.25618484938E+03  0.25797910371E+03  0.00000000000E+00 0. -1.
        -12    1    4    4    0    0  0.11380018403E+02  0.76163915180E+01 -0.53256770774E+01  0.14692755866E+02  0.00000000000E+00 0.  1.
</event>
<event>
12    1  0.8251070E-002  0.1917820E+03  0.7818608E-02  0.1159131E+00
         21   -1    0    0  501  502  0.00000000000E+00  0.00000000000E+00  0.10796129854E+03  0.10796129854E+03  0.00000000000E+00 0. -1.
         21   -1    0    0  502  503 -0.00000000000E+00 -0.00000000000E+00 -0.32385927657E+03  0.32385927657E+03  0.00000000000E+00 0. -1.
         -6    2    1    2    0  503  0.36023645372E+02  0.43644367470E+02 -0.11380807427E+03  0.21455881724E+03  0.17286027434E+03 0.  0.
        -24    2    3    3    0    0  0.56834342362E+02  0.49170226114E+02 -0.12016560885E+02  0.11040881762E+03  0.79986596777E+02 0.  0.
          6    2    1    2  501    0 -0.36023645372E+02 -0.43644367470E+02 -0.10208990376E+03  0.21726175788E+03  0.18324243272E+03 0.  0.
         24    2    5    5    0    0 -0.51389837839E+02  0.11271005839E+02 -0.12362632917E+03  0.15612481556E+03  0.79520675070E+02 0.  0.
          5    1    5    5  501    0  0.15366192467E+02 -0.54915373308E+02  0.21536425411E+02  0.61136942318E+02  0.47000000000E+01 0. -1.
        -11    1    6    6    0    0 -0.40655583207E+02  0.77255250711E+01 -0.13432806005E+03  0.14055812997E+03  0.00000000000E+00 0.  1.
         12    1    6    6    0    0 -0.10734254632E+02  0.35454807677E+01  0.10701730881E+02  0.15566685589E+02  0.00000000000E+00 0. -1.
         -5    1    3    3    0  503 -0.20810696990E+02 -0.55258586441E+01 -0.10179151339E+03  0.10414999962E+03  0.47000000000E+01 0.  1.
         13    1    4    4    0    0  0.66610349778E+02  0.58366088664E+02 -0.24698858987E+02  0.91943312093E+02  0.00000000000E+00 0. -1.
        -14    1    4    4    0    0 -0.97760074159E+01 -0.91958625502E+01  0.12682298102E+02  0.18465505522E+02  0.00000000000E+00 0.  1.
</event>
<event>
12    1  0.8251070E-002  0.1773560E+03  0.7818608E-02  0.1170446E+00
         21   -1    0    0  503  502  0.00000000000E+00  0.00000000000E+00  0.15136222934E+03  0.15136222934E+03  0.00000000000E+00 0. -1.
         21   -1    0    0  501  503 -0.00000000000E+00 -0.00000000000E+00 -0.25462881142E+03  0.25462881142E+03  0.00000000000E+00 0. -1.
          6    2    1    2  501    0  0.35657996688E+02  0.24486307383E+02 -0.13896336882E+03  0.22531304241E+03  0.17200022451E+03 0.  0.
         24    2    3    3    0    0  0.65967658172E+02 -0.36111464325E+02 -0.90665686256E+02  0.14197324606E+03  0.79248761197E+02 0.  0.
         -6    2    1    2    0  502 -0.35657996688E+02 -0.24486307383E+02  0.35696786739E+02  0.18067799834E+03  0.17175333046E+03 0.  0.
        -24    2    5    5    0    0 -0.53196993458E+02  0.38000619382E+02 -0.55550234153E+01  0.10363233484E+03  0.80217425487E+02 0.  0.
          5    1    3    3  501    0 -0.30309661485E+02  0.60597771709E+02 -0.48297682565E+02  0.83339796355E+02  0.47000000000E+01 0. -1.
        -11    1    4    4    0    0  0.13589382894E+02 -0.52608063124E+02 -0.45624042812E+02  0.70949509622E+02  0.00000000000E+00 0.  1.
         12    1    4    4    0    0  0.52378275279E+02  0.16496598799E+02 -0.45041643444E+02  0.71023736435E+02  0.00000000000E+00 0. -1.
         -5    1    5    5    0  502  0.17538996770E+02 -0.62486926766E+02  0.41251810154E+02  0.77045663507E+02  0.47000000000E+01 0.  1.
         13    1    6    6    0    0 -0.55828147928E+02  0.28989412356E+02 -0.35512929205E+02  0.72238052788E+02  0.00000000000E+00 0. -1.
        -14    1    6    6    0    0  0.26311544707E+01  0.90112070268E+01  0.29957905790E+02  0.31394282047E+02  0.00000000000E+00 0.  1.
</event>
<event>
12    1  0.8251070E-002  0.2465326E+03  0.7818608E-02  0.1115556E+00
         21   -1    0    0  503  502  0.00000000000E+00  0.00000000000E+00  0.13053334012E+04  0.13053334012E+04  0.00000000000E+00 0.  1.
         21   -1    0    0  501  503 -0.00000000000E+00 -0.00000000000E+00 -0.14667413723E+03  0.14667413723E+03  0.00000000000E+00 0.  1.
          6    2    1    2  501    0 -0.11897941918E+03  0.13090536258E+03 -0.20704311767E+02  0.24715203234E+03  0.17135676942E+03 0.  0.
         24    2    3    3    0    0 -0.85746470811E+01  0.88836976571E+02  0.19260264532E+02  0.12233929196E+03  0.81427339318E+02 0.  0.
         -6    2    1    2    0  502  0.11897941918E+03 -0.13090536258E+03  0.11793635758E+04  0.12048555061E+04  0.17171496920E+03 0.  0.
        -24    2    5    5    0    0  0.73262673745E+01 -0.85228054073E+02  0.42480864462E+03  0.44070363840E+03  0.80248470160E+02 0.  0.
          5    1    3    3  501    0 -0.11040477210E+03  0.42068386014E+02 -0.39964576299E+02  0.12481274039E+03  0.47000000000E+01 0. -1.
        -13    1    4    4    0    0 -0.29078402833E+02  0.92002731841E+02  0.27001318339E+02  0.10019544585E+03  0.00000000000E+00 0.  1.
         14    1    4    4    0    0  0.20503755752E+02 -0.31657552702E+01 -0.77410538072E+01  0.22143846107E+02  0.00000000000E+00 0. -1.
         -5    1    5    5    0  502  0.11165315180E+03 -0.45677308512E+02  0.75455493114E+03  0.76415186771E+03  0.47000000000E+01 0.  1.
         13    1    6    6    0    0  0.36538817469E+02 -0.56261010724E+02  0.17290955244E+03  0.18546724734E+03  0.00000000000E+00 0. -1.
        -14    1    6    6    0    0 -0.29212550094E+02 -0.28967043348E+02  0.25189909218E+03  0.25523639106E+03  0.00000000000E+00 0.  1.
</event>
<event>
12    1  0.8251070E-002  0.2223805E+03  0.7818608E-02  0.1132172E+00
         21   -1    0    0  503  502  0.00000000000E+00  0.00000000000E+00  0.69693014107E+03  0.69693014107E+03  0.00000000000E+00 0.  1.
         21   -1    0    0  501  503 -0.00000000000E+00 -0.00000000000E+00 -0.73245332330E+02  0.73245332330E+02  0.00000000000E+00 0.  1.
          6    2    1    2  501    0 -0.12636153659E+03 -0.62550402153E+02  0.24267226953E+03  0.32915484869E+03  0.17196887299E+03 0.  0.
         24    2    3    3    0    0 -0.73942497194E+02 -0.10663210642E+03  0.14573342401E+03  0.21036856112E+03  0.78605353668E+02 0.  0.
         -6    2    1    2    0  502  0.12636153659E+03  0.62550402153E+02  0.38101253921E+03  0.44102062471E+03  0.17160665968E+03 0.  0.
        -24    2    5    5    0    0  0.15042872861E+03  0.36555910850E+02  0.36004895335E+03  0.39958989648E+03  0.77921111098E+02 0.  0.
          5    1    3    3  501    0 -0.52419039400E+02  0.44081704264E+02  0.96938845523E+02  0.11878628757E+03  0.47000000000E+01 0. -1.
        -11    1    4    4    0    0 -0.76602300712E+02 -0.42960292629E+02  0.79680762990E+02  0.11858551011E+03  0.00000000000E+00 0.  1.
         12    1    4    4    0    0  0.26598035175E+01 -0.63671813788E+02  0.66052661018E+02  0.91783051014E+02  0.00000000000E+00 0. -1.
         -5    1    5    5    0  502 -0.24067192013E+02  0.25994491303E+02  0.20963585859E+02  0.41430728229E+02  0.47000000000E+01 0.  1.
         11    1    6    6    0    0  0.47400936511E+02  0.16980779848E+02  0.21366324337E+03  0.21951577901E+03  0.00000000000E+00 0. -1.
        -12    1    6    6    0    0  0.10302779210E+03  0.19575131002E+02  0.14638570998E+03  0.18007411748E+03  0.00000000000E+00 0.  1.
</event>
<event>
12    1  0.8251070E-002  0.1866508E+03  0.7818608E-02  0.1162113E+00
         21   -1    0    0  501  502  0.00000000000E+00  0.00000000000E+00  0.45179604411E+03  0.45179604411E+03  0.00000000000E+00 0.  1.
         21   -1    0    0  502  503 -0.00000000000E+00 -0.00000000000E+00 -0.35689974687E+03  0.35689974687E+03  0.00000000000E+00 0.  1.
         -6    2    1    2    0  503 -0.71956756996E+02  0.59988635737E+01 -0.31116627017E+03  0.36285391756E+03  0.17211843758E+03 0.  0.
        -24    2    3    3    0    0 -0.98988915331E+02  0.32058454511E+02 -0.15505575727E+03  0.20222259402E+03  0.77621774045E+02 0.  0.
          6    2    1    2  501    0  0.71956756996E+02 -0.59988635737E+01  0.40606256741E+03  0.44584187342E+03  0.16933518888E+03 0.  0.
         24    2    5    5    0    0  0.24253464931E+02  0.64504997975E+01  0.79868872793E+02  0.11591005147E+03  0.80163979951E+02 0.  0.
          5    1    5    5  501    0  0.47703292066E+02 -0.12449363371E+02  0.32619369462E+03  0.32993182195E+03  0.47000000000E+01 0. -1.
        -13    1    6    6    0    0  0.56102978741E+01  0.36353845628E+02  0.70384801489E+02  0.79417238776E+02  0.00000000000E+00 0.  1.
         14    1    6    6    0    0  0.18643167056E+02 -0.29903345830E+02  0.94840713038E+01  0.36492812693E+02  0.00000000000E+00 0. -1.
         -5    1    3    3    0  503  0.27032158335E+02 -0.26059590938E+02 -0.15611051291E+03  0.16063132355E+03  0.47000000000E+01 0.  1.
         11    1    4    4    0    0 -0.85162234778E+02  0.31879827450E+02 -0.16272593318E+03  0.18640992184E+03  0.00000000000E+00 0. -1.
        -12    1    4    4    0    0 -0.13826680553E+02  0.17862706169E+00  0.76701759174E+01  0.15812672176E+02  0.00000000000E+00 0.  1.
</event>
<event>
12    1  0.8251070E-002  0.1869293E+03  0.7818608E-02  0.1162455E+00
         21   -1    0    0  501  502  0.00000000000E+00  0.00000000000E+00  0.12568822080E+04  0.12568822080E+04  0.00000000000E+00 0.  1.
         21   -1    0    0  502  503 -0.00000000000E+00 -0.00000000000E+00 -0.53131589644E+03  0.53131589644E+03  0.00000000000E+00 0.  1.
         -6    2    1    2    0  503 -0.59657450005E+02 -0.12448362156E+02 -0.50851355809E+03  0.54004118265E+03  0.17130226831E+03 0.  0.
        -24    2    3    3    0    0 -0.65468169410E-01 -0.66487582765E+02 -0.29340215972E+03  0.31033170228E+03  0.76159931456E+02 0.  0.
          6    2    1    2  501    0  0.59657450005E+02  0.12448362156E+02  0.12340798696E+04  0.12481569218E+04  0.17671616702E+03 0.  0.
         24    2    5    5    0    0  0.10067469110E+03  0.47965114556E+01  0.10751797428E+04  0.10838027152E+04  0.91969812263E+02 0.  0.
          5    1    5    5  501    0 -0.41017241099E+02  0.76518507000E+01  0.15890012687E+03  0.16435420654E+03  0.47000000000E+01 0. -1.
        -11    1    6    6    0    0  0.59268481612E+02  0.37633193885E+02  0.36706554935E+03  0.37371931675E+03  0.00000000000E+00 0.  1.
         12    1    6    6    0    0  0.41406209491E+02 -0.32836682429E+02  0.70811419341E+03  0.71008339849E+03  0.00000000000E+00 0. -1.
         -5    1    3    3    0  503 -0.59591981836E+02  0.54039220609E+02 -0.21511139837E+03  0.22970948037E+03  0.47000000000E+01 0.  1.
         11    1    4    4    0    0  0.24499974658E+02 -0.95909268902E+01 -0.30761727317E+02  0.40478617866E+02  0.00000000000E+00 0. -1.
        -12    1    4    4    0    0 -0.24565442827E+02 -0.56896655875E+02 -0.26264043241E+03  0.26985308441E+03  0.00000000000E+00 0.  1.
</event>
<event>
12    1  0.8251070E-002  0.2529539E+03  0.7818608E-02  0.1111602E+00
         21   -1    0    0  501  502  0.00000000000E+00  0.00000000000E+00  0.23859528685E+03  0.23859528685E+03  0.00000000000E+00 0.  1.
         21   -1    0    0  502  503 -0.00000000000E+00 -0.00000000000E+00 -0.28173459906E+03  0.28173459906E+03  0.00000000000E+00 0.  1.
         -6    2    1    2    0  503  0.12379965665E+03 -0.13942983447E+03 -0.80707136544E+02  0.26460145672E+03  0.16950886490E+03 0.  0.
        -24    2    3    3    0    0  0.87977820391E+02 -0.18216448770E+02 -0.37581236141E+02  0.13096829425E+03  0.87569451874E+02 0.  0.
          6    2    1    2  501    0 -0.12379965665E+03  0.13942983447E+03  0.37567824329E+02  0.25572842920E+03  0.17093464935E+03 0.  0.
         24    2    5    5    0    0 -0.10527719627E+03  0.16907919544E+03  0.46378305964E+02  0.21937075145E+03  0.79382094590E+02 0.  0.
          5    1    5    5  501    0 -0.18522460380E+02 -0.29649360971E+02 -0.88104816351E+01  0.36357677747E+02  0.47000000000E+01 0. -1.
        -13    1    6    6    0    0 -0.68942080959E+02  0.76043894011E+02 -0.12543407350E+02  0.10340706654E+03  0.00000000000E+00 0.  1.
         14    1    6    6    0    0 -0.36335115314E+02  0.93035301431E+02  0.58921713314E+02  0.11596368491E+03  0.00000000000E+00 0. -1.
         -5    1    3    3    0  503  0.35821836262E+02 -0.12121338570E+03 -0.43125900402E+02  0.13363316247E+03  0.47000000000E+01 0.  1.
         13    1    4    4    0    0  0.37015031493E+02 -0.51444307472E+02 -0.99651723026E+01  0.64155545253E+02  0.00000000000E+00 0. -1.
        -14    1    4    4    0    0  0.50962788898E+02  0.33227858702E+02 -0.27616063839E+02  0.66812748994E+02  0.00000000000E+00 0.  1.
</event>
<event>
12    1  0.8251070E-002  0.2630869E+03  0.7818608E-02  0.1105370E+00
         21   -1    0    0  503  502  0.00000000000E+00  0.00000000000E+00  0.11138924519E+04  0.11138924519E+04  0.00000000000E+00 0. -1.
         21   -1    0    0  501  503 -0.00000000000E+00 -0.00000000000E+00 -0.79304672494E+02  0.79304672494E+02  0.00000000000E+00 0.  1.
          6    2    1    2  501    0  0.19892289692E+03 -0.96354336947E+00  0.23849896448E+03  0.35476279223E+03  0.17147488259E+03 0.  0.
         24    2    3    3    0    0  0.11635844875E+03 -0.33629059900E+02  0.70957074461E+02  0.16508860057E+03  0.86885771890E+02 0.  0.
         -6    2    1    2    0  502 -0.19892289692E+03  0.96354336947E+00  0.79608881496E+03  0.83843433219E+03  0.17217282239E+03 0.  0.
        -24    2    5    5    0    0 -0.16575396390E+03 -0.88717127525E+01  0.78038074186E+03  0.80014929672E+03  0.60759451522E+02 0.  0.
          5    1    3    3  501    0  0.82564448167E+02  0.32665516531E+02  0.16754189002E+03  0.18967419166E+03  0.47000000000E+01 0. -1.
        -11    1    4    4    0    0  0.19465852269E+02 -0.23843939926E+02  0.59553407215E+02  0.67037759410E+02  0.00000000000E+00 0.  1.
         12    1    4    4    0    0  0.96892596479E+02 -0.97851199749E+01  0.11403667246E+02  0.98050841159E+02  0.00000000000E+00 0. -1.
         -5    1    5    5    0  502 -0.33168933016E+02  0.98352561220E+01  0.15708073097E+02  0.38285035469E+02  0.47000000000E+01 0.  1.
         13    1    6    6    0    0 -0.23971973873E+02 -0.10875430497E+02  0.54199065053E+02  0.60253374780E+02  0.00000000000E+00 0. -1.
        -14    1    6    6    0    0 -0.14178199003E+03  0.20037177444E+01  0.72618167681E+03  0.73989592194E+03  0.00000000000E+00 0.  1.
</event>
<event>
12    1  0.8251070E-002  0.2855165E+03  0.7818608E-02  0.1093223E+00
         21   -1    0    0  503  502  0.00000000000E+00  0.00000000000E+00  0.20698317687E+03  0.20698317687E+03  0.00000000000E+00 0. -1.
         21   -1    0    0  501  503 -0.00000000000E+00 -0.00000000000E+00 -0.39853320802E+03  0.39853320802E+03  0.00000000000E+00 0.  1.
          6    2    1    2  501    0 -0.81765173955E+02  0.21263081707E+03 -0.14288886581E+03  0.31588289137E+03  0.16573281222E+03 0.  0.
         24    2    3    3    0    0  0.16323825901E+02  0.11369885418E+03 -0.58330945182E+02  0.15284572654E+03  0.82252174574E+02 0.  0.
         -6    2    1    2    0  502  0.81765173955E+02 -0.21263081707E+03 -0.48661165333E+02  0.28963349352E+03  0.17211113711E+03 0.  0.
        -24    2    5    5    0    0  0.88394316544E+02 -0.12261790025E+03  0.19197603756E+02  0.17661502924E+03  0.89306303835E+02 0.  0.
          5    1    3    3  501    0 -0.98088999856E+02  0.98931962892E+02 -0.84557920631E+02  0.16303716483E+03  0.47000000000E+01 0. -1.
        -11    1    4    4    0    0  0.19039696854E+01  0.56513964296E+02 -0.72742594684E+02  0.92135434781E+02  0.00000000000E+00 0.  1.
         12    1    4    4    0    0  0.14419856216E+02  0.57184889882E+02  0.14411649501E+02  0.60710291759E+02  0.00000000000E+00 0. -1.
         -5    1    5    5    0  502 -0.66291425887E+01 -0.90012916818E+02 -0.67858769089E+02  0.11301846428E+03  0.47000000000E+01 0.  1.
         11    1    6    6    0    0  0.94533603027E+02 -0.97313532144E+02 -0.11740641534E+02  0.13617770854E+03  0.00000000000E+00 0. -1.
        -12    1    6    6    0    0 -0.61392864832E+01 -0.25304368107E+02  0.30938245291E+02  0.40437320702E+02  0.00000000000E+00 0.  1.
</event>
<event>
12    1  0.8251070E-002  0.1809760E+03  0.7818608E-02  0.1167890E+00
         21   -1    0    0  503  502  0.00000000000E+00  0.00000000000E+00  0.18444593563E+03  0.18444593563E+03  0.00000000000E+00 0.  1.
         21   -1    0    0  501  503 -0.00000000000E+00 -0.00000000000E+00 -0.22150678179E+03  0.22150678179E+03  0.00000000000E+00 0.  1.
          6    2    1    2  501    0  0.35540496313E+02  0.22999861239E+02 -0.11324175762E+03  0.21348538520E+03  0.17595508952E+03 0.  0.
         24    2    3    3    0    0 -0.31984003493E+01  0.78491339373E+02 -0.58722336154E+02  0.12645399099E+03  0.79819665206E+02 0.  0.
         -6    2    1    2    0  502 -0.35540496313E+02 -0.22999861239E+02  0.76180911458E+02  0.19246733223E+03  0.17160426046E+03 0.  0.
        -24    2    5    5    0    0 -0.47571775376E+02  0.31943627556E+02  0.90728557037E+02  0.13418129077E+03  0.80557299958E+02 0.  0.
          5    1    3    3  501    0  0.38738896662E+02 -0.55491478134E+02 -0.54519421465E+02  0.87031394204E+02  0.47000000000E+01 0. -1.
        -13    1    4    4    0    0 -0.28937611069E+02  0.41091242233E+01 -0.17337014228E+01  0.29279275211E+02  0.00000000000E+00 0.  1.
         14    1    4    4    0    0  0.25739210719E+02  0.74382215150E+02 -0.56988634731E+02  0.97174715783E+02  0.00000000000E+00 0. -1.
         -5    1    5    5    0  502  0.12031279063E+02 -0.54943488795E+02 -0.14547645579E+02  0.58286041457E+02  0.47000000000E+01 0.  1.
         11    1    6    6    0    0 -0.53342771833E+02  0.42696072739E+02  0.34306899157E+02  0.76455014642E+02  0.00000000000E+00 0. -1.
        -12    1    6    6    0    0  0.57709964573E+01 -0.10752445183E+02  0.56421657880E+02  0.57726276127E+02  0.00000000000E+00 0.  1.
</event>
<event>
12    1  0.8251070E-002  0.1754759E+03  0.7818608E-02  0.1172787E+00
         21   -1    0    0  503  502  0.00000000000E+00  0.00000000000E+00  0.53456773695E+02  0.53456773695E+02  0.00000000000E+00 0.  1.
         21   -1    0    0  501  503 -0.00000000000E+00 -0.00000000000E+00 -0.57061776824E+03  0.57061776824E+03  0.00000000000E+00 0.  1.
          6    2    1    2  501    0 -0.28360299006E+01 -0.26114158691E+02 -0.27625075265E+03  0.32727096291E+03  0.17349873911E+03 0.  0.
         24    2    3    3    0    0  0.33967242359E+02  0.40808148618E+02 -0.12558539666E+03  0.15828807750E+03  0.80401150968E+02 0.  0.
         -6    2    1    2    0  502  0.28360299006E+01  0.26114158691E+02 -0.24091024189E+03  0.29680357903E+03  0.17136110272E+03 0.  0.
        -24    2    5    5    0    0  0.64898827044E+02 -0.70365402421E+01 -0.13778856291E+03  0.17187587872E+03  0.79336365969E+02 0.  0.
          5    1    3    3  501    0 -0.36803272260E+02 -0.66922307309E+02 -0.15066535600E+03  0.16898288541E+03  0.47000000000E+01 0. -1.
        -11    1    4    4    0    0  0.17994162429E+01  0.47617188849E+02 -0.27901751254E+02  0.55219039250E+02  0.00000000000E+00 0.  1.
         12    1    4    4    0    0  0.32167826116E+02 -0.68090402311E+01 -0.97683645402E+02  0.10306903825E+03  0.00000000000E+00 0. -1.
         -5    1    5    5    0  502 -0.62062797144E+02  0.33150698933E+02 -0.10312167898E+03  0.12492770031E+03  0.47000000000E+01 0.  1.
         11    1    6    6    0    0  0.11334863862E+02  0.11141674212E+02  0.62886958404E+01  0.17092797852E+02  0.00000000000E+00 0. -1.
        -12    1    6    6    0    0  0.53563963182E+02 -0.18178214454E+02 -0.14407725875E+03  0.15478308087E+03  0.00000000000E+00 0.  1.
</event>
<event>
12    1  0.8251070E-002  0.1808960E+03  0.7818608E-02  0.1167166E+00
         21   -1    0    0  501  502  0.00000000000E+00  0.00000000000E+00  0.21644887575E+03  0.21644887575E+03  0.00000000000E+00 0.  1.
         21   -1    0    0  502  503 -0.00000000000E+00 -0.00000000000E+00 -0.37429440246E+03  0.37429440246E+03  0.00000000000E+00 0.  1.
         -6    2    1    2    0  503  0.48199998975E+02  0.28748469547E+02 -0.30745397986E+03  0.35672303097E+03  0.17196992961E+03 0.  0.
        -24    2    3    3    0    0  0.41743222210E+02  0.76480148730E+02 -0.27112460736E+03  0.29620926006E+03  0.81484128982E+02 0.  0.
          6    2    1    2  501    0 -0.48199998975E+02 -0.28748469547E+02  0.14960845315E+03  0.23402024724E+03  0.17097681849E+03 0.  0.
         24    2    5    5    0    0  0.33202174108E+02 -0.27240293575E+01  0.41284060833E+02  0.95962834399E+02  0.79966788141E+02 0.  0.
          5    1    5    5  501    0 -0.81402173083E+02 -0.26024440189E+02  0.10832439232E+03  0.13805741284E+03  0.47000000000E+01 0. -1.
        -11    1    6    6    0    0 -0.16829182577E+02 -0.26341578071E+02  0.16383100705E+02  0.35291728638E+02  0.00000000000E+00 0.  1.
         12    1    6    6    0    0  0.50031356685E+02  0.23617548714E+02  0.24900960128E+02  0.60671105761E+02  0.00000000000E+00 0. -1.
         -5    1    3    3    0  503  0.64567767652E+01 -0.47731679183E+02 -0.36329372493E+02  0.60513770909E+02  0.47000000000E+01 0.  1.
         13    1    4    4    0    0  0.17138088750E+01 -0.97227491218E+01 -0.10851242766E+01  0.99320937390E+01  0.00000000000E+00 0. -1.
        -14    1    4    4    0    0  0.40029413335E+02  0.86202897852E+02 -0.27003948309E+03  0.28627716632E+03  0.00000000000E+00 0.  1.
</event>
<event>
12    1  0.8251070E-002  0.1945841E+03  0.7818608E-02  0.1154711E+00
         21   -1    0    0  501  502  0.00000000000E+00  0.00000000000E+00  0.16642947788E+02  0.16642947788E+02  0.00000000000E+00 0. -1.
         21   -1    0    0  502  503 -0.00000000000E+00 -0.00000000000E+00 -0.22928662824E+04  0.22928662824E+04  0.00000000000E+00 0. -1.
         -6    2    1    2    0  503 -0.28158171758E+02 -0.85452628141E+02 -0.12848322279E+04  0.12994832911E+04  0.17253386798E+03 0.  0.
        -24    2    3    3    0    0 -0.61549856336E+02 -0.11160190075E+03 -0.91414132193E+03  0.92634440696E+03  0.78843102305E+02 0.  0.
          6    2    1    2  501    0  0.28158171758E+02  0.85452628141E+02 -0.99139110666E+03  0.10100259391E+04  0.17088310903E+03 0.  0.
         24    2    5    5    0    0 -0.45282676634E+02  0.19487996180E+02 -0.52387312081E+03  0.53217654023E+03  0.79614825689E+02 0.  0.
          5    1    5    5  501    0  0.73440848391E+02  0.65964631961E+02 -0.46751798586E+03  0.47784939885E+03  0.47000000000E+01 0. -1.
        -13    1    6    6    0    0 -0.46798087322E+02  0.46697841456E+02 -0.35165988713E+03  0.35782038174E+03  0.00000000000E+00 0.  1.
         14    1    6    6    0    0  0.15154106879E+01 -0.27209845276E+02 -0.17221323368E+03  0.17435615849E+03  0.00000000000E+00 0. -1.
         -5    1    3    3    0  503  0.33391684579E+02  0.26149272612E+02 -0.37069090600E+03  0.37313888413E+03  0.47000000000E+01 0.  1.
         11    1    4    4    0    0 -0.65892436393E+02 -0.45413693958E+02 -0.59708017908E+03  0.60241925353E+03  0.00000000000E+00 0. -1.
        -12    1    4    4    0    0  0.43425800569E+01 -0.66188206795E+02 -0.31706114285E+03  0.32392515343E+03  0.00000000000E+00 0.  1.
</event>
<event>
12    1  0.8251070E-002  0.1734649E+03  0.7818608E-02  0.1174589E+00
         21   -1    0    0  501  502  0.00000000000E+00  0.00000000000E+00  0.74086899446E+02  0.74086899446E+02  0.00000000000E+00 0. -1.
         21   -1    0    0  502  503 -0.00000000000E+00 -0.00000000000E+00 -0.42853273705E+03  0.42853273705E+03  0.00000000000E+00 0. -1.
         -6    2    1    2    0  503  0.14944203501E+02 -0.18305865458E+01 -0.23758914020E+03  0.29346521508E+03  0.17159997859E+03 0.  0.
        -24    2    3    3    0    0 -0.19975424677E+02  0.49674017230E+02 -0.19690042053E+03  0.21896845977E+03  0.79441080001E+02 0.  0.
          6    2    1    2  501    0 -0.14944203501E+02  0.18305865458E+01 -0.11685669741E+03  0.20915442142E+03  0.17281031221E+03 0.  0.
         24    2    5    5    0    0 -0.72876108161E+02  0.22972302457E+02 -0.76879803880E+02  0.13551122931E+03  0.81327333677E+02 0.  0.
          5    1    5    5  501    0  0.57931904660E+02 -0.21141715911E+02 -0.39976893526E+02  0.73643192117E+02  0.47000000000E+01 0. -1.
        -13    1    6    6    0    0 -0.61611850862E+02  0.32934380024E+02 -0.91107483275E+02  0.11480969934E+03  0.00000000000E+00 0.  1.
         14    1    6    6    0    0 -0.11264257299E+02 -0.99620775673E+01  0.14227679395E+02  0.20701529966E+02  0.00000000000E+00 0. -1.
         -5    1    3    3    0  503  0.34919628178E+02 -0.51504603776E+02 -0.40688719673E+02  0.74496755304E+02  0.47000000000E+01 0.  1.
         11    1    4    4    0    0 -0.11731740757E+02 -0.14165099331E+02 -0.10600675923E+03  0.10759050508E+03  0.00000000000E+00 0. -1.
        -12    1    4    4    0    0 -0.82436839201E+01  0.63839116561E+02 -0.90893661299E+02  0.11137795470E+03  0.00000000000E+00 0.  1.
</event>
<event>
12    1  0.8251070E-002  0.1803983E+03  0.7818608E-02  0.1167430E+00
         21   -1    0    0  503  502  0.00000000000E+00  0.00000000000E+00  0.17777915553E+03  0.17777915553E+03  0.00000000000E+00 0. -1.
         21   -1    0    0  501  503 -0.00000000000E+00 -0.00000000000E+00 -0.18980553040E+03  0.18980553040E+03  0.00000000000E+00 0. -1.
          6    2    1    2  501    0  0.12620643913E+02 -0.52072594681E+02 -0.40794652084E+02  0.18490697003E+03  0.17220786323E+03 0.  0.
         24    2    3    3    0    0  0.16700413683E+02  0.35702460531E+02 -0.47302393579E+01  0.89807881162E+02  0.80557500267E+02 0.  0.
         -6    2    1    2    0  502 -0.12620643913E+02  0.52072594681E+02  0.28768277213E+02  0.18267771590E+03  0.17225765105E+03 0.  0.
        -24    2    5    5    0    0  0.50023906359E+02 -0.70938896518E+01  0.10164601160E+02  0.94398616963E+02  0.79088970722E+02 0.  0.
          5    1    3    3  501    0 -0.40797697706E+01 -0.87775055212E+02 -0.36064412727E+02  0.95099088872E+02  0.47000000000E+01 0. -1.
        -13    1    4    4    0    0  0.48060909214E+02  0.32609385546E+02 -0.11323184824E+01  0.58090491178E+02  0.00000000000E+00 0.  1.
         14    1    4    4    0    0 -0.31360495531E+02  0.30930749854E+01 -0.35979208755E+01  0.31717389984E+02  0.00000000000E+00 0. -1.
         -5    1    5    5    0  502 -0.62644550272E+02  0.59166484333E+02  0.18603676053E+02  0.88279098940E+02  0.47000000000E+01 0.  1.
         13    1    6    6    0    0 -0.12705958431E+02  0.21450014924E+02  0.27972827268E+01  0.25087234016E+02  0.00000000000E+00 0. -1.
        -14    1    6    6    0    0  0.62729864791E+02 -0.28543904576E+02  0.73673184331E+01  0.69311382947E+02  0.00000000000E+00 0.  1.
</event>
<event>
12    1  0.8251070E-002  0.2092430E+03  0.7818608E-02  0.1142285E+00
         21   -1    0    0  501  502  0.00000000000E+00  0.00000000000E+00  0.15106405581E+03  0.15106405581E+03  0.00000000000E+00 0. -1.
         21   -1    0    0  502  503 -0.00000000000E+00 -0.00000000000E+00 -0.30053972572E+03  0.30053972572E+03  0.00000000000E+00 0.  1.
         -6    2    1    2    0  503 -0.33645486785E+02  0.11295613079E+03 -0.30610333150E+02  0.21147016175E+03  0.17289167289E+03 0.  0.
        -24    2    3    3    0    0  0.35318319285E+01 -0.93452939453E+01 -0.19773392793E+02  0.83098354900E+02  0.80090830742E+02 0.  0.
          6    2    1    2  501    0  0.33645486785E+02 -0.11295613079E+03 -0.11886533676E+03  0.24013361979E+03  0.17217456492E+03 0.  0.
         24    2    5    5    0    0  0.39159275895E+02 -0.10140988679E+03 -0.15276684689E+03  0.20359432573E+03  0.79344350368E+02 0.  0.
          5    1    5    5  501    0 -0.55137891096E+01 -0.11546244002E+02  0.33901510129E+02  0.36539294054E+02  0.47000000000E+01 0. -1.
        -11    1    6    6    0    0  0.56005281975E+02 -0.58287479237E+02 -0.62608133953E+02  0.10224382760E+03  0.00000000000E+00 0.  1.
         12    1    6    6    0    0 -0.16846006080E+02 -0.43122407549E+02 -0.90158712936E+02  0.10135049813E+03  0.00000000000E+00 0. -1.
         -5    1    3    3    0  503 -0.37177318714E+02  0.12230142473E+03 -0.10836940358E+02  0.12837180685E+03  0.47000000000E+01 0.  1.
         11    1    4    4    0    0 -0.30105044732E+02  0.57653321536E+01  0.13441453680E+02  0.33469769198E+02  0.00000000000E+00 0. -1.
        -12    1    4    4    0    0  0.33636876661E+02 -0.15110626099E+02 -0.33214846473E+02  0.49628585702E+02  0.00000000000E+00 0.  1.
</event>
<event>
12    1  0.8251070E-002  0.2064851E+03  0.7818608E-02  0.1144469E+00
         21   -1    0    0  501  502  0.00000000000E+00  0.00000000000E+00  0.88272900810E+03  0.88272900810E+03  0.00000000000E+00 0.  1.
         21   -1    0    0  502  503 -0.00000000000E+00 -0.00000000000E+00 -0.82368882339E+02  0.82368882339E+02  0.00000000000E+00 0. -1.
         -6    2    1    2    0  503 -0.79624958288E+02  0.80182332441E+02  0.89127099527E+02  0.22449778066E+03  0.17229704940E+03 0.  0.
        -24    2    3    3    0    0 -0.10822232941E+03  0.76831903159E+02  0.29071848054E+02  0.15773133519E+03  0.80117337856E+02 0.  0.
          6    2    1    2  501    0  0.79624958288E+02 -0.80182332441E+02  0.71123302624E+03  0.74060010979E+03  0.17282003526E+03 0.  0.
         24    2    5    5    0    0  0.33661758526E+02  0.89178006805E+01  0.17433925309E+03  0.19440558117E+03  0.78655665169E+02 0.  0.
          5    1    5    5  501    0  0.45963199761E+02 -0.89100133122E+02  0.53689377314E+03  0.54619452862E+03  0.47000000000E+01 0. -1.
        -11    1    6    6    0    0 -0.18733632545E+02 -0.15291066628E+01  0.10603648016E+03  0.10768947154E+03  0.00000000000E+00 0.  1.
         12    1    6    6    0    0  0.52395391072E+02  0.10446907343E+02  0.68302772938E+02  0.86716109631E+02  0.00000000000E+00 0. -1.
         -5    1    3    3    0  503  0.28597371118E+02  0.33504292824E+01  0.60055251473E+02  0.66766445470E+02  0.47000000000E+01 0.  1.
         13    1    4    4    0    0 -0.30485320833E+02  0.23048579949E+02  0.47969196674E+02  0.61332174700E+02  0.00000000000E+00 0. -1.
        -14    1    4    4    0    0 -0.77737008573E+02  0.53783323210E+02 -0.18897348620E+02  0.96399160485E+02  0.00000000000E+00 0.  1.
</event>
<event>
12    1  0.8251070E-002  0.1774745E+03  0.7818608E-02  0.1170452E+00
         21   -1    0    0  501  502  0.00000000000E+00  0.00000000000E+00  0.18416415098E+04  0.18416415098E+04  0.00000000000E+00 0.  1.
         21   -1    0    0  502  503 -0.00000000000E+00 -0.00000000000E+00 -0.21520123887E+03  0.21520123887E+03  0.00000000000E+00 0.  1.
         -6    2    1    2    0  503  0.87794593866E+01  0.45492882662E+02 -0.17353196359E+03  0.24821473446E+03  0.17131996596E+03 0.  0.
        -24    2    3    3    0    0  0.67946515405E+02  0.39763628383E+02 -0.14334311529E+03  0.18137895487E+03  0.78442344876E+02 0.  0.
          6    2    1    2  501    0 -0.87794593866E+01 -0.45492882662E+02  0.17999722346E+04  0.18086280142E+04  0.17055370833E+03 0.  0.
         24    2    5    5    0    0  0.32773571040E+02 -0.60417823726E+00  0.15043920870E+04  0.15067482969E+04  0.77591279979E+02 0.  0.
          5    1    5    5  501    0 -0.41553030426E+02 -0.44888704424E+02  0.29558014757E+03  0.30187971737E+03  0.47000000000E+01 0. -1.
        -11    1    6    6    0    0  0.13935945939E+02  0.37755487539E+02  0.60102170847E+03  0.60236764644E+03  0.00000000000E+00 0.  1.
         12    1    6    6    0    0  0.18837625101E+02 -0.38359665777E+02  0.90337037852E+03  0.90438065043E+03  0.00000000000E+00 0. -1.
         -5    1    3    3    0  503 -0.59167056018E+02  0.57292542785E+01 -0.30188848304E+02  0.66835779597E+02  0.47000000000E+01 0.  1.
         11    1    4    4    0    0  0.38713684406E+02 -0.11809342083E+02 -0.21386747827E+02  0.45777755552E+02  0.00000000000E+00 0. -1.
        -12    1    4    4    0    0  0.29232830999E+02  0.51572970467E+02 -0.12195636746E+03  0.13560119931E+03  0.00000000000E+00 0.  1.
</event>
<event>
12    1  0.8251070E-002  0.2520652E+03  0.7818608E-02  0.1112070E+00
         21   -1    0    0  501  502  0.00000000000E+00  0.00000000000E+00  0.13849551573E+04  0.13849551573E+04  0.00000000000E+00 0.  1.
         21   -1    0    0  502  503 -0.00000000000E+00 -0.00000000000E+00 -0.46392820864E+02  0.46392820864E+02  0.00000000000E+00 0. -1.
         -6    2    1    2    0  503  0.53670422572E+02 -0.17535063759E+03  0.58807030927E+03  0.63965664615E+03  0.17235305614E+03 0.  0.
        -24    2    3    3    0    0  0.55251526290E+02 -0.24999211667E+02  0.21659866106E+03  0.23888074045E+03  0.80444617250E+02 0.  0.
          6    2    1    2  501    0 -0.53670422572E+02  0.17535063759E+03  0.75049202720E+03  0.79169133205E+03  0.17294080486E+03 0.  0.
         24    2    5    5    0    0 -0.64434142534E+02  0.99906672567E+02  0.65216264898E+03  0.66719873730E+03  0.75531002808E+02 0.  0.
          5    1    5    5  501    0  0.10763719962E+02  0.75443965020E+02  0.98329378220E+02  0.12449259475E+03  0.47000000000E+01 0. -1.
        -11    1    6    6    0    0 -0.94360670507E+01  0.80722883562E+02  0.33380980565E+03  0.34356107119E+03  0.00000000000E+00 0.  1.
         12    1    6    6    0    0 -0.54998075483E+02  0.19183789005E+02  0.31835284333E+03  0.32363766611E+03  0.00000000000E+00 0. -1.
         -5    1    3    3    0  503 -0.15811037178E+01 -0.15035142592E+03  0.37147164822E+03  0.40077590570E+03  0.47000000000E+01 0.  1.
         11    1    4    4    0    0  0.64345047341E+02 -0.30986047511E+02  0.10640223901E+03  0.12814779251E+03  0.00000000000E+00 0. -1.
        -12    1    4    4    0    0 -0.90935210508E+01  0.59868358437E+01  0.11019642204E+03  0.11073294794E+03  0.00000000000E+00 0.  1.
</event>
<event>
12    1  0.8251070E-002  0.2057805E+03  0.7818608E-02  0.1145102E+00
         21   -1    0    0  503  502  0.00000000000E+00  0.00000000000E+00  0.35344473457E+03  0.35344473457E+03  0.00000000000E+00 0. -1.
         21   -1    0    0  501  503 -0.00000000000E+00 -0.00000000000E+00 -0.11963161266E+03  0.11963161266E+03  0.00000000000E+00 0.  1.
          6    2    1    2  501    0  0.10969323253E+03  0.19070476306E+02  0.12755041156E+03  0.24147892107E+03  0.17218209401E+03 0.  0.
         24    2    3    3    0    0  0.15836033626E+02 -0.10440405813E+02  0.26712809512E+01  0.82428761643E+02  0.80172208212E+02 0.  0.
         -6    2    1    2    0  502 -0.10969323253E+03 -0.19070476306E+02  0.10626271034E+03  0.23159742616E+03  0.17305870642E+03 0.  0.
        -24    2    5    5    0    0 -0.12583791864E+03  0.26855414098E+02  0.59349428058E+02  0.16382734166E+03  0.82223161150E+02 0.  0.
          5    1    3    3  501    0  0.93857198908E+02  0.29510882119E+02  0.12487913061E+03  0.15905015942E+03  0.47000000000E+01 0. -1.
        -13    1    4    4    0    0 -0.16140295763E+02  0.27848738305E+02  0.45510244029E+01  0.32508048167E+02  0.00000000000E+00 0.  1.
         14    1    4    4    0    0  0.31976329389E+02 -0.38289144118E+02 -0.18797434516E+01  0.49920713476E+02  0.00000000000E+00 0. -1.
         -5    1    5    5    0  502  0.16144686110E+02 -0.45925890404E+02  0.46913282284E+02  0.67770084504E+02  0.47000000000E+01 0.  1.
         13    1    6    6    0    0 -0.69341468967E+02  0.75348780761E+01  0.74675144490E+02  0.10218312439E+03  0.00000000000E+00 0. -1.
        -14    1    6    6    0    0 -0.56496449677E+02  0.19320536022E+02 -0.15325716432E+02  0.61644217267E+02  0.00000000000E+00 0.  1.
</event>
<event>
12    1  0.8251070E-002  0.1828209E+03  0.7818608E-02  0.1165396E+00
         21   -1    0    0  501  502  0.00000000000E+00  0.00000000000E+00  0.94908850184E+02  0.94908850184E+02  0.00000000000E+00 0.  1.
         21   -1    0    0  502  503 -0.00000000000E+00 -0.00000000000E+00 -0.76352026912E+03  0.76352026912E+03  0.00000000000E+00 0.  1.
         -6    2    1    2    0  503  0.58675276161E+02  0.87730336342E+01 -0.64974201544E+03  0.67463697670E+03  0.17161179897E+03 0.  0.
        -24    2    3    3    0    0 -0.14750010076E+02 -0.96137946839E+01 -0.49886730598E+03  0.50577426302E+03  0.81418844955E+02 0.  0.
          6    2    1    2  501    0 -0.58675276161E+02 -0.87730336342E+01 -0.18869403492E+02  0.18379214261E+03  0.17292698790E+03 0.  0.
         24    2    5    5    0    0 -0.31885854110E+02  0.17577818938E+02 -0.75520114994E+02  0.11564939773E+03  0.79660580067E+02 0.  0.
          5    1    5    5  501    0 -0.26789422051E+02 -0.26350852572E+02  0.56650711501E+02  0.68142744872E+02  0.47000000000E+01 0. -1.
        -11    1    6    6    0    0 -0.51267780493E+02  0.56401133898E+01 -0.19428836519E+02  0.55115114843E+02  0.00000000000E+00 0.  1.
         12    1    6    6    0    0  0.19381926383E+02  0.11937705548E+02 -0.56091278475E+02  0.60534282890E+02  0.00000000000E+00 0. -1.
         -5    1    3    3    0  503  0.73425286237E+02  0.18386828318E+02 -0.15087470946E+03  0.16886271368E+03  0.47000000000E+01 0.  1.
         11    1    4    4    0    0 -0.21227342246E+02  0.13726754364E+02 -0.47937603194E+02  0.54194442927E+02  0.00000000000E+00 0. -1.
        -12    1    4    4    0    0  0.64773321699E+01 -0.23340549048E+02 -0.45092970279E+03  0.45157982009E+03  0.00000000000E+00 0.  1.
</event>
<event>
12    1  0.8251070E-002  0.2896035E+03  0.7818608E-02  0.1090994E+00
         21   -1    0    0  501  502  0.00000000000E+00  0.00000000000E+00  0.95037687901E+03  0.95037687901E+03  0.00000000000E+00 0.  1.
         21   -1    0    0  502  503 -0.00000000000E+00 -0.00000000000E+00 -0.87299800870E+02  0.87299800870E+02  0.00000000000E+00 0. -1.
         -6    2    1    2    0  503 -0.82675082187E+02  0.21599417925E+03  0.44272058414E+03  0.52721635038E+03  0.16872139698E+03 0.  0.
        -24    2    3    3    0    0 -0.23651086138E+02  0.11564935475E+03  0.12719804539E+03  0.19086909177E+03  0.79482830296E+02 0.  0.
          6    2    1    2  501    0  0.82675082187E+02 -0.21599417925E+03  0.42035649400E+03  0.51046032951E+03  0.17430292959E+03 0.  0.
         24    2    5    5    0    0  0.54761358294E+02 -0.11635878322E+03  0.35987301028E+03  0.39051563421E+03  0.80347397255E+02 0.  0.
          5    1    5    5  501    0  0.27913723893E+02 -0.99635396038E+02  0.60483483725E+02  0.11994469529E+03  0.47000000000E+01 0. -1.
        -13    1    6    6    0    0  0.47168449494E+02 -0.15422967266E+02  0.13775410439E+03  0.14642036683E+03  0.00000000000E+00 0.  1.
         14    1    6    6    0    0  0.75929087995E+01 -0.10093581595E+03  0.22211890589E+03  0.24409526738E+03  0.00000000000E+00 0. -1.
         -5    1    3    3    0  503 -0.59023996049E+02  0.10034482451E+03  0.31552253875E+03  0.33634725861E+03  0.47000000000E+01 0.  1.
         13    1    4    4    0    0 -0.44326589656E+02  0.33746153313E+02  0.34843738236E+02  0.65709478070E+02  0.00000000000E+00 0. -1.
        -14    1    4    4    0    0  0.20675503518E+02  0.81903201435E+02  0.92354307151E+02  0.12515961370E+03  0.00000000000E+00 0.  1.
</event>
<event>
12    1  0.8251070E-002  0.1909107E+03  0.7818608E-02  0.1157820E+00
         21   -1    0    0  503  502  0.00000000000E+00  0.00000000000E+00  0.15814434201E+03  0.15814434201E+03  0.00000000000E+00 0. -1.
         21   -1    0    0  501  503 -0.00000000000E+00 -0.00000000000E+00 -0.22951379468E+03  0.22951379468E+03  0.00000000000E+00 0.  1.
          6    2    1    2  501    0 -0.26976395905E+02  0.76077619499E+02 -0.35839562295E+02  0.19346940294E+03  0.17213484692E+03 0.  0.
         24    2    3    3    0    0 -0.81987575100E+02  0.31746084632E+02 -0.80835020976E+01  0.11741676526E+03  0.77405280173E+02 0.  0.
         -6    2    1    2    0  502  0.26976395905E+02 -0.76077619499E+02 -0.35529890378E+02  0.19418873375E+03  0.17300682380E+03 0.  0.
        -24    2    5    5    0    0 -0.54670838464E+01  0.22717546572E+02 -0.34456907090E+02  0.90091156878E+02  0.79894694275E+02 0.  0.
          5    1    3    3  501    0  0.55011179195E+02  0.44331534867E+02 -0.27756060198E+02  0.76052637678E+02  0.47000000000E+01 0. -1.
        -13    1    4    4    0    0 -0.67664298143E+02  0.25564216604E+02 -0.39445535159E+02  0.82388935287E+02  0.00000000000E+00 0.  1.
         14    1    4    4    0    0 -0.14323276957E+02  0.61818680279E+01  0.31362033062E+02  0.35027829977E+02  0.00000000000E+00 0. -1.
         -5    1    5    5    0  502  0.32443479752E+02 -0.98795166070E+02 -0.10729832886E+01  0.10409757687E+03  0.47000000000E+01 0.  1.
         13    1    6    6    0    0 -0.32037754439E+02  0.67478352968E+01 -0.46469062133E+02  0.56844742292E+02  0.00000000000E+00 0. -1.
        -14    1    6    6    0    0  0.26570670593E+02  0.15969711275E+02  0.12012155044E+02  0.33246414585E+02  0.00000000000E+00 0.  1.
</event>
<event>
12    1  0.8251070E-002  0.2009272E+03  0.7818608E-02  0.1150402E+00
         21   -1    0    0  503  502  0.00000000000E+00  0.00000000000E+00  0.16775603893E+03  0.16775603893E+03  0.00000000000E+00 0.  1.
         21   -1    0    0  501  503 -0.00000000000E+00 -0.00000000000E+00 -0.48972653299E+03  0.48972653299E+03  0.00000000000E+00 0.  1.
          6    2    1    2  501    0 -0.89321899660E+02 -0.13988659278E+02 -0.39785035702E+03  0.44270479062E+03  0.17183870550E+03 0.  0.
         24    2    3    3    0    0 -0.62738407194E+02 -0.43261010767E+02 -0.38563540285E+03  0.40105328718E+03  0.79507562146E+02 0.  0.
         -6    2    1    2    0  502  0.89321899660E+02  0.13988659278E+02  0.75879862962E+02  0.21477778129E+03  0.17943705689E+03 0.  0.
        -24    2    5    5    0    0  0.87720368726E+02  0.69378405174E+02  0.78497838741E+02  0.15910433476E+03  0.81511057277E+02 0.  0.
          5    1    3    3  501    0 -0.26583492466E+02  0.29272351489E+02 -0.12214954175E+02  0.41651503440E+02  0.47000000000E+01 0. -1.
        -11    1    4    4    0    0 -0.55964871876E+02  0.89975082985E+01 -0.17635990783E+03  0.18524534847E+03  0.00000000000E+00 0.  1.
         12    1    4    4    0    0 -0.67735353180E+01 -0.52258519065E+02 -0.20927549502E+03  0.21580793871E+03  0.00000000000E+00 0. -1.
         -5    1    5    5    0  502  0.16015309333E+01 -0.55389745896E+02 -0.26179757792E+01  0.55673446533E+02  0.47000000000E+01 0.  1.
         11    1    6    6    0    0 -0.15473921310E+02  0.39152909622E+01  0.12061469006E+02  0.20006268483E+02  0.00000000000E+00 0. -1.
        -12    1    6    6    0    0  0.10319429004E+03  0.65463114211E+02  0.66436369735E+02  0.13909806628E+03  0.00000000000E+00 0.  1.
</event>
<event>
12    1  0.8251070E-002  0.1992186E+03  0.7818608E-02  0.1150415E+00
         21   -1    0    0  503  502  0.00000000000E+00  0.00000000000E+00  0.19783524901E+03  0.19783524901E+03  0.00000000000E+00 0.  1.
         21   -1    0    0  501  503 -0.00000000000E+00 -0.00000000000E+00 -0.70058591235E+03  0.70058591235E+03  0.00000000000E+00 0. -1.
          6    2    1    2  501    0  0.93733090409E+02 -0.35186594427E+02 -0.63087304290E+03  0.66155957927E+03  0.17215194455E+03 0.  0.
         24    2    3    3    0    0 -0.13037862755E+02 -0.29909399726E+02 -0.36603303084E+03  0.37591958346E+03  0.79188354604E+02 0.  0.
         -6    2    1    2    0  502 -0.93733090409E+02  0.35186594427E+02  0.12812237955E+03  0.23686158208E+03  0.17223262252E+03 0.  0.
        -24    2    5    5    0    0 -0.48319774182E+02 -0.49758313102E+02  0.77531204736E+02  0.12795995870E+03  0.74511563018E+02 0.  0.
          5    1    3    3  501    0  0.10677095316E+03 -0.52771947015E+01 -0.26484001205E+03  0.28563999581E+03  0.47000000000E+01 0. -1.
        -13    1    4    4    0    0  0.12244283765E+01 -0.55909517317E+02 -0.23193581010E+03  0.23858246658E+03  0.00000000000E+00 0.  1.
         14    1    4    4    0    0 -0.14262291131E+02  0.26000117591E+02 -0.13409722074E+03  0.13733711688E+03  0.00000000000E+00 0. -1.
         -5    1    5    5    0  502 -0.45413316227E+02  0.84944907529E+02  0.50591174818E+02  0.10890162338E+03  0.47000000000E+01 0.  1.
         13    1    6    6    0    0 -0.49456605042E+02 -0.60707323717E+02  0.38212457506E+02  0.87129368434E+02  0.00000000000E+00 0. -1.
        -14    1    6    6    0    0  0.11368308600E+01  0.10949010615E+02  0.39318747231E+02  0.40830590268E+02  0.00000000000E+00 0.  1.
</event>
<event>
12    1  0.8251070E-002  0.1905526E+03  0.7818608E-02  0.1158193E+00
         21   -1    0    0  501  502  0.00000000000E+00  0.00000000000E+00  0.15885661355E+03  0.15885661355E+03  0.00000000000E+00 0. -1.
         21   -1    0    0  502  503 -0.00000000000E+00 -0.00000000000E+00 -0.42973831960E+03  0.42973831960E+03  0.00000000000E+00 0.  1.
         -6    2    1    2    0  503  0.77019499336E+02  0.20513275663E+02 -0.33759643363E+03  0.38766174645E+03  0.17308229229E+03 0.  0.
        -24    2    3    3    0    0 -0.18243134504E+02 -0.21627848343E+02 -0.13590453552E+03  0.16060986802E+03  0.80776922127E+02 0.  0.
          6    2    1    2  501    0 -0.77019499336E+02 -0.20513275663E+02  0.66714727582E+02  0.20093318670E+03  0.17196073064E+03 0.  0.
         24    2    5    5    0    0 -0.86342159161E+02 -0.69380084814E+02  0.31359805322E+02  0.13972095303E+03  0.79182969810E+02 0.  0.
          5    1    5    5  501    0  0.93226598247E+01  0.48866809151E+02  0.35354922259E+02  0.61212233669E+02  0.47000000000E+01 0. -1.
        -11    1    6    6    0    0 -0.29981082432E+01 -0.37273690290E+02  0.33753201972E+02  0.50374549966E+02  0.00000000000E+00 0.  1.
         12    1    6    6    0    0 -0.83344050918E+02 -0.32106394524E+02 -0.23933966502E+01  0.89346403063E+02  0.00000000000E+00 0. -1.
         -5    1    3    3    0  503  0.95262633840E+02  0.42141124006E+02 -0.20169189811E+03  0.22705187844E+03  0.47000000000E+01 0.  1.
         13    1    4    4    0    0  0.61917771216E+01 -0.31092203825E+02 -0.12991905122E+03  0.13373115984E+03  0.00000000000E+00 0. -1.
        -14    1    4    4    0    0 -0.24434911626E+02  0.94643554819E+01 -0.59854843023E+01  0.26878708175E+02  0.00000000000E+00 0.  1.
</event>
<event>
12    1  0.8251070E-002  0.2109622E+03  0.7818608E-02  0.1140956E+00
         21   -1    0    0  501  502  0.00000000000E+00  0.00000000000E+00  0.90568850156E+02  0.90568850156E+02  0.00000000000E+00 0. -1.
         21   -1    0    0  502  503 -0.00000000000E+00 -0.00000000000E+00 -0.49138595961E+03  0.49138595961E+03  0.00000000000E+00 0.  1.
         -6    2    1    2    0  503  0.11642134892E+03 -0.37227841919E+02 -0.21744831913E+03  0.30243887701E+03  0.17101362558E+03 0.  0.
        -24    2    3    3    0    0  0.88901138787E+02 -0.85032384587E+02 -0.19079164638E+03  0.24099537070E+03  0.80891269389E+02 0.  0.
          6    2    1    2  501    0 -0.11642134892E+03  0.37227841919E+02 -0.18336879032E+03  0.27951593275E+03  0.17194534219E+03 0.  0.
         24    2    5    5    0    0 -0.72140545545E+02  0.89881761056E+02 -0.14466917130E+03  0.20044017629E+03  0.77227623712E+02 0.  0.
          5    1    5    5  501    0 -0.44280803378E+02 -0.52653919137E+02 -0.38699619024E+02  0.79075756467E+02  0.47000000000E+01 0. -1.
        -13    1    6    6    0    0  0.14296086937E+02  0.18227053991E+02 -0.43615801267E+02  0.49385642843E+02  0.00000000000E+00 0.  1.
         14    1    6    6    0    0 -0.86436632482E+02  0.71654707065E+02 -0.10105337003E+03  0.15105453344E+03  0.00000000000E+00 0. -1.
         -5    1    3    3    0  503  0.27520210135E+02  0.47804542669E+02 -0.26656672751E+02  0.61443506311E+02  0.47000000000E+01 0.  1.
         13    1    4    4    0    0  0.41229317595E+02 -0.28808744124E+02 -0.18490271970E+02  0.53588156573E+02  0.00000000000E+00 0. -1.
        -14    1    4    4    0    0  0.47671821192E+02 -0.56223640464E+02 -0.17230137441E+03  0.18740721413E+03  0.00000000000E+00 0.  1.
</event>
<event>
12    1  0.8251070E-002  0.2178371E+03  0.7818608E-02  0.1135687E+00
         21   -1    0    0  503  502  0.00000000000E+00  0.00000000000E+00  0.25795585824E+03  0.25795585824E+03  0.00000000000E+00 0. -1.
         21   -1    0    0  501  503 -0.00000000000E+00 -0.00000000000E+00 -0.25456577856E+03  0.25456577856E+03  0.00000000000E+00 0. -1.
          6    2    1    2  501    0  0.13010497516E+03  0.26259998906E+02 -0.13403401679E+03  0.25576964580E+03  0.17273129986E+03 0.  0.
         24    2    3    3    0    0  0.35146238472E+02  0.77681312216E+01  0.29407546636E+01  0.88010029506E+02  0.80259051291E+02 0.  0.
         -6    2    1    2    0  502 -0.13010497516E+03 -0.26259998906E+02  0.13742409647E+03  0.25675199100E+03  0.17152058327E+03 0.  0.
        -24    2    5    5    0    0 -0.49960251666E+02  0.38918861320E+02  0.11134499962E+03  0.15010458214E+03  0.78249422516E+02 0.  0.
          5    1    3    3  501    0  0.94958736690E+02  0.18491867684E+02 -0.13697477145E+03  0.16775961629E+03  0.47000000000E+01 0. -1.
        -13    1    4    4    0    0 -0.18849553381E+02  0.24442635079E+02  0.58806143090E+01  0.31421802891E+02  0.00000000000E+00 0.  1.
         14    1    4    4    0    0  0.53995791853E+02 -0.16674503857E+02 -0.29398596454E+01  0.56588226615E+02  0.00000000000E+00 0. -1.
         -5    1    5    5    0  502 -0.80144723496E+02 -0.65178860226E+02  0.26079096843E+02  0.10664740886E+03  0.47000000000E+01 0.  1.
         11    1    6    6    0    0 -0.63517414040E+02  0.41465219111E+02  0.59356815779E+02  0.96317484714E+02  0.00000000000E+00 0. -1.
        -12    1    6    6    0    0  0.13557162374E+02 -0.25463577905E+01  0.51988183845E+02  0.53787097422E+02  0.00000000000E+00 0.  1.
</event>
<event>
12    1  0.8251070E-002  0.1731635E+03  0.7818608E-02  0.1176526E+00
         21   -1    0    0  503  502  0.00000000000E+00  0.00000000000E+00  0.85624683743E+03  0.85624683743E+03  0.00000000000E+00 0. -1.
         21   -1    0    0  501  503 -0.00000000000E+00 -0.00000000000E+00 -0.17525191582E+03  0.17525191582E+03  0.00000000000E+00 0. -1.
          6    2    1    2  501    0 -0.22921438781E+01 -0.22471829732E+02 -0.12184299068E+03  0.21173402948E+03  0.17168386006E+03 0.  0.
         24    2    3    3    0    0 -0.60453282363E+02 -0.43893363651E+02 -0.78025901515E+02  0.13568386545E+03  0.82102638909E+02 0.  0.
         -6    2    1    2    0  502  0.22921438781E+01  0.22471829732E+02  0.80283791229E+03  0.81976472378E+03  0.16418054663E+03 0.  0.
        -24    2    5    5    0    0  0.24767181867E+02 -0.33203454197E+02  0.64249125705E+03  0.64848131998E+03  0.77570125057E+02 0.  0.
          5    1    3    3  501    0  0.58161138485E+02  0.21421533918E+02 -0.43817089164E+02  0.76050164024E+02  0.47000000000E+01 0. -1.
        -11    1    4    4    0    0  0.42864279675E+01  0.18090281192E+02 -0.30681152465E+01  0.18842639663E+02  0.00000000000E+00 0.  1.
         12    1    4    4    0    0 -0.64739710330E+02 -0.61983644843E+02 -0.74957786268E+02  0.11684122579E+03  0.00000000000E+00 0. -1.
         -5    1    5    5    0  502 -0.22475037989E+02  0.55675283929E+02  0.16034665524E+03  0.17128340380E+03  0.47000000000E+01 0.  1.
         13    1    6    6    0    0  0.15169365280E+02  0.24727502439E+02  0.19202486516E+03  0.19420377921E+03  0.00000000000E+00 0. -1.
        -14    1    6    6    0    0  0.95978165874E+01 -0.57930956636E+02  0.45046639189E+03  0.45427754077E+03  0.00000000000E+00 0.  1.
</event>
<event>
12    1  0.8251070E-002  0.2100028E+03  0.7818608E-02  0.1141601E+00
         21   -1    0    0  501  502  0.00000000000E+00  0.00000000000E+00  0.55359702705E+03  0.55359702705E+03  0.00000000000E+00 0. -1.
         21   -1    0    0  502  503 -0.00000000000E+00 -0.00000000000E+00 -0.17364911306E+03  0.17364911306E+03  0.00000000000E+00 0.  1.
         -6    2    1    2    0  503 -0.42441496437E+02  0.11184871968E+03 -0.77602779159E+02  0.22388246548E+03  0.17259707501E+03 0.  0.
        -24    2    3    3    0    0 -0.13394717851E+02 -0.13895926135E+02 -0.45364405443E+02  0.90777867373E+02  0.76224515046E+02 0.  0.
          6    2    1    2  501    0  0.42441496437E+02 -0.11184871968E+03  0.45755069315E+03  0.50336367464E+03  0.17236860337E+03 0.  0.
         24    2    5    5    0    0 -0.41988703289E+02 -0.73209123925E+02  0.25970321523E+03  0.28476085786E+03  0.80748740764E+02 0.  0.
          5    1    5    5  501    0  0.84430199727E+02 -0.38639595750E+02  0.19784747792E+03  0.21860281678E+03  0.47000000000E+01 0. -1.
        -13    1    6    6    0    0 -0.42449323825E+02 -0.89351086225E+02  0.20326806552E+03  0.22606076210E+03  0.00000000000E+00 0.  1.
         14    1    6    6    0    0  0.46062053626E+00  0.16141962300E+02  0.56435149713E+02  0.58700095752E+02  0.00000000000E+00 0. -1.
         -5    1    3    3    0  503 -0.29046778587E+02  0.12574464581E+03 -0.32238373716E+02  0.13310459810E+03  0.47000000000E+01 0.  1.
         11    1    4    4    0    0  0.16091259059E+02  0.19232014397E+02  0.28863981077E+01  0.25241439933E+02  0.00000000000E+00 0. -1.
        -12    1    4    4    0    0 -0.29485976909E+02 -0.33127940532E+02 -0.48250803551E+02  0.65536427440E+02  0.00000000000E+00 0.  1.
</event>
<event>
12    1  0.8251070E-002  0.1772515E+03  0.7818608E-02  0.1170960E+00
         21   -1    0    0  501  502  0.00000000000E+00  0.00000000000E+00  0.11017115528E+04  0.11017115528E+04  0.00000000000E+00 0. -1.
         21   -1    0    0  502  503 -0.00000000000E+00 -0.00000000000E+00 -0.32206807900E+02  0.32206807900E+02  0.00000000000E+00 0. -1.
         -6    2    1    2    0  503  0.29763290876E+02  0.18591831485E+02  0.73689900236E+03  0.75791704584E+03  0.17374291068E+03 0.  0.
        -24    2    3    3    0    0 -0.45920386277E+02 -0.13109162047E+02  0.34397697558E+03  0.35649111107E+03  0.80530866975E+02 0.  0.
          6    2    1    2  501    0 -0.29763290876E+02 -0.18591831485E+02  0.33260574257E+03  0.37600131490E+03  0.17181064905E+03 0.  0.
         24    2    5    5    0    0  0.40053474636E+02  0.56092397588E+01  0.24826465136E+03  0.26377127318E+03  0.79399011574E+02 0.  0.
          5    1    5    5  501    0 -0.69816765512E+02 -0.24201071244E+02  0.84341091210E+02  0.11223004171E+03  0.47000000000E+01 0. -1.
        -13    1    6    6    0    0 -0.22975033333E+00  0.37079376110E+02  0.86232270410E+02  0.93866593514E+02  0.00000000000E+00 0.  1.
         14    1    6    6    0    0  0.40283224969E+02 -0.31470136351E+02  0.16203238095E+03  0.16990467967E+03  0.00000000000E+00 0. -1.
         -5    1    3    3    0  503  0.75683677154E+02  0.31700993532E+02  0.39292202678E+03  0.40142593477E+03  0.47000000000E+01 0.  1.
         11    1    4    4    0    0 -0.32395090619E+02  0.79986144591E+01  0.32021802248E+03  0.32195186232E+03  0.00000000000E+00 0. -1.
        -12    1    4    4    0    0 -0.13525295658E+02 -0.21107776506E+02  0.23758953096E+02  0.34539248746E+02  0.00000000000E+00 0.  1.
</event>
<event>
12    1  0.8251070E-002  0.2022107E+03  0.7818608E-02  0.1149445E+00
         21   -1    0    0  501  502  0.00000000000E+00  0.00000000000E+00  0.35952800322E+03  0.35952800322E+03  0.00000000000E+00 0. -1.
         21   -1    0    0  502  503 -0.00000000000E+00 -0.00000000000E+00 -0.15464826069E+03  0.15464826069E+03  0.00000000000E+00 0. -1.
         -6    2    1    2    0  503 -0.20128944631E+02  0.10420474542E+03  0.24246389139E+03  0.31571811038E+03  0.17212025801E+03 0.  0.
        -24    2    3    3    0    0 -0.46918718689E+00 -0.14297962656E+02  0.13648381956E+03  0.15545812315E+03  0.73039326243E+02 0.  0.
          6    2    1    2  501    0  0.20128944631E+02 -0.10420474542E+03 -0.37584148864E+02  0.19845815352E+03  0.16342970071E+03 0.  0.
         24    2    5    5    0    0 -0.49162151902E+02 -0.72602446782E+02 -0.70202311195E+01  0.11626201976E+03  0.76023293372E+02 0.  0.
          5    1    5    5  501    0  0.69291096533E+02 -0.31602298639E+02 -0.30563917744E+02  0.82196133765E+02  0.47000000000E+01 0. -1.
        -13    1    6    6    0    0 -0.30587877595E+02 -0.19138186920E+02  0.31419175297E+02  0.47844049063E+02  0.00000000000E+00 0.  1.
         14    1    6    6    0    0 -0.18574274307E+02 -0.53464259862E+02 -0.38439406416E+02  0.68417970697E+02  0.00000000000E+00 0. -1.
         -5    1    3    3    0  503 -0.19659757444E+02  0.11850270808E+03  0.10598007182E+03  0.16025998723E+03  0.47000000000E+01 0.  1.
         11    1    4    4    0    0  0.61400308458E+01  0.28078286194E+02  0.35035232660E+02  0.45316196464E+02  0.00000000000E+00 0. -1.
        -12    1    4    4    0    0 -0.66092180327E+01 -0.42376248849E+02  0.10144858690E+03  0.11014192669E+03  0.00000000000E+00 0.  1.
</event>
<event>
12    1  0.8251070E-002  0.2059822E+03  0.7818608E-02  0.1144993E+00
         21   -1    0    0  501  502  0.00000000000E+00  0.00000000000E+00  0.18552720420E+04  0.18552720420E+04  0.00000000000E+00 0.  1.
         21   -1    0    0  502  503 -0.00000000000E+00 -0.00000000000E+00 -0.31255447004E+02  0.31255447004E+02  0.00000000000E+00 0.  1.
         -6    2    1    2    0  503  0.10210523783E+03 -0.49065505534E+02  0.41854184478E+03  0.46603886148E+03  0.17082751873E+03 0.  0.
        -24    2    3    3    0    0  0.71940072205E+02 -0.13274156353E+02  0.13633250195E+03  0.17993545173E+03  0.91862062273E+02 0.  0.
          6    2    1    2  501    0 -0.10210523783E+03  0.49065505534E+02  0.14054747502E+04  0.14204886275E+04  0.17203419425E+03 0.  0.
         24    2    5    5    0    0 -0.48195445238E+02 -0.38444199552E+02  0.77702542796E+03  0.78367244143E+03  0.81075411438E+02 0.  0.
          5    1    5    5  501    0 -0.53909792593E+02  0.87509705086E+02  0.62844932223E+03  0.63681618607E+03  0.47000000000E+01 0. -1.
        -11    1    6    6    0    0 -0.52612566763E+02  0.71760413321E+01  0.50834007985E+03  0.51110587409E+03  0.00000000000E+00 0.  1.
         12    1    6    6    0    0  0.44171215254E+01 -0.45620240884E+02  0.26868534811E+03  0.27256656733E+03  0.00000000000E+00 0. -1.
         -5    1    3    3    0  503  0.30165165626E+02 -0.35791349180E+02  0.28220934283E+03  0.28610340975E+03  0.47000000000E+01 0.  1.
         13    1    4    4    0    0  0.19083001926E+01  0.31502945030E+02  0.21551730893E+02  0.38217198480E+02  0.00000000000E+00 0. -1.
        -14    1    4    4    0    0  0.70031772012E+02 -0.44777101383E+02  0.11478077106E+03  0.14171825325E+03  0.00000000000E+00 0.  1.
</event>
<event>
12    1  0.8251070E-002  0.1937851E+03  0.7818608E-02  0.1155692E+00
         21   -1    0    0  503  502  0.00000000000E+00  0.00000000000E+00  0.41122260797E+03  0.41122260797E+03  0.00000000000E+00 0.  1.
         21   -1    0    0  501  503 -0.00000000000E+00 -0.00000000000E+00 -0.23392615905E+03  0.23392615905E+03  0.00000000000E+00 0.  1.
          6    2    1    2  501    0 -0.25427201901E+02 -0.77402120475E+02 -0.16409163572E+03  0.25392665561E+03  0.17582676323E+03 0.  0.
         24    2    3    3    0    0  0.13582366814E+02  0.24269007950E+01 -0.17192264669E+02  0.82182851348E+02  0.79171185133E+02 0.  0.
         -6    2    1    2    0  502  0.25427201901E+02  0.77402120475E+02  0.34138808464E+03  0.39122211140E+03  0.17283311392E+03 0.  0.
        -24    2    5    5    0    0  0.60040508844E+02  0.84626267985E+01  0.24417604101E+03  0.26703271479E+03  0.89487725459E+02 0.  0.
          5    1    3    3  501    0 -0.39009568715E+02 -0.79829021270E+02 -0.14689937105E+03  0.17174380426E+03  0.47000000000E+01 0. -1.
        -13    1    4    4    0    0  0.33500834790E+02  0.18538695358E+02 -0.34276924601E+02  0.51389655743E+02  0.00000000000E+00 0.  1.
         14    1    4    4    0    0 -0.19918467976E+02 -0.16111794563E+02  0.17084659933E+02  0.30793195605E+02  0.00000000000E+00 0. -1.
         -5    1    5    5    0  502 -0.34613306944E+02  0.68939493676E+02  0.97212043629E+02  0.12418939662E+03  0.47000000000E+01 0.  1.
         13    1    6    6    0    0  0.32309468550E+02  0.26250744770E+02  0.32514103306E+02  0.52822062367E+02  0.00000000000E+00 0. -1.
        -14    1    6    6    0    0  0.27731040294E+02 -0.17788117971E+02  0.21166193770E+03  0.21421065242E+03  0.00000000000E+00 0.  1.
</event>
<event>
12    1  0.8251070E-002  0.1868144E+03  0.7818608E-02  0.1163307E+00
         21   -1    0    0  501  502  0.00000000000E+00  0.00000000000E+00  0.12015524549E+04  0.12015524549E+04  0.00000000000E+00 0. -1.
         21   -1    0    0  502  503 -0.00000000000E+00 -0.00000000000E+00 -0.71411300026E+02  0.71411300026E+02  0.00000000000E+00 0.  1.
         -6    2    1    2    0  503  0.81198795096E+02  0.14534347430E+02  0.62677176583E+02  0.18927608144E+03  0.15840617084E+03 0.  0.
        -24    2    3    3    0    0 -0.13168342928E+02  0.12413321805E+02  0.52219956877E+02  0.94191387967E+02  0.76273179147E+02 0.  0.
          6    2    1    2  501    0 -0.81198795096E+02 -0.14534347430E+02  0.10674639783E+04  0.10836876735E+04  0.16761604082E+03 0.  0.
         24    2    5    5    0    0 -0.62585767777E+02  0.52947694914E+02  0.74257161227E+03  0.75130625053E+03  0.79549016453E+02 0.  0.
          5    1    5    5  501    0 -0.18613027319E+02 -0.67482042344E+02  0.32489236601E+03  0.33238142294E+03  0.47000000000E+01 0. -1.
        -11    1    6    6    0    0 -0.23094471177E+01  0.51501379057E+02  0.41957776969E+03  0.42273304864E+03  0.00000000000E+00 0.  1.
         12    1    6    6    0    0 -0.60276320659E+02  0.14463158575E+01  0.32299384258E+03  0.32857320190E+03  0.00000000000E+00 0. -1.
         -5    1    3    3    0  503  0.94367138024E+02  0.21210256254E+01  0.10457219706E+02  0.95084693472E+02  0.47000000000E+01 0.  1.
         11    1    4    4    0    0 -0.79603593318E+01 -0.19211702517E+02 -0.10841773979E+02  0.23452097930E+02  0.00000000000E+00 0. -1.
        -12    1    4    4    0    0 -0.52079835963E+01  0.31625024322E+02  0.63061730856E+02  0.70739290038E+02  0.00000000000E+00 0.  1.
</event>
<event>
12    1  0.8251070E-002  0.1962592E+03  0.7818608E-02  0.1153836E+00
         21   -1    0    0  501  502  0.00000000000E+00  0.00000000000E+00  0.19233179066E+03  0.19233179066E+03  0.00000000000E+00 0. -1.
         21   -1    0    0  502  503 -0.00000000000E+00 -0.00000000000E+00 -0.55864207405E+03  0.55864207405E+03  0.00000000000E+00 0. -1.
         -6    2    1    2    0  503 -0.90273344996E+01 -0.90973016071E+02 -0.48496269909E+03  0.52163557036E+03  0.16898895331E+03 0.  0.
        -24    2    3    3    0    0 -0.20367130619E+01  0.12995631324E+02 -0.15591084669E+03  0.17644640483E+03  0.81560450163E+02 0.  0.
          6    2    1    2  501    0  0.90273344996E+01  0.90973016071E+02  0.11865241570E+03  0.22933829435E+03  0.17366656294E+03 0.  0.
         24    2    5    5    0    0  0.71251259504E+02  0.34824013562E+02  0.41236293889E+02  0.11514602998E+03  0.72585965486E+02 0.  0.
          5    1    5    5  501    0 -0.62223925005E+02  0.56149002509E+02  0.77416121807E+02  0.11419226437E+03  0.47000000000E+01 0. -1.
        -11    1    6    6    0    0  0.45285496597E+01 -0.19229523300E+02 -0.29927647512E+00  0.19757831227E+02  0.00000000000E+00 0.  1.
         12    1    6    6    0    0  0.66722709845E+02  0.54053536863E+02  0.41535570364E+02  0.95388198756E+02  0.00000000000E+00 0. -1.
         -5    1    3    3    0  503 -0.69906214377E+01 -0.10396864740E+03 -0.32905185240E+03  0.34518916553E+03  0.47000000000E+01 0.  1.
         11    1    4    4    0    0  0.16040018876E+02 -0.30634008944E+02 -0.78309367954E+02  0.85604216127E+02  0.00000000000E+00 0. -1.
        -12    1    4    4    0    0 -0.18076731938E+02  0.43629640268E+02 -0.77601478734E+02  0.90842188707E+02  0.00000000000E+00 0.  1.
</event>
<event>
12    1  0.8251070E-002  0.2056589E+03  0.7818608E-02  0.1145258E+00
         21   -1    0    0  501  502  0.00000000000E+00  0.00000000000E+00  0.90176668767E+03  0.90176668767E+03  0.00000000000E+00 0. -1.
         21   -1    0    0  502  503 -0.00000000000E+00 -0.00000000000E+00 -0.49096301761E+02  0.49096301761E+02  0.00000000000E+00 0.  1.
         -6    2    1    2    0  503 -0.69853409317E+02 -0.86632443540E+02  0.32168078912E+03  0.38180373958E+03  0.17294764064E+03 0.  0.
        -24    2    3    3    0    0 -0.17225469365E+02 -0.41505504518E+02  0.28915833780E+03  0.30508385605E+03  0.86279726476E+02 0.  0.
          6    2    1    2  501    0  0.69853409317E+02  0.86632443540E+02  0.53098959680E+03  0.56905924986E+03  0.17173758725E+03 0.  0.
         24    2    5    5    0    0 -0.22545077916E+02  0.53065241747E+02  0.34041632745E+03  0.35457265711E+03  0.80711168709E+02 0.  0.
          5    1    5    5  501    0  0.92398487234E+02  0.33567201792E+02  0.19057326935E+03  0.21448659275E+03  0.47000000000E+01 0. -1.
        -13    1    6    6    0    0 -0.18439046754E+02 -0.14893783075E+02  0.39631677038E+02  0.46178924243E+02  0.00000000000E+00 0.  1.
         14    1    6    6    0    0 -0.41060311626E+01  0.67959024822E+02  0.30078465042E+03  0.30839373287E+03  0.00000000000E+00 0. -1.
         -5    1    3    3    0  503 -0.52627939952E+02 -0.45126939022E+02  0.32522451312E+02  0.76719883527E+02  0.47000000000E+01 0.  1.
         13    1    4    4    0    0  0.31047186657E+02 -0.19756774110E-01  0.64507228242E+02  0.71589878370E+02  0.00000000000E+00 0. -1.
        -14    1    4    4    0    0 -0.48272656022E+02 -0.41485747744E+02  0.22465110956E+03  0.23349397768E+03  0.00000000000E+00 0.  1.
</event>
<event>
12    1  0.8251070E-002  0.2198784E+03  0.7818608E-02  0.1134282E+00
         21   -1    0    0  503  502  0.00000000000E+00  0.00000000000E+00  0.92668204315E+03  0.92668204315E+03  0.00000000000E+00 0. -1.
         21   -1    0    0  501  503 -0.00000000000E+00 -0.00000000000E+00 -0.70350681483E+02  0.70350681483E+02  0.00000000000E+00 0. -1.
          6    2    1    2  501    0 -0.13402974956E+03 -0.23022050924E+02  0.17323582448E+03  0.27992346585E+03  0.17277878126E+03 0.  0.
         24    2    3    3    0    0 -0.77302636996E+02  0.49400711744E+02  0.13095435281E+03  0.17856847239E+03  0.79508042389E+02 0.  0.
         -6    2    1    2    0  502  0.13402974956E+03  0.23022050924E+02  0.68309553719E+03  0.71710925879E+03  0.17068153828E+03 0.  0.
        -24    2    5    5    0    0  0.93940029335E+02  0.73414088426E+02  0.55993393087E+03  0.57805022677E+03  0.80010625841E+02 0.  0.
          5    1    3    3  501    0 -0.56727112569E+02 -0.72422762668E+02  0.42281471672E+02  0.10135499346E+03  0.47000000000E+01 0. -1.
        -13    1    4    4    0    0 -0.77008435319E+02  0.60493949237E+02  0.80090444732E+02  0.12650808805E+03  0.00000000000E+00 0.  1.
         14    1    4    4    0    0 -0.29420167625E+00 -0.11093237493E+02  0.50863908076E+02  0.52060384339E+02  0.00000000000E+00 0. -1.
         -5    1    5    5    0  502  0.40089720229E+02 -0.50392037502E+02  0.12316160632E+03  0.13905903201E+03  0.47000000000E+01 0.  1.
         13    1    6    6    0    0  0.10056323625E+02  0.12582065010E+02  0.26416271497E+03  0.26465331660E+03  0.00000000000E+00 0. -1.
        -14    1    6    6    0    0  0.83883705710E+02  0.60832023417E+02  0.29577121589E+03  0.31339691018E+03  0.00000000000E+00 0.  1.
</event>
<event>
12    1  0.8251070E-002  0.2149789E+03  0.7818608E-02  0.1138096E+00
         21   -1    0    0  503  502  0.00000000000E+00  0.00000000000E+00  0.48093327107E+03  0.48093327107E+03  0.00000000000E+00 0. -1.
         21   -1    0    0  501  503 -0.00000000000E+00 -0.00000000000E+00 -0.35469373686E+03  0.35469373686E+03  0.00000000000E+00 0.  1.
          6    2    1    2  501    0 -0.11118850646E+03  0.58371994791E+02 -0.29420560524E+03  0.36438012341E+03  0.17448714118E+03 0.  0.
         24    2    3    3    0    0  0.14064732228E+02  0.29984369215E+02 -0.12105207327E+03  0.14874509212E+03  0.79841210512E+02 0.  0.
         -6    2    1    2    0  502  0.11118850646E+03 -0.58371994791E+02  0.42044513945E+03  0.47124688451E+03  0.17184102285E+03 0.  0.
        -24    2    5    5    0    0  0.22278128153E+02 -0.59159792067E+02  0.32435604359E+03  0.34024734124E+03  0.81026009502E+02 0.  0.
          5    1    3    3  501    0 -0.12525323869E+03  0.28387625576E+02 -0.17315353197E+03  0.21563503129E+03  0.47000000000E+01 0. -1.
        -11    1    4    4    0    0  0.23486090843E+02  0.29164694596E+02 -0.13026630718E+03  0.13554145735E+03  0.00000000000E+00 0.  1.
         12    1    4    4    0    0 -0.94213586153E+01  0.81967461954E+00  0.92142339079E+01  0.13203634770E+02  0.00000000000E+00 0. -1.
         -5    1    5    5    0  502  0.88910378308E+02  0.78779727571E+00  0.96089095861E+02  0.13099954328E+03  0.47000000000E+01 0.  1.
         11    1    6    6    0    0 -0.17532754144E+02 -0.27587144986E+02  0.41315510079E+02  0.52682249472E+02  0.00000000000E+00 0. -1.
        -12    1    6    6    0    0  0.39810882298E+02 -0.31572647080E+02  0.28304053351E+03  0.28756509176E+03  0.00000000000E+00 0.  1.
</event>
<event>
12    1  0.8251070E-002  0.5368973E+03  0.7818608E-02  0.1004574E+00
         21   -1    0    0  503  502  0.00000000000E+00  0.00000000000E+00  0.23200644191E+03  0.23200644191E+03  0.00000000000E+00 0.  1.
         21   -1    0    0  501  503 -0.00000000000E+00 -0.00000000000E+00 -0.18432752601E+04  0.18432752601E+04  0.00000000000E+00 0. -1.
          6    2    1    2  501    0  0.42322217933E+03  0.28196184587E+03 -0.13980562206E+04  0.14975981487E+04  0.17210323479E+03 0.  0.
         24    2    3    3    0    0  0.13529518981E+03  0.54105826287E+02 -0.52226730966E+03  0.54794104032E+03  0.79019061699E+02 0.  0.
         -6    2    1    2    0  502 -0.42322217933E+03 -0.28196184587E+03 -0.21321259757E+03  0.57768355329E+03  0.17216033333E+03 0.  0.
        -24    2    5    5    0    0 -0.41472075520E+03 -0.22540747744E+03 -0.19948675439E+03  0.51868220100E+03  0.80214866291E+02 0.  0.
          5    1    3    3  501    0  0.28792698952E+03  0.22785601959E+03 -0.87578891095E+03  0.94965710838E+03  0.47000000000E+01 0. -1.
        -13    1    4    4    0    0  0.12250658847E+03  0.27787401654E+02 -0.32353543544E+03  0.34706653814E+03  0.00000000000E+00 0.  1.
         14    1    4    4    0    0  0.12788601342E+02  0.26318424632E+02 -0.19873187422E+03  0.20087450219E+03  0.00000000000E+00 0. -1.
         -5    1    5    5    0  502 -0.85014241285E+01 -0.56554368432E+02 -0.13725843179E+02  0.59001352289E+02  0.47000000000E+01 0.  1.
         11    1    6    6    0    0 -0.47554258056E+01 -0.17412055067E+02 -0.13795329316E+01  0.18102398939E+02  0.00000000000E+00 0. -1.
        -12    1    6    6    0    0 -0.40996532940E+03 -0.20799542237E+03 -0.19810722146E+03  0.50057980206E+03  0.00000000000E+00 0.  1.
</event>
<event>
12    1  0.8251070E-002  0.2899466E+03  0.7818608E-02  0.1090503E+00
         21   -1    0    0  503  502  0.00000000000E+00  0.00000000000E+00  0.23631119893E+03  0.23631119893E+03  0.00000000000E+00 0.  1.
         21   -1    0    0  501  503 -0.00000000000E+00 -0.00000000000E+00 -0.48085328814E+03  0.48085328814E+03  0.00000000000E+00 0.  1.
          6    2    1    2  501    0  0.21578062370E+03 -0.89494104877E+02 -0.30618292357E+03  0.42168357626E+03  0.17175151653E+03 0.  0.
         24    2    3    3    0    0  0.20365814363E+03 -0.19289047917E+02 -0.22842821155E+03  0.31612037345E+03  0.76837073367E+02 0.  0.
         -6    2    1    2    0  502 -0.21578062370E+03  0.89494104877E+02  0.61640834365E+02  0.29548091080E+03  0.17011438450E+03 0.  0.
        -24    2    5    5    0    0 -0.11928558004E+03  0.10007128484E+03 -0.94451063732E+01  0.17507131335E+03  0.79482344391E+02 0.  0.
          5    1    3    3  501    0  0.12122480070E+02 -0.70205056960E+02 -0.77754712024E+02  0.10556320281E+03  0.47000000000E+01 0. -1.
        -13    1    4    4    0    0  0.55969556412E+02 -0.14283675696E+02 -0.21052795400E+02  0.61480361340E+02  0.00000000000E+00 0.  1.
         14    1    4    4    0    0  0.14768858722E+03 -0.50053722210E+01 -0.20737541615E+03  0.25464001211E+03  0.00000000000E+00 0. -1.
         -5    1    5    5    0  502 -0.96495043665E+02 -0.10577179964E+02  0.71085940738E+02  0.12040959745E+03  0.47000000000E+01 0.  1.
         11    1    6    6    0    0 -0.32994330972E+02  0.76118795072E+02  0.95971184908E+01  0.83515277182E+02  0.00000000000E+00 0. -1.
        -12    1    6    6    0    0 -0.86291249064E+02  0.23952489769E+02 -0.19042224864E+02  0.91556036169E+02  0.00000000000E+00 0.  1.
</event>
<event>
12    1  0.8251070E-002  0.2081500E+03  0.7818608E-02  0.1144003E+00
         21   -1    0    0  503  502  0.00000000000E+00  0.00000000000E+00  0.81745443599E+03  0.81745443599E+03  0.00000000000E+00 0. -1.
         21   -1    0    0  501  503 -0.00000000000E+00 -0.00000000000E+00 -0.51847729004E+02  0.51847729004E+02  0.00000000000E+00 0.  1.
          6    2    1    2  501    0 -0.59481851236E+02 -0.97235445673E+02  0.36505584995E+03  0.41789613482E+03  0.16845944138E+03 0.  0.
         24    2    3    3    0    0 -0.13076564031E+02 -0.10484181811E+03  0.33921588427E+03  0.36403426139E+03  0.79314084348E+02 0.  0.
         -6    2    1    2    0  502  0.59481851236E+02  0.97235445673E+02  0.40055085704E+03  0.45140603018E+03  0.17416541702E+03 0.  0.
        -24    2    5    5    0    0  0.21304269365E+02 -0.18635487760E+02  0.16311785952E+03  0.18442266126E+03  0.81259636921E+02 0.  0.
          5    1    3    3  501    0 -0.46405287205E+02  0.76063724348E+01  0.25839965680E+02  0.53861873423E+02  0.47000000000E+01 0. -1.
        -11    1    4    4    0    0  0.30636906633E+02 -0.32418462395E+02  0.83167724908E+02  0.94373975324E+02  0.00000000000E+00 0.  1.
         12    1    4    4    0    0 -0.43713470664E+02 -0.72423355713E+02  0.25604815936E+03  0.26966028607E+03  0.00000000000E+00 0. -1.
         -5    1    5    5    0  502  0.38177581871E+02  0.11587093343E+03  0.23743299751E+03  0.26698336892E+03  0.47000000000E+01 0.  1.
         13    1    6    6    0    0 -0.29113610014E+02 -0.19584009298E+02  0.77200976158E+02  0.84800509597E+02  0.00000000000E+00 0. -1.
        -14    1    6    6    0    0  0.50417879379E+02  0.94852153767E+00  0.85916883366E+02  0.99622151661E+02  0.00000000000E+00 0.  1.
</event>
<event>
12    1  0.8251070E-002  0.2205301E+03  0.7818608E-02  0.1133588E+00
         21   -1    0    0  501  502  0.00000000000E+00  0.00000000000E+00  0.73000959063E+03  0.73000959063E+03  0.00000000000E+00 0. -1.
         21   -1    0    0  502  503 -0.00000000000E+00 -0.00000000000E+00 -0.18773327120E+03  0.18773327120E+03  0.00000000000E+00 0. -1.
         -6    2    1    2    0  503 -0.54606859921E+02 -0.12564929826E+03 -0.97788470996E+02  0.24075212510E+03  0.17213176748E+03 0.  0.
        -24    2    3    3    0    0 -0.73111275040E+02 -0.99760270015E+02 -0.11207856690E+02  0.14838899427E+03  0.81217655455E+02 0.  0.
          6    2    1    2  501    0  0.54606859921E+02  0.12564929826E+03  0.64006479042E+03  0.67699073673E+03  0.17281165001E+03 0.  0.
         24    2    5    5    0    0  0.13358551418E+02  0.14919532030E+03  0.45561227086E+03  0.48646341564E+03  0.81402818773E+02 0.  0.
          5    1    5    5  501    0  0.41248308503E+02 -0.23546022043E+02  0.18445251957E+03  0.19052732109E+03  0.47000000000E+01 0. -1.
        -11    1    6    6    0    0  0.17172454994E+02  0.15418082960E+02  0.19292799415E+02  0.30080269313E+02  0.00000000000E+00 0.  1.
         12    1    6    6    0    0 -0.38139035766E+01  0.13377723734E+03  0.43631947144E+03  0.45638314632E+03  0.00000000000E+00 0. -1.
         -5    1    3    3    0  503  0.18504415120E+02 -0.25889028241E+02 -0.86580614306E+02  0.92363130825E+02  0.47000000000E+01 0.  1.
         13    1    4    4    0    0 -0.24219878226E+02 -0.55792679500E+01 -0.31732270311E+02  0.40307166996E+02  0.00000000000E+00 0. -1.
        -14    1    4    4    0    0 -0.48891396814E+02 -0.94181002065E+02  0.20524413622E+02  0.10808182727E+03  0.00000000000E+00 0.  1.
</event>
<event>
12    1  0.8251070E-002  0.1948240E+03  0.7818608E-02  0.1154271E+00
         21   -1    0    0  503  502  0.00000000000E+00  0.00000000000E+00  0.29627090157E+03  0.29627090157E+03  0.00000000000E+00 0. -1.
         21   -1    0    0  501  503 -0.00000000000E+00 -0.00000000000E+00 -0.15790887590E+03  0.15790887590E+03  0.00000000000E+00 0.  1.
          6    2    1    2  501    0 -0.78140793975E+02 -0.45761227290E+02  0.16833136276E+03  0.25747201487E+03  0.17250019463E+03 0.  0.
         24    2    3    3    0    0  0.63810820864E+01 -0.14062063895E+01  0.21334048843E+02  0.82139143710E+02  0.79050627223E+02 0.  0.
         -6    2    1    2    0  502  0.78140793975E+02  0.45761227290E+02 -0.29969337089E+02  0.19670776260E+03  0.17203403470E+03 0.  0.
        -24    2    5    5    0    0  0.54995852059E+02 -0.22175210241E+02 -0.62624448272E+02  0.11771729376E+03  0.80120259841E+02 0.  0.
          5    1    3    3  501    0 -0.84521876061E+02 -0.44355020900E+02  0.14699731392E+03  0.17533287116E+03  0.47000000000E+01 0. -1.
        -13    1    4    4    0    0  0.48861499824E+01 -0.39983113401E+02  0.66026234217E+01  0.40818114300E+02  0.00000000000E+00 0.  1.
         14    1    4    4    0    0  0.14949321040E+01  0.38576907012E+02  0.14731425421E+02  0.41321029410E+02  0.00000000000E+00 0. -1.
         -5    1    5    5    0  502  0.23144941916E+02  0.67936437531E+02  0.32655111183E+02  0.78990468837E+02  0.47000000000E+01 0.  1.
         11    1    6    6    0    0  0.54362569664E+02 -0.47647801256E+02 -0.35614882940E+02  0.80585493929E+02  0.00000000000E+00 0. -1.
        -12    1    6    6    0    0  0.63328239474E+00  0.25472591015E+02 -0.27009565332E+02  0.37131799835E+02  0.00000000000E+00 0.  1.
</event>
<event>
12    1  0.8251070E-002  0.1872015E+03  0.7818608E-02  0.1161339E+00
         21   -1    0    0  501  502  0.00000000000E+00  0.00000000000E+00  0.61835123669E+03  0.61835123669E+03  0.00000000000E+00 0. -1.
         21   -1    0    0  502  503 -0.00000000000E+00 -0.00000000000E+00 -0.68961465823E+02  0.68961465823E+02  0.00000000000E+00 0. -1.
         -6    2    1    2    0  503 -0.70211516364E+02 -0.14559924089E+01  0.12796816547E+03  0.22676033681E+03  0.17352988801E+03 0.  0.
        -24    2    3    3    0    0 -0.78934968524E+02 -0.38037900195E+02  0.33929615243E+02  0.12537161197E+03  0.83001272228E+02 0.  0.
          6    2    1    2  501    0  0.70211516364E+02  0.14559924089E+01  0.42142160540E+03  0.46055236570E+03  0.17198992737E+03 0.  0.
         24    2    5    5    0    0  0.10783309875E+03  0.17555647707E+02  0.24971448827E+03  0.28397375309E+03  0.79671756841E+02 0.  0.
          5    1    5    5  501    0 -0.37621582383E+02 -0.16099655298E+02  0.17170711713E+03  0.17657861262E+03  0.47000000000E+01 0. -1.
        -13    1    6    6    0    0  0.37353753536E+02 -0.11216186500E+02  0.24062888188E+02  0.45827157132E+02  0.00000000000E+00 0.  1.
         14    1    6    6    0    0  0.70479345211E+02  0.28771834207E+02  0.22565160008E+03  0.23814659595E+03  0.00000000000E+00 0. -1.
         -5    1    3    3    0  503  0.87234521598E+01  0.36581907786E+02  0.94038550223E+02  0.10138872483E+03  0.47000000000E+01 0.  1.
         13    1    4    4    0    0 -0.78999830931E+02 -0.33188440051E+02  0.56269093680E+02  0.10251173954E+03  0.00000000000E+00 0. -1.
        -14    1    4    4    0    0  0.64862407469E-01 -0.48494601443E+01 -0.22339478437E+02  0.22859872433E+02  0.00000000000E+00 0.  1.
</event>
<event>
12    1  0.8251070E-002  0.1922104E+03  0.7818608E-02  0.1156566E+00
         21   -1    0    0  501  502  0.00000000000E+00  0.00000000000E+00  0.62835642180E+03  0.62835642180E+03  0.00000000000E+00 0. -1.
         21   -1    0    0  502  503 -0.00000000000E+00 -0.00000000000E+00 -0.58876347063E+02  0.58876347063E+02  0.00000000000E+00 0. -1.
         -6    2    1    2    0  503 -0.65750102681E+02  0.56967814045E+02  0.30422358750E+03  0.35965708763E+03  0.17097608503E+03 0.  0.
        -24    2    3    3    0    0 -0.10343707645E+03  0.12947123485E+02  0.24160755418E+03  0.27421127546E+03  0.77141146988E+02 0.  0.
          6    2    1    2  501    0  0.65750102681E+02 -0.56967814045E+02  0.26525648723E+03  0.32757568123E+03  0.17139549316E+03 0.  0.
         24    2    5    5    0    0  0.29718689663E+02 -0.62092591607E+02  0.27150302016E+03  0.29035155944E+03  0.76494755821E+02 0.  0.
          5    1    5    5  501    0  0.36031413018E+02  0.51247775614E+01 -0.62465329265E+01  0.37224121786E+02  0.47000000000E+01 0. -1.
        -11    1    6    6    0    0 -0.22452446496E+02 -0.86194228157E+01  0.36094242247E+02  0.43372815527E+02  0.00000000000E+00 0.  1.
         12    1    6    6    0    0  0.52171136159E+02 -0.53473168791E+02  0.23540877791E+03  0.24697874392E+03  0.00000000000E+00 0. -1.
         -5    1    3    3    0  503  0.37686973769E+02  0.44020690561E+02  0.62616033319E+02  0.85445812173E+02  0.47000000000E+01 0.  1.
         13    1    4    4    0    0 -0.82335169264E+02  0.36953890915E+02  0.21294376994E+03  0.23127844540E+03  0.00000000000E+00 0. -1.
        -14    1    4    4    0    0 -0.21101907186E+02 -0.24006767430E+02  0.28663784240E+02  0.42932830052E+02  0.00000000000E+00 0.  1.
</event>
<event>
12    1  0.8251070E-002  0.1728373E+03  0.7818608E-02  0.1175781E+00
         21   -1    0    0  503  502  0.00000000000E+00  0.00000000000E+00  0.34355318915E+03  0.34355318915E+03  0.00000000000E+00 0. -1.
         21   -1    0    0  501  503 -0.00000000000E+00 -0.00000000000E+00 -0.12252690181E+03  0.12252690181E+03  0.00000000000E+00 0. -1.
          6    2    1    2  501    0 -0.81118980723E+01  0.71725300259E+01 -0.18714788791E+02  0.17053228464E+03  0.16915604839E+03 0.  0.
         24    2    3    3    0    0 -0.44752648507E+02 -0.40325160389E+02 -0.38659175788E+02  0.10714108840E+03  0.79723038342E+02 0.  0.
         -6    2    1    2    0  502  0.81118980723E+01 -0.71725300259E+01  0.23974107613E+03  0.29554780633E+03  0.17249775118E+03 0.  0.
        -24    2    5    5    0    0  0.70926820920E+02  0.10222828774E+02  0.14109955187E+03  0.17722387236E+03  0.79775292186E+02 0.  0.
          5    1    3    3  501    0  0.36640750435E+02  0.47497690415E+02  0.19944386997E+02  0.63391196233E+02  0.47000000000E+01 0. -1.
        -13    1    4    4    0    0  0.21608513377E+02 -0.93449827154E+01  0.15480951453E+01  0.23593498064E+02  0.00000000000E+00 0.  1.
         14    1    4    4    0    0 -0.66361161884E+02 -0.30980177674E+02 -0.40207270934E+02  0.83547590338E+02  0.00000000000E+00 0. -1.
         -5    1    5    5    0  502 -0.62814922848E+02 -0.17395358799E+02  0.98641524258E+02  0.11832393396E+03  0.47000000000E+01 0.  1.
         11    1    6    6    0    0 -0.36786694923E+01 -0.24619712234E+02  0.33031340437E+02  0.41360999635E+02  0.00000000000E+00 0. -1.
        -12    1    6    6    0    0  0.74605490412E+02  0.34842541008E+02  0.10806821144E+03  0.13586287273E+03  0.00000000000E+00 0.  1.
</event>
<event>
12    1  0.8251070E-002  0.1822805E+03  0.7818608E-02  0.1165644E+00
         21   -1    0    0  503  502  0.00000000000E+00  0.00000000000E+00  0.22302301825E+03  0.22302301825E+03  0.00000000000E+00 0.  1.
         21   -1    0    0  501  503 -0.00000000000E+00 -0.00000000000E+00 -0.19802372357E+03  0.19802372357E+03  0.00000000000E+00 0.  1.
          6    2    1    2  501    0 -0.16356505125E+01  0.60695394163E+02 -0.92381200203E+02  0.20424181890E+03  0.17173767267E+03 0.  0.
         24    2    3    3    0    0  0.52274482184E+02  0.62380345414E+02 -0.95964281769E+02  0.14998253452E+03  0.81619166285E+02 0.  0.
         -6    2    1    2    0  502  0.16356505125E+01 -0.60695394163E+02  0.11738049488E+03  0.21680492291E+03  0.17187084626E+03 0.  0.
        -24    2    5    5    0    0 -0.25270714596E+02 -0.46301154072E+01  0.11241725224E+01  0.84877327416E+02  0.80887885128E+02 0.  0.
          5    1    3    3  501    0 -0.53910132697E+02 -0.16849512510E+01  0.35830815657E+01  0.54259284382E+02  0.47000000000E+01 0. -1.
        -13    1    4    4    0    0 -0.44171661804E+01  0.57537338803E+02 -0.40312590011E+02  0.70392908925E+02  0.00000000000E+00 0.  1.
         14    1    4    4    0    0  0.56691648365E+02  0.48430066116E+01 -0.55651691758E+02  0.79589625598E+02  0.00000000000E+00 0. -1.
         -5    1    5    5    0  502  0.26906365108E+02 -0.56065278756E+02  0.11625632236E+03  0.13192759550E+03  0.47000000000E+01 0.  1.
         11    1    6    6    0    0 -0.48909932485E+02  0.10839531965E+02  0.16460897768E+02  0.52731756127E+02  0.00000000000E+00 0. -1.
        -12    1    6    6    0    0  0.23639217889E+02 -0.15469647372E+02 -0.15336725245E+02  0.32145571289E+02  0.00000000000E+00 0.  1.
</event>
<event>
12    1  0.8251070E-002  0.1920718E+03  0.7818608E-02  0.1157105E+00
         21   -1    0    0  501  502  0.00000000000E+00  0.00000000000E+00  0.14042874493E+03  0.14042874493E+03  0.00000000000E+00 0. -1.
         21   -1    0    0  502  503 -0.00000000000E+00 -0.00000000000E+00 -0.46054961077E+03  0.46054961077E+03  0.00000000000E+00 0. -1.
         -6    2    1    2    0  503  0.42672705391E+02 -0.71144375172E+02 -0.35798769520E+03  0.40520943445E+03  0.17075425018E+03 0.  0.
        -24    2    3    3    0    0  0.46985333445E+02 -0.82931788833E+02 -0.36791373204E+03  0.38853136235E+03  0.80689541775E+02 0.  0.
          6    2    1    2  501    0 -0.42672705391E+02  0.71144375172E+02  0.37866829358E+02  0.19576892125E+03  0.17323132470E+03 0.  0.
         24    2    5    5    0    0 -0.85627149215E+01 -0.13783724583E+02  0.60663866996E+02  0.10133339561E+03  0.79530127349E+02 0.  0.
          5    1    5    5  501    0 -0.34109990470E+02  0.84928099755E+02 -0.22797037637E+02  0.94435525640E+02  0.47000000000E+01 0. -1.
        -13    1    6    6    0    0  0.22673204726E+02  0.59675409503E+01  0.59948189832E+02  0.64369800541E+02  0.00000000000E+00 0.  1.
         14    1    6    6    0    0 -0.31235919647E+02 -0.19751265533E+02  0.71567716311E+00  0.36963595066E+02  0.00000000000E+00 0. -1.
         -5    1    3    3    0  503 -0.43126280531E+01  0.11787413661E+02  0.99260368429E+01  0.16678072099E+02  0.47000000000E+01 0.  1.
         11    1    4    4    0    0 -0.15122558841E+02 -0.36950741652E+02 -0.19633658277E+03  0.20035494212E+03  0.00000000000E+00 0. -1.
        -12    1    4    4    0    0  0.62107892286E+02 -0.45981047182E+02 -0.17157714926E+03  0.18817642024E+03  0.00000000000E+00 0.  1.
</event>
<event>
12    1  0.8251070E-002  0.1833173E+03  0.7818608E-02  0.1164746E+00
         21   -1    0    0  503  502  0.00000000000E+00  0.00000000000E+00  0.34461481287E+03  0.34461481287E+03  0.00000000000E+00 0.  1.
         21   -1    0    0  501  503 -0.00000000000E+00 -0.00000000000E+00 -0.16435494182E+03  0.16435494182E+03  0.00000000000E+00 0.  1.
          6    2    1    2  501    0  0.31391838500E+02 -0.53516816572E+02 -0.72402401435E+02  0.19709726134E+03  0.17249847974E+03 0.  0.
         24    2    3    3    0    0  0.23480142568E+02  0.29930331663E+01 -0.10125046616E+03  0.13298596055E+03  0.82905569558E+02 0.  0.
         -6    2    1    2    0  502 -0.31391838500E+02  0.53516816572E+02  0.25266227248E+03  0.31187249334E+03  0.17197886785E+03 0.  0.
        -24    2    5    5    0    0  0.98328619811E+01  0.91843461299E+02  0.19959026987E+03  0.23436678332E+03  0.80991399151E+02 0.  0.
          5    1    3    3  501    0  0.79116959312E+01 -0.56509849738E+02  0.28848064728E+02  0.64111300786E+02  0.47000000000E+01 0. -1.
        -11    1    4    4    0    0 -0.24333779861E+02 -0.18198785714E+02 -0.20066382287E+02  0.36414122836E+02  0.00000000000E+00 0.  1.
         12    1    4    4    0    0  0.47813922430E+02  0.21191818880E+02 -0.81184083876E+02  0.96571837719E+02  0.00000000000E+00 0. -1.
         -5    1    5    5    0  502 -0.41224700481E+02 -0.38326644728E+02  0.53072002610E+02  0.77505710027E+02  0.47000000000E+01 0.  1.
         11    1    6    6    0    0 -0.28558121000E+02  0.54360625791E+02  0.64716448382E+02  0.89212457665E+02  0.00000000000E+00 0. -1.
        -12    1    6    6    0    0  0.38390982981E+02  0.37482835508E+02  0.13487382149E+03  0.14515432565E+03  0.00000000000E+00 0.  1.
</event>
<event>
12    1  0.8251070E-002  0.1815095E+03  0.7818608E-02  0.1167647E+00
         21   -1    0    0  503  502  0.00000000000E+00  0.00000000000E+00  0.16467516151E+03  0.16467516151E+03  0.00000000000E+00 0.  1.
         21   -1    0    0  501  503 -0.00000000000E+00 -0.00000000000E+00 -0.40174084574E+03  0.40174084574E+03  0.00000000000E+00 0.  1.
          6    2    1    2  501    0 -0.31764958279E+02 -0.22026498361E+02 -0.32291832065E+03  0.37043477767E+03  0.17734571744E+03 0.  0.
         24    2    3    3    0    0 -0.20190914970E+02  0.56532521402E+02 -0.20171099841E+03  0.22545621709E+03  0.80867669197E+02 0.  0.
         -6    2    1    2    0  502  0.31764958279E+02  0.22026498361E+02  0.85852636417E+02  0.19598122958E+03  0.17188306480E+03 0.  0.
        -24    2    5    5    0    0 -0.65185932770E+01  0.73514711818E+02  0.33166430621E+02  0.11282719946E+03  0.78632435453E+02 0.  0.
          5    1    3    3  501    0 -0.11574043309E+02 -0.78559019763E+02 -0.12120732223E+03  0.14497856058E+03  0.47000000000E+01 0. -1.
        -13    1    4    4    0    0 -0.46345252933E+02  0.20205505204E+02 -0.14267958687E+03  0.15137241961E+03  0.00000000000E+00 0.  1.
         14    1    4    4    0    0  0.26154337963E+02  0.36327016199E+02 -0.59031411540E+02  0.74083797477E+02  0.00000000000E+00 0. -1.
         -5    1    5    5    0  502  0.38283551556E+02 -0.51488213458E+02  0.52686205796E+02  0.83154030125E+02  0.47000000000E+01 0.  1.
         11    1    6    6    0    0  0.15688885559E+02  0.77980478730E+02  0.40178615728E+02  0.89114630420E+02  0.00000000000E+00 0. -1.
        -12    1    6    6    0    0 -0.22207478836E+02 -0.44657669118E+01 -0.70121851069E+01  0.23712569037E+02  0.00000000000E+00 0.  1.
</event>
<event>
12    1  0.8251070E-002  0.1845355E+03  0.7818608E-02  0.1163757E+00
         21   -1    0    0  503  502  0.00000000000E+00  0.00000000000E+00  0.59663468488E+02  0.59663468488E+02  0.00000000000E+00 0. -1.
         21   -1    0    0  501  503 -0.00000000000E+00 -0.00000000000E+00 -0.94915536668E+03  0.94915536668E+03  0.00000000000E+00 0. -1.
          6    2    1    2  501    0  0.61028011045E+02  0.15559780303E+02 -0.76556906123E+03  0.78749561485E+03  0.17345555916E+03 0.  0.
         24    2    3    3    0    0  0.52386093299E-01  0.66591063159E+02 -0.40940437052E+03  0.42253315708E+03  0.80547860319E+02 0.  0.
         -6    2    1    2    0  502 -0.61028011045E+02 -0.15559780303E+02 -0.12392283697E+03  0.22132322032E+03  0.17222245334E+03 0.  0.
        -24    2    5    5    0    0 -0.63209412684E+02  0.57823194307E+02 -0.96417496080E+02  0.14278371909E+03  0.61252797775E+02 0.  0.
          5    1    3    3  501    0  0.60975624952E+02 -0.51031282856E+02 -0.35616469072E+03  0.36496245777E+03  0.47000000000E+01 0. -1.
        -13    1    4    4    0    0 -0.20116928402E+02  0.67750773822E+02 -0.19930589053E+03  0.21146559097E+03  0.00000000000E+00 0.  1.
         14    1    4    4    0    0  0.20169314495E+02 -0.11597106628E+01 -0.21009847998E+03  0.21106756612E+03  0.00000000000E+00 0. -1.
         -5    1    5    5    0  502  0.21814016390E+01 -0.73382974611E+02 -0.27505340886E+02  0.78539501228E+02  0.47000000000E+01 0.  1.
         11    1    6    6    0    0 -0.53177882505E+02  0.10716851706E+02 -0.34296730018E+02  0.64179465471E+02  0.00000000000E+00 0. -1.
        -12    1    6    6    0    0 -0.10031530179E+02  0.47106342601E+02 -0.62120766062E+02  0.78604253620E+02  0.00000000000E+00 0.  1.
</event>
<event>
12    1  0.8251070E-002  0.2415359E+03  0.7818608E-02  0.1118805E+00
         21   -1    0    0  501  502  0.00000000000E+00  0.00000000000E+00  0.23529368645E+02  0.23529368645E+02  0.00000000000E+00 0.  1.
         21   -1    0    0  502  503 -0.00000000000E+00 -0.00000000000E+00 -0.26896909536E+04  0.26896909536E+04  0.00000000000E+00 0.  1.
         -6    2    1    2    0  503  0.86130574689E+02  0.14598154399E+03 -0.95153844605E+03  0.98166839244E+03  0.17180899659E+03 0.  0.
        -24    2    3    3    0    0  0.32795360739E+02  0.19203871272E+02 -0.21871538634E+03  0.23603513795E+03  0.80198764130E+02 0.  0.
          6    2    1    2  501    0 -0.86130574689E+02 -0.14598154399E+03 -0.17146231389E+04  0.17315519298E+04  0.17207698882E+03 0.  0.
         24    2    5    5    0    0 -0.48070086044E+02 -0.16544473879E+03 -0.11736307231E+04  0.11888528412E+04  0.79242092461E+02 0.  0.
          5    1    5    5  501    0 -0.38060488646E+02  0.19463194801E+02 -0.54099241581E+03  0.54269908855E+03  0.47000000000E+01 0. -1.
        -11    1    6    6    0    0 -0.50975045980E+02 -0.41868432234E+02 -0.39416015973E+03  0.39964190527E+03  0.00000000000E+00 0.  1.
         12    1    6    6    0    0  0.29049599361E+01 -0.12357630656E+03 -0.77947056332E+03  0.78921093595E+03  0.00000000000E+00 0. -1.
         -5    1    3    3    0  503  0.53335213950E+02  0.12677767272E+03 -0.73282305972E+03  0.74563325449E+03  0.47000000000E+01 0.  1.
         13    1    4    4    0    0  0.23508126532E+02 -0.28250565006E+02 -0.12881689494E+03  0.13395715307E+03  0.00000000000E+00 0. -1.
        -14    1    4    4    0    0  0.92872342066E+01  0.47454436278E+02 -0.89898491399E+02  0.10207798488E+03  0.00000000000E+00 0.  1.
</event>
<event>
12    1  0.8251070E-002  0.1803707E+03  0.7818608E-02  0.1167463E+00
         21   -1    0    0  503  502  0.00000000000E+00  0.00000000000E+00  0.47540964538E+02  0.47540964538E+02  0.00000000000E+00 0. -1.
         21   -1    0    0  501  503 -0.00000000000E+00 -0.00000000000E+00 -0.12997547369E+04  0.12997547369E+04  0.00000000000E+00 0. -1.
          6    2    1    2  501    0  0.53241462224E+02 -0.13534502717E+02 -0.10896886990E+04  0.11045036427E+04  0.17172361522E+03 0.  0.
         24    2    3    3    0    0 -0.58602342626E+01 -0.64698628070E+01 -0.31795346893E+03  0.33046212254E+03  0.89635955704E+02 0.  0.
         -6    2    1    2    0  502 -0.53241462224E+02  0.13534502717E+02 -0.16252507342E+03  0.24279205876E+03  0.17180147917E+03 0.  0.
        -24    2    5    5    0    0  0.33359860271E+02  0.23788631788E+02 -0.56293867153E+02  0.10527080438E+03  0.78956719135E+02 0.  0.
          5    1    3    3  501    0  0.59101696486E+02 -0.70646399103E+01 -0.77173523005E+03  0.77404152018E+03  0.47000000000E+01 0. -1.
        -11    1    4    4    0    0  0.36619849709E+02 -0.23910609543E+02 -0.13950163919E+03  0.14619657308E+03  0.00000000000E+00 0.  1.
         12    1    4    4    0    0 -0.42480083972E+02  0.17440746736E+02 -0.17845182974E+03  0.18426554946E+03  0.00000000000E+00 0. -1.
         -5    1    5    5    0  502 -0.86601322495E+02 -0.10254129071E+02 -0.10623120627E+03  0.13752125438E+03  0.47000000000E+01 0.  1.
         13    1    6    6    0    0 -0.20582873721E+02  0.54666522439E+01  0.47007652576E+01  0.21809084607E+02  0.00000000000E+00 0. -1.
        -14    1    6    6    0    0  0.53942733992E+02  0.18321979544E+02 -0.60994632411E+02  0.83461719776E+02  0.00000000000E+00 0.  1.
</event>
<event>
12    1  0.8251070E-002  0.1863569E+03  0.7818608E-02  0.1161810E+00
         21   -1    0    0  501  502  0.00000000000E+00  0.00000000000E+00  0.10906710747E+03  0.10906710747E+03  0.00000000000E+00 0.  1.
         21   -1    0    0  502  503 -0.00000000000E+00 -0.00000000000E+00 -0.44220910920E+03  0.44220910920E+03  0.00000000000E+00 0. -1.
         -6    2    1    2    0  503 -0.19752329825E+02  0.67517077523E+02 -0.31247311606E+03  0.36377659877E+03  0.17246812825E+03 0.  0.
        -24    2    3    3    0    0  0.72906499221E+01  0.35630136052E+02 -0.31018981677E+03  0.32164106453E+03  0.76893379386E+02 0.  0.
          6    2    1    2  501    0  0.19752329825E+02 -0.67517077523E+02 -0.20668885667E+02  0.18749961790E+03  0.17256938775E+03 0.  0.
         24    2    5    5    0    0 -0.11604620948E+02 -0.48146372897E+02 -0.74925206197E+02  0.12174004919E+03  0.82183408323E+02 0.  0.
          5    1    5    5  501    0  0.31356950773E+02 -0.19370704626E+02  0.54256320530E+02  0.65759568710E+02  0.47000000000E+01 0. -1.
        -13    1    6    6    0    0  0.12440016620E+02 -0.59316295662E+02 -0.25703018285E+02  0.65831771156E+02  0.00000000000E+00 0.  1.
         14    1    6    6    0    0 -0.24044637568E+02  0.11169922765E+02 -0.49222187912E+02  0.55908278038E+02  0.00000000000E+00 0. -1.
         -5    1    3    3    0  503 -0.27042979747E+02  0.31886941471E+02 -0.22832992909E+01  0.42135534239E+02  0.47000000000E+01 0.  1.
         13    1    4    4    0    0 -0.31722663877E+02  0.17249777760E+02 -0.84888276229E+02  0.92249128328E+02  0.00000000000E+00 0. -1.
        -14    1    4    4    0    0  0.39013313799E+02  0.18380358293E+02 -0.22530154054E+03  0.22939193620E+03  0.00000000000E+00 0.  1.
</event>
<event>
12    1  0.8251070E-002  0.1881411E+03  0.7818608E-02  0.1160611E+00
         21   -1    0    0  501  502  0.00000000000E+00  0.00000000000E+00  0.62406148551E+02  0.62406148551E+02  0.00000000000E+00 0.  1.
         21   -1    0    0  502  503 -0.00000000000E+00 -0.00000000000E+00 -0.56149212372E+03  0.56149212372E+03  0.00000000000E+00 0.  1.
         -6    2    1    2    0  503 -0.69042850489E+02  0.32878809299E+02 -0.25581347002E+03  0.31636194129E+03  0.16969506519E+03 0.  0.
        -24    2    3    3    0    0  0.15906297425E+02 -0.17120413552E+01 -0.18063850119E+03  0.19767642988E+03  0.78675036923E+02 0.  0.
          6    2    1    2  501    0  0.69042850489E+02 -0.32878809299E+02 -0.24327250515E+03  0.30753633098E+03  0.17189866726E+03 0.  0.
         24    2    5    5    0    0  0.61210297964E+02 -0.80693465437E+02 -0.21791015180E+03  0.25264617532E+03  0.78019995556E+02 0.  0.
          5    1    5    5  501    0  0.78325525243E+01  0.47814656138E+02 -0.25362353352E+02  0.54890155659E+02  0.47000000000E+01 0. -1.
        -13    1    6    6    0    0  0.18827555710E+02 -0.82880576666E+01 -0.15972240264E+01  0.20632980359E+02  0.00000000000E+00 0.  1.
         14    1    6    6    0    0  0.42382742254E+02 -0.72405407771E+02 -0.21631292777E+03  0.23201319496E+03  0.00000000000E+00 0. -1.
         -5    1    3    3    0  503 -0.84949147913E+02  0.34590850654E+02 -0.75174968828E+02  0.11868551141E+03  0.47000000000E+01 0.  1.
         13    1    4    4    0    0  0.36866493957E+02 -0.35764639310E+01 -0.36471300331E+02  0.51981585382E+02  0.00000000000E+00 0. -1.
        -14    1    4    4    0    0 -0.20960196533E+02  0.18644225758E+01 -0.14416720086E+03  0.14569484450E+03  0.00000000000E+00 0.  1.
</event>
<event>
12    1  0.8251070E-002  0.1948577E+03  0.7818608E-02  0.1154309E+00
         21   -1    0    0  501  502  0.00000000000E+00  0.00000000000E+00  0.80540412043E+03  0.80540412043E+03  0.00000000000E+00 0.  1.
         21   -1    0    0  502  503 -0.00000000000E+00 -0.00000000000E+00 -0.46969330191E+02  0.46969330191E+02  0.00000000000E+00 0.  1.
         -6    2    1    2    0  503  0.78133972938E+02  0.42667753797E+02  0.37742360664E+03  0.42442599177E+03  0.17252069065E+03 0.  0.
        -24    2    3    3    0    0 -0.19595335613E+02  0.35378209711E+02  0.22214806255E+03  0.24075035431E+03  0.83518719513E+02 0.  0.
          6    2    1    2  501    0 -0.78133972938E+02 -0.42667753797E+02  0.38101118360E+03  0.42794745885E+03  0.17333219714E+03 0.  0.
         24    2    5    5    0    0 -0.13502969983E+02 -0.49778345332E+02  0.91643274773E+02  0.13132715658E+03  0.78664594216E+02 0.  0.
          5    1    5    5  501    0 -0.64631002955E+02  0.71105915357E+01  0.28936790883E+03  0.29662030226E+03  0.47000000000E+01 0. -1.
        -11    1    6    6    0    0 -0.29522373139E+02  0.47749046747E+01  0.94086942433E+01  0.31351136467E+02  0.00000000000E+00 0.  1.
         12    1    6    6    0    0  0.16019403156E+02 -0.54553250007E+02  0.82234580530E+02  0.99976020118E+02  0.00000000000E+00 0. -1.
         -5    1    3    3    0  503  0.97729308551E+02  0.72895440854E+01  0.15527554409E+03  0.18367563746E+03  0.47000000000E+01 0.  1.
         13    1    4    4    0    0  0.17227688991E+01  0.12534649847E+02 -0.33575228469E+01  0.13090391100E+02  0.00000000000E+00 0. -1.
        -14    1    4    4    0    0 -0.21318104512E+02  0.22843559864E+02  0.22550558539E+03  0.22765996321E+03  0.00000000000E+00 0.  1.
</event>
<event>
12    1  0.8251070E-002  0.1875415E+03  0.7818608E-02  0.1161194E+00
         21   -1    0    0  503  502  0.00000000000E+00  0.00000000000E+00  0.10161754377E+03  0.10161754377E+03  0.00000000000E+00 0. -1.
         21   -1    0    0  501  503 -0.00000000000E+00 -0.00000000000E+00 -0.60874929659E+03  0.60874929659E+03  0.00000000000E+00 0.  1.
          6    2    1    2  501    0  0.47312468439E+02  0.56187062158E+02 -0.48943393056E+03  0.52413489607E+03  0.17255828367E+03 0.  0.
         24    2    3    3    0    0 -0.37999677194E+02  0.23355980626E+02 -0.30432069866E+03  0.31762813895E+03  0.79291044418E+02 0.  0.
         -6    2    1    2    0  502 -0.47312468439E+02 -0.56187062158E+02 -0.17697822249E+02  0.18623194429E+03  0.17021653427E+03 0.  0.
        -24    2    5    5    0    0 -0.83522867883E+02 -0.36828570648E+02  0.29883849944E+02  0.12320774457E+03  0.77166642793E+02 0.  0.
          5    1    3    3  501    0  0.85312145634E+02  0.32831081532E+02 -0.18511323190E+03  0.20650675711E+03  0.47000000000E+01 0. -1.
        -11    1    4    4    0    0  0.18907739609E+02 -0.13264583239E+02 -0.87104892459E+02  0.90115004722E+02  0.00000000000E+00 0.  1.
         12    1    4    4    0    0 -0.56907416804E+02  0.36620563864E+02 -0.21721580620E+03  0.22751313423E+03  0.00000000000E+00 0. -1.
         -5    1    5    5    0  502  0.36210399444E+02 -0.19358491510E+02 -0.47581672194E+02  0.63024199719E+02  0.47000000000E+01 0.  1.
         13    1    6    6    0    0 -0.36129516552E+01 -0.10647982250E+02  0.37141063890E+02  0.38805818798E+02  0.00000000000E+00 0. -1.
        -14    1    6    6    0    0 -0.79909916228E+02 -0.26180588398E+02 -0.72572139457E+01  0.84401925776E+02  0.00000000000E+00 0.  1.
</event>
<event>
12    1  0.8251070E-002  0.1795146E+03  0.7818608E-02  0.1168296E+00
         21   -1    0    0  503  502  0.00000000000E+00  0.00000000000E+00  0.18837193474E+03  0.18837193474E+03  0.00000000000E+00 0.  1.
         21   -1    0    0  501  503 -0.00000000000E+00 -0.00000000000E+00 -0.20470312116E+03  0.20470312116E+03  0.00000000000E+00 0.  1.
          6    2    1    2  501    0  0.45330874150E+02 -0.15073774057E+02 -0.87930077712E+02  0.19989291811E+03  0.17304153643E+03 0.  0.
         24    2    3    3    0    0  0.47460309934E+02 -0.30263253197E+01 -0.12789988157E+03  0.15782926708E+03  0.79309887004E+02 0.  0.
         -6    2    1    2    0  502 -0.45330874150E+02  0.15073774057E+02  0.71598891297E+02  0.19318213779E+03  0.17294747847E+03 0.  0.
        -24    2    5    5    0    0 -0.40503370381E+02 -0.53223692852E+02  0.15386807741E+02  0.10447059899E+03  0.78765904474E+02 0.  0.
          5    1    3    3  501    0 -0.21294357839E+01 -0.12047448737E+02  0.39969803858E+02  0.42063651033E+02  0.47000000000E+01 0. -1.
        -13    1    4    4    0    0  0.67617895574E+02  0.10628137973E+01 -0.11541580454E+03  0.13376889516E+03  0.00000000000E+00 0.  1.
         14    1    4    4    0    0 -0.20157585640E+02 -0.40891391169E+01 -0.12484077034E+02  0.24060371920E+02  0.00000000000E+00 0. -1.
         -5    1    5    5    0  502 -0.48275037692E+01  0.68297466909E+02  0.56212083556E+02  0.88711538802E+02  0.47000000000E+01 0.  1.
         11    1    6    6    0    0  0.12282300254E+02 -0.30088254462E+02 -0.18716984766E+02  0.37503112868E+02  0.00000000000E+00 0. -1.
        -12    1    6    6    0    0 -0.52785670635E+02 -0.23135438390E+02  0.34103792507E+02  0.66967486120E+02  0.00000000000E+00 0.  1.
</event>
<event>
12    1  0.8251070E-002  0.2783714E+03  0.7818608E-02  0.1096630E+00
         21   -1    0    0  501  502  0.00000000000E+00  0.00000000000E+00  0.12263321401E+04  0.12263321401E+04  0.00000000000E+00 0.  1.
         21   -1    0    0  502  503 -0.00000000000E+00 -0.00000000000E+00 -0.14243302709E+03  0.14243302709E+03  0.00000000000E+00 0. -1.
         -6    2    1    2    0  503  0.14579805975E+03  0.16332179839E+03  0.31063970658E+02  0.27975070957E+03  0.17136045393E+03 0.  0.
        -24    2    3    3    0    0  0.12832369007E+03  0.18418907599E+03  0.53503515000E+02  0.24416391397E+03  0.79754658933E+02 0.  0.
          6    2    1    2  501    0 -0.14579805975E+03 -0.16332179839E+03  0.10528351424E+04  0.10890144576E+04  0.17192896178E+03 0.  0.
         24    2    5    5    0    0 -0.15521461652E+03 -0.13514515357E+03  0.10239040430E+04  0.10472808577E+04  0.77858306700E+02 0.  0.
          5    1    5    5  501    0  0.94165567664E+01 -0.28176644822E+02  0.28931099415E+02  0.41733599990E+02  0.47000000000E+01 0. -1.
        -13    1    6    6    0    0 -0.90584844334E+02 -0.39456868582E+02  0.35545541793E+03  0.36893226023E+03  0.00000000000E+00 0.  1.
         14    1    6    6    0    0 -0.64629772183E+02 -0.95688284990E+02  0.66844862502E+03  0.67834859743E+03  0.00000000000E+00 0. -1.
         -5    1    3    3    0  503  0.17474369683E+02 -0.20867277599E+02 -0.22439544343E+02  0.35586795592E+02  0.47000000000E+01 0.  1.
         11    1    4    4    0    0  0.25884974292E+02  0.51198559509E+02 -0.20206442955E+02  0.60824540498E+02  0.00000000000E+00 0. -1.
        -12    1    4    4    0    0  0.10243871578E+03  0.13299051648E+03  0.73709957955E+02  0.18333937348E+03  0.00000000000E+00 0.  1.
</event>
<event>
12    1  0.8251070E-002  0.2225999E+03  0.7818608E-02  0.1132134E+00
         21   -1    0    0  501  502  0.00000000000E+00  0.00000000000E+00  0.47276511977E+03  0.47276511977E+03  0.00000000000E+00 0.  1.
         21   -1    0    0  502  503 -0.00000000000E+00 -0.00000000000E+00 -0.11733962736E+03  0.11733962736E+03  0.00000000000E+00 0.  1.
         -6    2    1    2    0  503  0.12279268430E+03 -0.66050166710E+02  0.79931365867E+02  0.23651582844E+03  0.17352246544E+03 0.  0.
        -24    2    3    3    0    0  0.71245268265E+02 -0.50095240443E+02  0.12019483632E+03  0.16902558600E+03  0.80854367101E+02 0.  0.
          6    2    1    2  501    0 -0.12279268430E+03  0.66050166710E+02  0.27549412654E+03  0.35358891870E+03  0.17230044060E+03 0.  0.
         24    2    5    5    0    0 -0.56023311707E+02  0.10484667409E+03  0.19938961755E+03  0.24506562908E+03  0.78546205826E+02 0.  0.
          5    1    5    5  501    0 -0.66769372591E+02 -0.38796507376E+02  0.76104508992E+02  0.10852328962E+03  0.47000000000E+01 0. -1.
        -11    1    6    6    0    0 -0.42781843588E+02  0.27316822085E+02  0.13224166905E+03  0.14164869905E+03  0.00000000000E+00 0.  1.
         12    1    6    6    0    0 -0.13241468118E+02  0.77529852000E+02  0.67147948491E+02  0.10341693002E+03  0.00000000000E+00 0. -1.
         -5    1    3    3    0  503  0.51547416032E+02 -0.15954926267E+02 -0.40263470449E+02  0.67490242438E+02  0.47000000000E+01 0.  1.
         11    1    4    4    0    0 -0.17327683692E+02 -0.58616378692E+01  0.29776218560E+02  0.34946110118E+02  0.00000000000E+00 0. -1.
        -12    1    4    4    0    0  0.88572951957E+02 -0.44233602573E+02  0.90418617756E+02  0.13407947588E+03  0.00000000000E+00 0.  1.
</event>
<event>
12    1  0.8251070E-002  0.2140722E+03  0.7818608E-02  0.1140381E+00
         21   -1    0    0  503  502  0.00000000000E+00  0.00000000000E+00  0.15977442908E+03  0.15977442908E+03  0.00000000000E+00 0. -1.
         21   -1    0    0  501  503 -0.00000000000E+00 -0.00000000000E+00 -0.27474197406E+03  0.27474197406E+03  0.00000000000E+00 0.  1.
          6    2    1    2  501    0 -0.69779350909E+02 -0.94778120272E+02 -0.70923362552E+02  0.21596020179E+03  0.16660322778E+03 0.  0.
         24    2    3    3    0    0  0.94472007546E+01 -0.20593913634E+02 -0.68065415064E+02  0.10728453356E+03  0.79772874661E+02 0.  0.
         -6    2    1    2    0  502  0.69779350909E+02  0.94778120272E+02 -0.44044182425E+02  0.21855620134E+03  0.17881519299E+03 0.  0.
        -24    2    5    5    0    0  0.18975435019E+02  0.50519775067E+02 -0.91518903155E+02  0.13599847549E+03  0.84897355040E+02 0.  0.
          5    1    3    3  501    0 -0.79226551664E+02 -0.74184206639E+02 -0.28579474876E+01  0.10867566824E+03  0.47000000000E+01 0. -1.
        -11    1    4    4    0    0 -0.10413136157E+02  0.95426206200E+01 -0.69737707798E+02  0.71153656981E+02  0.00000000000E+00 0.  1.
         12    1    4    4    0    0  0.19860336912E+02 -0.30136534254E+02  0.16722927335E+01  0.36130876575E+02  0.00000000000E+00 0. -1.
         -5    1    5    5    0  502  0.50803915890E+02  0.44258345205E+02  0.47474720730E+02  0.82557725855E+02  0.47000000000E+01 0.  1.
         13    1    6    6    0    0  0.10140054598E+02  0.20276849272E+02  0.13478967191E+02  0.26375251282E+02  0.00000000000E+00 0. -1.
        -14    1    6    6    0    0  0.88353804211E+01  0.30242925795E+02 -0.10499787035E+03  0.10962322420E+03  0.00000000000E+00 0.  1.
</event>
<event>
12    1  0.8251070E-002  0.2025010E+03  0.7818608E-02  0.1147816E+00
         21   -1    0    0  503  502  0.00000000000E+00  0.00000000000E+00  0.22301840875E+03  0.22301840875E+03  0.00000000000E+00 0. -1.
         21   -1    0    0  501  503 -0.00000000000E+00 -0.00000000000E+00 -0.19398816453E+03  0.19398816453E+03  0.00000000000E+00 0. -1.
          6    2    1    2  501    0  0.10245107210E+02  0.10700581366E+03  0.63871402645E+02  0.21233510043E+03  0.17161419645E+03 0.  0.
         24    2    3    3    0    0 -0.18097944818E+02  0.62558063046E+01  0.69725560018E+02  0.10740534422E+03  0.79420296706E+02 0.  0.
         -6    2    1    2    0  502 -0.10245107210E+02 -0.10700581366E+03 -0.34841158433E+02  0.20467147285E+03  0.17064963843E+03 0.  0.
        -24    2    5    5    0    0 -0.91344164536E+01 -0.13379784907E+02  0.34978805399E+02  0.87778426675E+02  0.78861138429E+02 0.  0.
          5    1    3    3  501    0  0.28343052028E+02  0.10075000735E+03 -0.58541573724E+01  0.10492975621E+03  0.47000000000E+01 0. -1.
        -13    1    4    4    0    0 -0.20764625953E+02 -0.34777132057E+02  0.36855595380E+02  0.54762701868E+02  0.00000000000E+00 0.  1.
         14    1    4    4    0    0  0.26666811347E+01  0.41032938362E+02  0.32869964638E+02  0.52642642356E+02  0.00000000000E+00 0. -1.
         -5    1    5    5    0  502 -0.11106907560E+01 -0.93626028751E+02 -0.69819963832E+02  0.11689304617E+03  0.47000000000E+01 0.  1.
         13    1    6    6    0    0 -0.41207865892E+01 -0.14414425794E+02 -0.24151870933E+02  0.28426561921E+02  0.00000000000E+00 0. -1.
        -14    1    6    6    0    0 -0.50136298643E+01  0.10346408875E+01  0.59130676332E+02  0.59351864754E+02  0.00000000000E+00 0.  1.
</event>
<event>
12    1  0.8251070E-002  0.2696774E+03  0.7818608E-02  0.1101701E+00
         21   -1    0    0  503  502  0.00000000000E+00  0.00000000000E+00  0.19505835665E+03  0.19505835665E+03  0.00000000000E+00 0.  1.
         21   -1    0    0  501  503 -0.00000000000E+00 -0.00000000000E+00 -0.37552494025E+03  0.37552494025E+03  0.00000000000E+00 0. -1.
          6    2    1    2  501    0 -0.13012295856E+03 -0.16182511202E+03 -0.12272956043E+03  0.29479448987E+03  0.16947535229E+03 0.  0.
         24    2    3    3    0    0 -0.68085007792E+02 -0.17510674025E+03 -0.10262784805E+03  0.22807659254E+03  0.78667134824E+02 0.  0.
         -6    2    1    2    0  502  0.13012295856E+03  0.16182511202E+03 -0.57737023172E+02  0.27578880703E+03  0.17206554280E+03 0.  0.
        -24    2    5    5    0    0  0.12880140323E+03  0.13833541497E+03 -0.99094822762E+02  0.22797594305E+03  0.80167064312E+02 0.  0.
          5    1    3    3  501    0 -0.62037950763E+02  0.13281628238E+02 -0.20101712375E+02  0.66717897328E+02  0.47000000000E+01 0. -1.
        -13    1    4    4    0    0 -0.29424608018E+02 -0.15181301580E+03 -0.97118099137E+02  0.18260592680E+03  0.00000000000E+00 0.  1.
         14    1    4    4    0    0 -0.38660399774E+02 -0.23293724453E+02 -0.55097489133E+01  0.45470665738E+02  0.00000000000E+00 0. -1.
         -5    1    5    5    0  502  0.13215553236E+01  0.23489697048E+02  0.41357799590E+02  0.47812863989E+02  0.47000000000E+01 0.  1.
         11    1    6    6    0    0  0.83885646107E+02  0.59030067923E+02 -0.89860108909E+02  0.13636784707E+03  0.00000000000E+00 0. -1.
        -12    1    6    6    0    0  0.44915757125E+02  0.79305347046E+02 -0.92347138532E+01  0.91608095975E+02  0.00000000000E+00 0.  1.
</event>
<event>
12    1  0.8251070E-002  0.2287125E+03  0.7818608E-02  0.1127664E+00
         21   -1    0    0  503  502  0.00000000000E+00  0.00000000000E+00  0.11899542610E+03  0.11899542610E+03  0.00000000000E+00 0. -1.
         21   -1    0    0  501  503 -0.00000000000E+00 -0.00000000000E+00 -0.70596623651E+03  0.70596623651E+03  0.00000000000E+00 0. -1.
          6    2    1    2  501    0  0.13761697780E+03 -0.60291798645E+02 -0.54770768424E+03  0.59354284749E+03  0.17244091995E+03 0.  0.
         24    2    3    3    0    0  0.64380975542E+02 -0.10092583253E+03 -0.37826285968E+03  0.40447070436E+03  0.78630948064E+02 0.  0.
         -6    2    1    2    0  502 -0.13761697780E+03  0.60291798645E+02 -0.39263126171E+02  0.23141881511E+03  0.17157954817E+03 0.  0.
        -24    2    5    5    0    0 -0.83407995826E+02  0.38852888533E+00  0.43632414243E+02  0.11557074187E+03  0.67050459212E+02 0.  0.
          5    1    3    3  501    0  0.73236002256E+02  0.40634033885E+02 -0.16944482456E+03  0.18907214313E+03  0.47000000000E+01 0. -1.
        -13    1    4    4    0    0  0.20381026793E+01 -0.63863682005E+02 -0.11680153108E+03  0.13313647661E+03  0.00000000000E+00 0.  1.
         14    1    4    4    0    0  0.62342872863E+02 -0.37062150525E+02 -0.26146132859E+03  0.27133422775E+03  0.00000000000E+00 0. -1.
         -5    1    5    5    0  502 -0.54208981973E+02  0.59903269760E+02 -0.82895540414E+02  0.11584807325E+03  0.47000000000E+01 0.  1.
         11    1    6    6    0    0 -0.36645480660E+02  0.31659311973E+02  0.82804592691E+01  0.49130126126E+02  0.00000000000E+00 0. -1.
        -12    1    6    6    0    0 -0.46762515166E+02 -0.31270783088E+02  0.35351954974E+02  0.66440615741E+02  0.00000000000E+00 0.  1.
</event>
<event>
12    1  0.8251070E-002  0.2077224E+03  0.7818608E-02  0.1143458E+00
         21   -1    0    0  503  502  0.00000000000E+00  0.00000000000E+00  0.50681355230E+03  0.50681355230E+03  0.00000000000E+00 0.  1.
         21   -1    0    0  501  503 -0.00000000000E+00 -0.00000000000E+00 -0.86325836492E+02  0.86325836492E+02  0.00000000000E+00 0.  1.
          6    2    1    2  501    0  0.57347781032E+02  0.10097927967E+03  0.24704160462E+03  0.32252501094E+03  0.17177673114E+03 0.  0.
         24    2    3    3    0    0  0.71713599231E+02  0.13267188848E+03  0.21985871447E+03  0.27812008213E+03  0.79172314927E+02 0.  0.
         -6    2    1    2    0  502 -0.57347781032E+02 -0.10097927967E+03  0.17344611119E+03  0.27061437784E+03  0.17222951286E+03 0.  0.
        -24    2    5    5    0    0  0.74123667456E+01 -0.74753736048E+02  0.33396129702E+02  0.11403295113E+03  0.79026250262E+02 0.  0.
          5    1    3    3  501    0 -0.14365818199E+02 -0.31692608812E+02  0.27182890154E+02  0.44404928814E+02  0.47000000000E+01 0. -1.
        -11    1    4    4    0    0  0.49995766319E+02  0.12766121036E+03  0.21549042361E+03  0.25540768185E+03  0.00000000000E+00 0.  1.
         12    1    4    4    0    0  0.21717832912E+02  0.50106781161E+01  0.43682908599E+01  0.22712400283E+02  0.00000000000E+00 0. -1.
         -5    1    5    5    0  502 -0.64760147778E+02 -0.26225543618E+02  0.14004998148E+03  0.15658142671E+03  0.47000000000E+01 0.  1.
         13    1    6    6    0    0  0.22381665289E+02  0.78326693652E+01  0.32091112550E-01  0.23712669194E+02  0.00000000000E+00 0. -1.
        -14    1    6    6    0    0 -0.14969298543E+02 -0.82586405413E+02  0.33364038590E+02  0.90320281936E+02  0.00000000000E+00 0.  1.
</event>
<event>
12    1  0.8251070E-002  0.2456618E+03  0.7818608E-02  0.1116091E+00
         21   -1    0    0  503  502  0.00000000000E+00  0.00000000000E+00  0.35605232789E+02  0.35605232789E+02  0.00000000000E+00 0. -1.
         21   -1    0    0  501  503 -0.00000000000E+00 -0.00000000000E+00 -0.18782613910E+04  0.18782613910E+04  0.00000000000E+00 0. -1.
          6    2    1    2  501    0  0.16051899768E+03 -0.70219566939E+02 -0.12208794109E+04  0.12453498457E+04  0.17219920458E+03 0.  0.
         24    2    3    3    0    0  0.13849412965E+03 -0.22919945363E+02 -0.56342195005E+03  0.58580852643E+03  0.77597603035E+02 0.  0.
         -6    2    1    2    0  502 -0.16051899768E+03  0.70219566939E+02 -0.62177674728E+03  0.66851677804E+03  0.17207911807E+03 0.  0.
        -24    2    5    5    0    0 -0.15013719513E+03  0.11058582761E+03 -0.54529083731E+03  0.58128489598E+03  0.76023880553E+02 0.  0.
          5    1    3    3  501    0  0.22024868028E+02 -0.47299621576E+02 -0.65745746084E+03  0.65954131927E+03  0.47000000000E+01 0. -1.
        -11    1    4    4    0    0  0.11866438529E+03 -0.41127861001E+02 -0.37496278643E+03  0.39543625086E+03  0.00000000000E+00 0.  1.
         12    1    4    4    0    0  0.19829744359E+02  0.18207915638E+02 -0.18845916362E+03  0.19037227557E+03  0.00000000000E+00 0. -1.
         -5    1    5    5    0  502 -0.10381802545E+02 -0.40366260667E+02 -0.76485909972E+02  0.87231882064E+02  0.47000000000E+01 0.  1.
         11    1    6    6    0    0 -0.44425038386E+02 -0.50192609016E+01 -0.12367120615E+03  0.13150416056E+03  0.00000000000E+00 0. -1.
        -12    1    6    6    0    0 -0.10571215675E+03  0.11560508851E+03 -0.42161963116E+03  0.44978073541E+03  0.00000000000E+00 0.  1.
</event>
<event>
12    1  0.8251070E-002  0.1999796E+03  0.7818608E-02  0.1150290E+00
         21   -1    0    0  503  502  0.00000000000E+00  0.00000000000E+00  0.70104000747E+03  0.70104000747E+03  0.00000000000E+00 0. -1.
         21   -1    0    0  501  503 -0.00000000000E+00 -0.00000000000E+00 -0.69062407544E+02  0.69062407544E+02  0.00000000000E+00 0. -1.
          6    2    1    2  501    0  0.29813762649E+02  0.92611400346E+02  0.15230514452E+03  0.25137358871E+03  0.17471717757E+03 0.  0.
         24    2    3    3    0    0 -0.95580777358E+01  0.42064974525E+02  0.16310632237E+03  0.18622883895E+03  0.78845983589E+02 0.  0.
         -6    2    1    2    0  502 -0.29813762649E+02 -0.92611400346E+02  0.47967245541E+03  0.51872882631E+03  0.17183771078E+03 0.  0.
        -24    2    5    5    0    0 -0.47712952449E+02 -0.86750549211E+02  0.48241401772E+03  0.49912431827E+03  0.81238026650E+02 0.  0.
          5    1    3    3  501    0  0.39371840384E+02  0.50546425821E+02 -0.10801177849E+02  0.65144749761E+02  0.47000000000E+01 0. -1.
        -13    1    4    4    0    0  0.59501067951E+01  0.57994071680E+02  0.14874614473E+03  0.15976273562E+03  0.00000000000E+00 0.  1.
         14    1    4    4    0    0 -0.15508184531E+02 -0.15929097155E+02  0.14360177639E+02  0.26466103330E+02  0.00000000000E+00 0. -1.
         -5    1    5    5    0  502  0.17899189800E+02 -0.58608511348E+01 -0.27415623101E+01  0.19604508038E+02  0.47000000000E+01 0.  1.
         11    1    6    6    0    0 -0.21130083247E+02 -0.35941749678E+02  0.61365864696E+02  0.74189346526E+02  0.00000000000E+00 0. -1.
        -12    1    6    6    0    0 -0.26582869201E+02 -0.50808799533E+02  0.42104815303E+03  0.42493497175E+03  0.00000000000E+00 0.  1.
</event>
<event>
12    1  0.8251070E-002  0.2082009E+03  0.7818608E-02  0.1143945E+00
         21   -1    0    0  503  502  0.00000000000E+00  0.00000000000E+00  0.10770955615E+04  0.10770955615E+04  0.00000000000E+00 0.  1.
         21   -1    0    0  501  503 -0.00000000000E+00 -0.00000000000E+00 -0.87670804097E+02  0.87670804097E+02  0.00000000000E+00 0.  1.
          6    2    1    2  501    0  0.61982779860E+02 -0.91254130765E+02  0.59829329316E+02  0.21214090445E+03  0.17104102816E+03 0.  0.
         24    2    3    3    0    0  0.55519393252E+02 -0.12532738983E+03  0.73753846217E+02  0.17447467926E+03  0.78818945694E+02 0.  0.
         -6    2    1    2    0  502 -0.61982779860E+02  0.91254130765E+02  0.92959542812E+03  0.95262546117E+03  0.17657414283E+03 0.  0.
        -24    2    5    5    0    0 -0.45427949712E+02  0.77457006809E+02  0.30872607443E+03  0.33136443119E+03  0.80170510192E+02 0.  0.
          5    1    3    3  501    0  0.64633866086E+01  0.34073259067E+02 -0.13924516901E+02  0.37666225200E+02  0.47000000000E+01 0. -1.
        -11    1    4    4    0    0  0.94466617868E+01 -0.21117664351E+02 -0.17082004916E+02  0.28757434838E+02  0.00000000000E+00 0.  1.
         12    1    4    4    0    0  0.46072731465E+02 -0.10420972548E+03  0.90835851133E+02  0.14571724442E+03  0.00000000000E+00 0. -1.
         -5    1    5    5    0  502 -0.16554830148E+02  0.13797123956E+02  0.62086935369E+03  0.62126102999E+03  0.47000000000E+01 0.  1.
         13    1    6    6    0    0 -0.57757354833E+02  0.85441439987E+02  0.24232822729E+03  0.26336119959E+03  0.00000000000E+00 0. -1.
        -14    1    6    6    0    0  0.12329405121E+02 -0.79844331788E+01  0.66397847135E+02  0.68003231600E+02  0.00000000000E+00 0.  1.
</event>
<event>
12    1  0.8251070E-002  0.2978260E+03  0.7818608E-02  0.1086440E+00
         21   -1    0    0  501  502  0.00000000000E+00  0.00000000000E+00  0.38443870565E+03  0.38443870565E+03  0.00000000000E+00 0.  1.
         21   -1    0    0  502  503 -0.00000000000E+00 -0.00000000000E+00 -0.88123429621E+03  0.88123429621E+03  0.00000000000E+00 0. -1.
         -6    2    1    2    0  503 -0.20014037487E+03 -0.13810630765E+03 -0.79229531513E+03  0.84612511575E+03  0.17048848425E+03 0.  0.
        -24    2    3    3    0    0 -0.91097012533E+02 -0.59297206787E+01 -0.41511447988E+03  0.43182018277E+03  0.76254911719E+02 0.  0.
          6    2    1    2  501    0  0.20014037487E+03  0.13810630765E+03  0.29549972457E+03  0.41954788611E+03  0.17196168076E+03 0.  0.
         24    2    5    5    0    0  0.11075318170E+03  0.72582636165E+02  0.80721481797E+02  0.17781413713E+03  0.86990823705E+02 0.  0.
          5    1    5    5  501    0  0.89387193169E+02  0.65523671484E+02  0.21477824278E+03  0.24173374898E+03  0.47000000000E+01 0. -1.
        -13    1    6    6    0    0  0.57036086801E+02  0.50816654401E+02  0.91146292173E+02  0.11892474149E+03  0.00000000000E+00 0.  1.
         14    1    6    6    0    0  0.53717094902E+02  0.21765981764E+02 -0.10424810376E+02  0.58889395635E+02  0.00000000000E+00 0. -1.
         -5    1    3    3    0  503 -0.10904336234E+03 -0.13217658697E+03 -0.37718083525E+03  0.41430493298E+03  0.47000000000E+01 0.  1.
         11    1    4    4    0    0 -0.10030694690E+03 -0.10169894645E+02 -0.40550526793E+03  0.41785096945E+03  0.00000000000E+00 0. -1.
        -12    1    4    4    0    0  0.92099343710E+01  0.42401739664E+01 -0.96092119526E+01  0.13969213318E+02  0.00000000000E+00 0.  1.
</event>
<event>
12    1  0.8251070E-002  0.2094988E+03  0.7818608E-02  0.1142298E+00
         21   -1    0    0  503  502  0.00000000000E+00  0.00000000000E+00  0.47665328797E+03  0.47665328797E+03  0.00000000000E+00 0.  1.
         21   -1    0    0  501  503 -0.00000000000E+00 -0.00000000000E+00 -0.95917770220E+02  0.95917770220E+02  0.00000000000E+00 0.  1.
          6    2    1    2  501    0  0.40125256044E+02 -0.11251998206E+03  0.25361779680E+03  0.32895549757E+03  0.17210156883E+03 0.  0.
         24    2    3    3    0    0 -0.10263977051E+02 -0.62806198455E+02  0.51061504025E+02  0.11433565498E+03  0.80096173544E+02 0.  0.
         -6    2    1    2    0  502 -0.40125256044E+02  0.11251998206E+03  0.12711772095E+03  0.24361556062E+03  0.17005541409E+03 0.  0.
        -24    2    5    5    0    0 -0.99597628345E-01 -0.80617363880E+01  0.41973694196E+02  0.90600530482E+02  0.79885315334E+02 0.  0.
          5    1    3    3  501    0  0.50389233095E+02 -0.49713783608E+02  0.20255629277E+03  0.21461984259E+03  0.47000000000E+01 0. -1.
        -11    1    4    4    0    0  0.17930243130E+02 -0.50152433587E+02 -0.15897532359E+01  0.53284965316E+02  0.00000000000E+00 0.  1.
         12    1    4    4    0    0 -0.28194220180E+02 -0.12653764868E+02  0.52651257261E+02  0.61050689661E+02  0.00000000000E+00 0. -1.
         -5    1    5    5    0  502 -0.40025658416E+02  0.12058171845E+03  0.85144026756E+02  0.15301503014E+03  0.47000000000E+01 0.  1.
         11    1    6    6    0    0  0.28851046467E+02 -0.12794764362E+02 -0.80847539101E+01  0.32579934363E+02  0.00000000000E+00 0. -1.
        -12    1    6    6    0    0 -0.28950644095E+02  0.47330279735E+01  0.50058448106E+02  0.58020596120E+02  0.00000000000E+00 0.  1.
</event>
<event>
12    1  0.8251070E-002  0.3878037E+03  0.7818608E-02  0.1048100E+00
         21   -1    0    0  501  502  0.00000000000E+00  0.00000000000E+00  0.12117177316E+03  0.12117177316E+03  0.00000000000E+00 0. -1.
         21   -1    0    0  502  503 -0.00000000000E+00 -0.00000000000E+00 -0.19184663936E+04  0.19184663936E+04  0.00000000000E+00 0.  1.
         -6    2    1    2    0  503  0.14491916492E+03  0.31569439522E+03 -0.15049393442E+04  0.15541023583E+04  0.17241576172E+03 0.  0.
        -24    2    3    3    0    0 -0.19087566815E+02  0.10327451505E+03 -0.53582861151E+03  0.54850894359E+03  0.52151698107E+02 0.  0.
          6    2    1    2  501    0 -0.14491916492E+03 -0.31569439522E+03 -0.29235527621E+03  0.48553580840E+03  0.17207236319E+03 0.  0.
         24    2    5    5    0    0 -0.80265806729E+01 -0.76483478995E+02 -0.11102398057E+03  0.15558949331E+03  0.77250356693E+02 0.  0.
          5    1    5    5  501    0 -0.13689258425E+03 -0.23921091623E+03 -0.18133129564E+03  0.32994631509E+03  0.47000000000E+01 0. -1.
        -13    1    6    6    0    0 -0.36140593767E+02 -0.13494920116E+02 -0.52371100059E+02  0.65046041449E+02  0.00000000000E+00 0.  1.
         14    1    6    6    0    0  0.28114013094E+02 -0.62988558879E+02 -0.58652880511E+02  0.90543451858E+02  0.00000000000E+00 0. -1.
         -5    1    3    3    0  503  0.16400673174E+03  0.21241988017E+03 -0.96911073271E+03  0.10055934148E+04  0.47000000000E+01 0.  1.
         13    1    4    4    0    0 -0.34555335798E+02  0.44707403493E+02 -0.24348715332E+03  0.24995763039E+03  0.00000000000E+00 0. -1.
        -14    1    4    4    0    0  0.15467768982E+02  0.58567111556E+02 -0.29234145820E+03  0.29855131320E+03  0.00000000000E+00 0.  1.
</event>
<event>
12    1  0.8251070E-002  0.2780881E+03  0.7818608E-02  0.1096755E+00
         21   -1    0    0  501  502  0.00000000000E+00  0.00000000000E+00  0.25125983455E+03  0.25125983455E+03  0.00000000000E+00 0. -1.
         21   -1    0    0  502  503 -0.00000000000E+00 -0.00000000000E+00 -0.43751957920E+03  0.43751957920E+03  0.00000000000E+00 0.  1.
         -6    2    1    2    0  503 -0.16148119056E+02 -0.21757488466E+03 -0.28075106146E+03  0.39507614085E+03  0.17223358087E+03 0.  0.
        -24    2    3    3    0    0  0.26102817936E+02 -0.61163845806E+02 -0.17000725749E+03  0.19877067769E+03  0.78644399488E+02 0.  0.
          6    2    1    2  501    0  0.16148119056E+02  0.21757488466E+03  0.94491316802E+02  0.29370327290E+03  0.17243378839E+03 0.  0.
         24    2    5    5    0    0 -0.93556954684E+01  0.18305450285E+03  0.10741764137E+02  0.19947918422E+03  0.77974863824E+02 0.  0.
          5    1    5    5  501    0  0.25503814524E+02  0.34520381802E+02  0.83749552665E+02  0.94224088675E+02  0.47000000000E+01 0. -1.
        -13    1    6    6    0    0 -0.25323955377E+02  0.17196759916E+02 -0.84423047023E+01  0.31753799399E+02  0.00000000000E+00 0.  1.
         14    1    6    6    0    0  0.15968259909E+02  0.16585774294E+03  0.19184068839E+02  0.16772538482E+03  0.00000000000E+00 0. -1.
         -5    1    3    3    0  503 -0.42250936992E+02 -0.15641103885E+03 -0.11074380397E+03  0.19630546316E+03  0.47000000000E+01 0.  1.
         11    1    4    4    0    0  0.18947700169E+02  0.10587546284E+02 -0.82880336702E+02  0.85675327194E+02  0.00000000000E+00 0. -1.
        -12    1    4    4    0    0  0.71551177673E+01 -0.71751392090E+02 -0.87126920791E+02  0.11309535049E+03  0.00000000000E+00 0.  1.
</event>
<event>
12    1  0.8251070E-002  0.2486341E+03  0.7818608E-02  0.1114241E+00
         21   -1    0    0  503  502  0.00000000000E+00  0.00000000000E+00  0.35195536195E+03  0.35195536195E+03  0.00000000000E+00 0.  1.
         21   -1    0    0  501  503 -0.00000000000E+00 -0.00000000000E+00 -0.31623682525E+03  0.31623682525E+03  0.00000000000E+00 0.  1.
          6    2    1    2  501    0  0.13593676488E+03 -0.11658438381E+03  0.24086072259E+03  0.34585347504E+03  0.17184299788E+03 0.  0.
         24    2    3    3    0    0  0.13735840075E+03 -0.98161950571E+02  0.25903773651E+03  0.31951147569E+03  0.80522887197E+02 0.  0.
         -6    2    1    2    0  502 -0.13593676488E+03  0.11658438381E+03 -0.20514218589E+03  0.32233871216E+03  0.17247668344E+03 0.  0.
        -24    2    5    5    0    0 -0.12139081377E+03  0.14216224813E+02 -0.11283903567E+03  0.18365639097E+03  0.77840807142E+02 0.  0.
          5    1    3    3  501    0 -0.14216358782E+01 -0.18422433237E+02 -0.18177013920E+02  0.26341999355E+02  0.47000000000E+01 0. -1.
        -13    1    4    4    0    0  0.12313831789E+03 -0.11233261978E+03  0.22530615939E+03  0.28025796734E+03  0.00000000000E+00 0.  1.
         14    1    4    4    0    0  0.14220082864E+02  0.14170669209E+02  0.33731577124E+02  0.39253508350E+02  0.00000000000E+00 0. -1.
         -5    1    5    5    0  502 -0.14545951104E+02  0.10236815899E+03 -0.92303150228E+02  0.13868232119E+03  0.47000000000E+01 0.  1.
         13    1    6    6    0    0 -0.61377845342E+02  0.68212675224E+01 -0.75176592727E+01  0.62211612987E+02  0.00000000000E+00 0. -1.
        -14    1    6    6    0    0 -0.60012968429E+02  0.73949572911E+01 -0.10532137639E+03  0.12144477798E+03  0.00000000000E+00 0.  1.
</event>
<event>
12    1  0.8251070E-002  0.1924530E+03  0.7818608E-02  0.1156338E+00
         21   -1    0    0  501  502  0.00000000000E+00  0.00000000000E+00  0.51161351142E+02  0.51161351142E+02  0.00000000000E+00 0.  1.
         21   -1    0    0  502  503 -0.00000000000E+00 -0.00000000000E+00 -0.80683782877E+03  0.80683782877E+03  0.00000000000E+00 0.  1.
         -6    2    1    2    0  503 -0.79186413173E+02 -0.35424104182E+02 -0.51660602784E+03  0.55128933994E+03  0.17179287860E+03 0.  0.
        -24    2    3    3    0    0 -0.30549996969E+02  0.41224796397E+02 -0.20473557209E+03  0.22644195098E+03  0.82015343271E+02 0.  0.
          6    2    1    2  501    0  0.79186413173E+02  0.35424104182E+02 -0.23907044979E+03  0.30670983998E+03  0.17143771694E+03 0.  0.
         24    2    5    5    0    0  0.22655962838E+02  0.84018159042E+02 -0.13496091923E+03  0.17857725889E+03  0.78121981368E+02 0.  0.
          5    1    5    5  501    0  0.56530450335E+02 -0.48594054860E+02 -0.10410953056E+03  0.12813258109E+03  0.47000000000E+01 0. -1.
        -11    1    6    6    0    0  0.17317800334E+02  0.47595947920E+02 -0.14597003446E+02  0.52710084200E+02  0.00000000000E+00 0.  1.
         12    1    6    6    0    0  0.53381625045E+01  0.36422211123E+02 -0.12036391578E+03  0.12586717469E+03  0.00000000000E+00 0. -1.
         -5    1    3    3    0  503 -0.48636416204E+02 -0.76648900579E+02 -0.31187045576E+03  0.32484738896E+03  0.47000000000E+01 0.  1.
         11    1    4    4    0    0  0.19451351504E+02  0.10721928002E+02 -0.12797236468E+03  0.12988549163E+03  0.00000000000E+00 0. -1.
        -12    1    4    4    0    0 -0.50001348474E+02  0.30502868395E+02 -0.76763207410E+02  0.96556459346E+02  0.00000000000E+00 0.  1.
</event>
<event>
12    1  0.8251070E-002  0.2404045E+03  0.7818608E-02  0.1121844E+00
         21   -1    0    0  503  502  0.00000000000E+00  0.00000000000E+00  0.24569544904E+03  0.24569544904E+03  0.00000000000E+00 0. -1.
         21   -1    0    0  501  503 -0.00000000000E+00 -0.00000000000E+00 -0.22225765536E+03  0.22225765536E+03  0.00000000000E+00 0. -1.
          6    2    1    2  501    0  0.22781734855E+02  0.15823095810E+03  0.73468729962E+01  0.24051673846E+03  0.17955021969E+03 0.  0.
         24    2    3    3    0    0  0.72908211536E+02  0.86574617064E+02  0.44736250372E+02  0.14529410241E+03  0.79361656166E+02 0.  0.
         -6    2    1    2    0  502 -0.22781734855E+02 -0.15823095810E+03  0.16090920681E+02  0.22743636594E+03  0.16097310110E+03 0.  0.
        -24    2    5    5    0    0 -0.20250451954E+02 -0.17728975385E+03  0.36672516369E+02  0.19888225644E+03  0.79796872407E+02 0.  0.
          5    1    3    3  501    0 -0.50126476681E+02  0.71656341038E+02 -0.37389377376E+02  0.95222636048E+02  0.47000000000E+01 0. -1.
        -13    1    4    4    0    0  0.21358464535E+02  0.23580542485E+01 -0.18234700198E+02  0.28182418606E+02  0.00000000000E+00 0.  1.
         14    1    4    4    0    0  0.51549747000E+02  0.84216562816E+02  0.62970950570E+02  0.11711168381E+03  0.00000000000E+00 0. -1.
         -5    1    5    5    0  502 -0.25312829009E+01  0.19058795744E+02 -0.20581595687E+02  0.28554109500E+02  0.47000000000E+01 0.  1.
         11    1    6    6    0    0  0.23004601421E+02 -0.50389012985E+02 -0.11216206314E+02  0.56516082669E+02  0.00000000000E+00 0. -1.
        -12    1    6    6    0    0 -0.43255053375E+02 -0.12690074086E+03  0.47888722683E+02  0.14236617377E+03  0.00000000000E+00 0.  1.
</event>
<event>
12    1  0.8251070E-002  0.1978907E+03  0.7818608E-02  0.1151577E+00
         21   -1    0    0  503  502  0.00000000000E+00  0.00000000000E+00  0.24526862147E+03  0.24526862147E+03  0.00000000000E+00 0.  1.
         21   -1    0    0  501  503 -0.00000000000E+00 -0.00000000000E+00 -0.17139076259E+03  0.17139076259E+03  0.00000000000E+00 0.  1.
          6    2    1    2  501    0 -0.78391280971E+02 -0.55601006872E+02 -0.17940668561E+02  0.19870227119E+03  0.17298572221E+03 0.  0.
         24    2    3    3    0    0 -0.10425737390E+03 -0.70876092969E+02 -0.48807154402E+02  0.15537545539E+03  0.76592253205E+02 0.  0.
         -6    2    1    2    0  502  0.78391280971E+02  0.55601006872E+02  0.91818527444E+02  0.21795711288E+03  0.17273678292E+03 0.  0.
        -24    2    5    5    0    0 -0.15173167643E+02  0.62381570347E+02  0.36740759121E+02  0.10907216144E+03  0.80157143697E+02 0.  0.
          5    1    3    3  501    0  0.25866092931E+02  0.15275086097E+02  0.30866485841E+02  0.43326815795E+02  0.47000000000E+01 0. -1.
        -11    1    4    4    0    0 -0.64975633761E+02 -0.14453945062E+02 -0.55001059781E+02  0.86347357154E+02  0.00000000000E+00 0.  1.
         12    1    4    4    0    0 -0.39281740140E+02 -0.56422147907E+02  0.61939053788E+01  0.69028098241E+02  0.00000000000E+00 0. -1.
         -5    1    5    5    0  502  0.93564448614E+02 -0.67805634758E+01  0.55077768322E+02  0.10888495143E+03  0.47000000000E+01 0.  1.
         11    1    6    6    0    0  0.22910087034E+02  0.60122596267E+02  0.26399848709E+02  0.69545313873E+02  0.00000000000E+00 0. -1.
        -12    1    6    6    0    0 -0.38083254677E+02  0.22589740803E+01  0.10340910412E+02  0.39526847570E+02  0.00000000000E+00 0.  1.
</event>
<event>
12    1  0.8251070E-002  0.3181395E+03  0.7818608E-02  0.1076569E+00
         21   -1    0    0  501  502  0.00000000000E+00  0.00000000000E+00  0.42398886178E+03  0.42398886178E+03  0.00000000000E+00 0. -1.
         21   -1    0    0  502  503 -0.00000000000E+00 -0.00000000000E+00 -0.30882544435E+03  0.30882544435E+03  0.00000000000E+00 0.  1.
         -6    2    1    2    0  503 -0.23089972004E+03 -0.13498901376E+03 -0.11744568597E+03  0.33912568987E+03  0.17226732083E+03 0.  0.
        -24    2    3    3    0    0 -0.25282668354E+03 -0.11433612382E+03 -0.10397121105E+03  0.30579424728E+03  0.75538254011E+02 0.  0.
          6    2    1    2  501    0  0.23089972004E+03  0.13498901376E+03  0.23260910340E+03  0.39368861626E+03  0.17130971088E+03 0.  0.
         24    2    5    5    0    0  0.24006337782E+03  0.15304602034E+03  0.20945644821E+03  0.36257328960E+03  0.80832400219E+02 0.  0.
          5    1    5    5  501    0 -0.91636577762E+01 -0.18057006588E+02  0.23152655191E+02  0.31115326660E+02  0.47000000000E+01 0. -1.
        -11    1    6    6    0    0  0.12558096537E+02  0.31879517799E+02  0.45987820603E+02  0.57348836845E+02  0.00000000000E+00 0.  1.
         12    1    6    6    0    0  0.22750528128E+03  0.12116650254E+03  0.16346862760E+03  0.30522445276E+03  0.00000000000E+00 0. -1.
         -5    1    3    3    0  503  0.21926963498E+02 -0.20652889933E+02 -0.13474474917E+02  0.33331442590E+02  0.47000000000E+01 0.  1.
         13    1    4    4    0    0 -0.90049761005E+02 -0.54910308422E+01 -0.47716575830E+02  0.10205872077E+03  0.00000000000E+00 0. -1.
        -14    1    4    4    0    0 -0.16277692254E+03 -0.10884509298E+03 -0.56254635219E+02  0.20373552651E+03  0.00000000000E+00 0.  1.
</event>
<event>
12    1  0.8251070E-002  0.1941919E+03  0.7818608E-02  0.1156677E+00
         21   -1    0    0  501  502  0.00000000000E+00  0.00000000000E+00  0.35453891353E+03  0.35453891353E+03  0.00000000000E+00 0.  1.
         21   -1    0    0  502  503 -0.00000000000E+00 -0.00000000000E+00 -0.19138752531E+03  0.19138752531E+03  0.00000000000E+00 0.  1.
         -6    2    1    2    0  503 -0.62641974946E+02  0.28091913793E+02 -0.10626666702E+03  0.21381712793E+03  0.17237165380E+03 0.  0.
        -24    2    3    3    0    0  0.99566151106E+01  0.43719772092E+02 -0.95898743956E+01  0.91820089177E+02  0.79551306899E+02 0.  0.
          6    2    1    2  501    0  0.62641974946E+02 -0.28091913793E+02  0.26941805524E+03  0.33210931092E+03  0.18165168114E+03 0.  0.
         24    2    5    5    0    0 -0.45772560489E+00  0.38911925075E+02  0.19364252423E+03  0.21279834020E+03  0.79191912323E+02 0.  0.
          5    1    5    5  501    0  0.63099700551E+02 -0.67003838868E+02  0.75775531008E+02  0.11931097071E+03  0.47000000000E+01 0. -1.
        -13    1    6    6    0    0  0.37543536246E+02  0.15520855049E+02  0.65156397464E+02  0.76783918797E+02  0.00000000000E+00 0.  1.
         14    1    6    6    0    0 -0.38001261851E+02  0.23391070026E+02  0.12848612677E+03  0.13601442141E+03  0.00000000000E+00 0. -1.
         -5    1    3    3    0  503 -0.72598590057E+02 -0.15627858298E+02 -0.96676792622E+02  0.12199703875E+03  0.47000000000E+01 0.  1.
         13    1    4    4    0    0  0.46052592306E+01  0.16796381960E+02  0.35208488585E+02  0.39280587164E+02  0.00000000000E+00 0. -1.
        -14    1    4    4    0    0  0.53513558799E+01  0.26923390132E+02 -0.44798362981E+02  0.52539502012E+02  0.00000000000E+00 0.  1.
</event>
<event>
12    1  0.8251070E-002  0.1905483E+03  0.7818608E-02  0.1158416E+00
         21   -1    0    0  501  502  0.00000000000E+00  0.00000000000E+00  0.20256722799E+03  0.20256722799E+03  0.00000000000E+00 0.  1.
         21   -1    0    0  502  503 -0.00000000000E+00 -0.00000000000E+00 -0.17808065380E+03  0.17808065380E+03  0.00000000000E+00 0.  1.
         -6    2    1    2    0  503  0.47520948206E+02  0.67598998441E+02  0.37090853353E+00  0.19054862014E+03  0.17169966207E+03 0.  0.
        -24    2    3    3    0    0  0.54046111666E+01 -0.20208680841E+02 -0.34120068173E+02  0.87128642087E+02  0.77392639292E+02 0.  0.
          6    2    1    2  501    0 -0.47520948206E+02 -0.67598998441E+02  0.24115665655E+02  0.19009926165E+03  0.16949424427E+03 0.  0.
         24    2    5    5    0    0 -0.48847443448E+02 -0.13328380105E+02  0.70210858881E+02  0.11872758350E+03  0.81258574506E+02 0.  0.
          5    1    5    5  501    0  0.13264952424E+01 -0.54270618336E+02 -0.46095193226E+02  0.71371678155E+02  0.47000000000E+01 0. -1.
        -13    1    6    6    0    0 -0.21781837197E+01 -0.27087084188E+02  0.64185201566E+02  0.69700751174E+02  0.00000000000E+00 0.  1.
         14    1    6    6    0    0 -0.46669259728E+02  0.13758704083E+02  0.60256573146E+01  0.49026832324E+02  0.00000000000E+00 0. -1.
         -5    1    3    3    0  503  0.42116337039E+02  0.87807679282E+02  0.34490976706E+02  0.10341997805E+03  0.47000000000E+01 0.  1.
         13    1    4    4    0    0 -0.10844303738E+02 -0.47327253912E+02 -0.20349155641E+02  0.52645569821E+02  0.00000000000E+00 0. -1.
        -14    1    4    4    0    0  0.16248914904E+02  0.27118573071E+02 -0.13770912532E+02  0.34483072267E+02  0.00000000000E+00 0.  1.
</event>
<event>
12    1  0.8251070E-002  0.2406713E+03  0.7818608E-02  0.1119430E+00
         21   -1    0    0  503  502  0.00000000000E+00  0.00000000000E+00  0.19571483530E+03  0.19571483530E+03  0.00000000000E+00 0.  1.
         21   -1    0    0  501  503 -0.00000000000E+00 -0.00000000000E+00 -0.42673249675E+03  0.42673249675E+03  0.00000000000E+00 0. -1.
          6    2    1    2  501    0  0.15730947790E+03  0.57920783814E+02 -0.28829183254E+03  0.37554610643E+03  0.17268934046E+03 0.  0.
         24    2    3    3    0    0  0.11722950125E+03  0.10693034155E+03 -0.20299561260E+03  0.26921701157E+03  0.78062325598E+02 0.  0.
         -6    2    1    2    0  502 -0.15730947790E+03 -0.57920783814E+02  0.57274171078E+02  0.24690122562E+03  0.17198486999E+03 0.  0.
        -24    2    5    5    0    0 -0.13840560273E+03  0.18928426867E+02  0.33041846454E+02  0.16400096486E+03  0.79310507783E+02 0.  0.
          5    1    3    3  501    0  0.40079976656E+02 -0.49009557731E+02 -0.85296219934E+02  0.10632909486E+03  0.47000000000E+01 0. -1.
        -13    1    4    4    0    0  0.62981355840E+02  0.96731797747E+02 -0.10161412326E+03  0.15378271010E+03  0.00000000000E+00 0.  1.
         14    1    4    4    0    0  0.54248145407E+02  0.10198543798E+02 -0.10138148934E+03  0.11543430147E+03  0.00000000000E+00 0. -1.
         -5    1    5    5    0  502 -0.18903875170E+02 -0.76849210681E+02  0.24232324624E+02  0.82900260768E+02  0.47000000000E+01 0.  1.
         13    1    6    6    0    0 -0.13101876727E+02  0.32006593946E+02  0.51461126940E+01  0.34965178473E+02  0.00000000000E+00 0. -1.
        -14    1    6    6    0    0 -0.12530372601E+03 -0.13078167080E+02  0.27895733760E+02  0.12903578638E+03  0.00000000000E+00 0.  1.
</event>
<event>
12    1  0.8251070E-002  0.1744461E+03  0.7818608E-02  0.1173551E+00
         21   -1    0    0  503  502  0.00000000000E+00  0.00000000000E+00  0.17605819441E+03  0.17605819441E+03  0.00000000000E+00 0.  1.
         21   -1    0    0  501  503 -0.00000000000E+00 -0.00000000000E+00 -0.59295887338E+03  0.59295887338E+03  0.00000000000E+00 0.  1.
          6    2    1    2  501    0 -0.50882602514E+01  0.19537789441E+02 -0.53267387209E+03  0.56051127993E+03  0.17327384487E+03 0.  0.
         24    2    3    3    0    0 -0.31923051820E+02 -0.14668171725E+01 -0.12313841001E+03  0.14953356248E+03  0.78587438557E+02 0.  0.
         -6    2    1    2    0  502  0.50882602514E+01 -0.19537789441E+02  0.11577319312E+03  0.20850578787E+03  0.17223128555E+03 0.  0.
        -24    2    5    5    0    0  0.24853648824E+02  0.43658122153E+02  0.29178152110E+02  0.99394904111E+02  0.80648911419E+02 0.  0.
          5    1    3    3  501    0  0.26834791569E+02  0.21004606613E+02 -0.40953546208E+03  0.41097771745E+03  0.47000000000E+01 0. -1.
        -11    1    4    4    0    0  0.78114570495E+00 -0.24958298561E+02 -0.10004594803E+03  0.10311507442E+03  0.00000000000E+00 0.  1.
         12    1    4    4    0    0 -0.32704197525E+02  0.23491481388E+02 -0.23092461978E+02  0.46418488060E+02  0.00000000000E+00 0. -1.
         -5    1    5    5    0  502 -0.19765388573E+02 -0.63195911594E+02  0.86595041005E+02  0.10911088376E+03  0.47000000000E+01 0.  1.
         13    1    6    6    0    0 -0.21612753218E+02  0.33277261652E+02 -0.60887258028E+01  0.40144237776E+02  0.00000000000E+00 0. -1.
        -14    1    6    6    0    0  0.46466402042E+02  0.10380860500E+02  0.35266877913E+02  0.59250666335E+02  0.00000000000E+00 0.  1.
</event>
<event>
12    1  0.8251070E-002  0.2864166E+03  0.7818608E-02  0.1093704E+00
         21   -1    0    0  501  502  0.00000000000E+00  0.00000000000E+00  0.59730120648E+03  0.59730120648E+03  0.00000000000E+00 0. -1.
         21   -1    0    0  502  503 -0.00000000000E+00 -0.00000000000E+00 -0.18890514620E+03  0.18890514620E+03  0.00000000000E+00 0.  1.
         -6    2    1    2    0  503  0.19097851284E+03 -0.96297157627E+02  0.41680828052E+03  0.49966626020E+03  0.17375642129E+03 0.  0.
        -24    2    3    3    0    0  0.21422965251E+03 -0.72393976363E+02  0.38377486308E+03  0.45249344770E+03  0.79573505986E+02 0.  0.
          6    2    1    2  501    0 -0.19097851284E+03  0.96297157627E+02 -0.84122202426E+01  0.28654009248E+03  0.19049547033E+03 0.  0.
         24    2    5    5    0    0 -0.86026320273E+01  0.54278193621E+02 -0.19658929736E+02  0.98989742673E+02  0.79952286118E+02 0.  0.
          5    1    5    5  501    0 -0.18237588081E+03  0.42018964006E+02  0.11246709493E+02  0.18755034980E+03  0.47000000000E+01 0. -1.
        -13    1    6    6    0    0 -0.55999684205E+01  0.75340299747E+02 -0.12718510171E+02  0.76611232291E+02  0.00000000000E+00 0.  1.
         14    1    6    6    0    0 -0.30026636068E+01 -0.21062106125E+02 -0.69404195645E+01  0.22378510382E+02  0.00000000000E+00 0. -1.
         -5    1    3    3    0  503 -0.23251139677E+02 -0.23903181265E+02  0.33033417450E+02  0.47172812501E+02  0.47000000000E+01 0.  1.
         13    1    4    4    0    0  0.74596635998E+02  0.13467101436E+02  0.12063313457E+03  0.14247236251E+03  0.00000000000E+00 0. -1.
        -14    1    4    4    0    0  0.13963301651E+03 -0.85861077799E+02  0.26314172851E+03  0.31002108519E+03  0.00000000000E+00 0.  1.
</event>
<event>
12    1  0.8251070E-002  0.2454279E+03  0.7818608E-02  0.1116613E+00
         21   -1    0    0  503  502  0.00000000000E+00  0.00000000000E+00  0.33116273904E+03  0.33116273904E+03  0.00000000000E+00 0.  1.
         21   -1    0    0  501  503 -0.00000000000E+00 -0.00000000000E+00 -0.54202088824E+03  0.54202088824E+03  0.00000000000E+00 0. -1.
          6    2    1    2  501    0 -0.13367233505E+03 -0.11105362940E+03 -0.46233582924E+03  0.52343986811E+03  0.17330226417E+03 0.  0.
         24    2    3    3    0    0 -0.59094534696E+00 -0.29208861570E+02 -0.11891249597E+03  0.14611918468E+03  0.79731597403E+02 0.  0.
         -6    2    1    2    0  502  0.13367233505E+03  0.11105362940E+03  0.25147768004E+03  0.34974375918E+03  0.16993666986E+03 0.  0.
        -24    2    5    5    0    0  0.66348866205E+02  0.10110153506E+02  0.52836875867E+02  0.11692989819E+03  0.79852854610E+02 0.  0.
          5    1    3    3  501    0 -0.13308138971E+03 -0.81844767825E+02 -0.34342333328E+03  0.37732068343E+03  0.47000000000E+01 0. -1.
        -11    1    4    4    0    0 -0.22461328060E+02 -0.32992912824E+02 -0.19804529918E+02  0.44556289793E+02  0.00000000000E+00 0.  1.
         12    1    4    4    0    0  0.21870382713E+02  0.37840512542E+01 -0.99107966048E+02  0.10156289489E+03  0.00000000000E+00 0. -1.
         -5    1    5    5    0  502  0.67323468849E+02  0.10094347589E+03  0.19864080418E+03  0.23281386098E+03  0.47000000000E+01 0.  1.
         11    1    6    6    0    0  0.83370593048E+02  0.43685173724E+01  0.53141295352E+02  0.98963311388E+02  0.00000000000E+00 0. -1.
        -12    1    6    6    0    0 -0.17021726843E+02  0.57416361335E+01 -0.30441948430E+00  0.17966586805E+02  0.00000000000E+00 0.  1.
</event>
<event>
12    1  0.8251070E-002  0.1806568E+03  0.7818608E-02  0.1168012E+00
         21   -1    0    0  503  502  0.00000000000E+00  0.00000000000E+00  0.20967499289E+03  0.20967499289E+03  0.00000000000E+00 0.  1.
         21   -1    0    0  501  503 -0.00000000000E+00 -0.00000000000E+00 -0.19664479672E+03  0.19664479672E+03  0.00000000000E+00 0.  1.
          6    2    1    2  501    0  0.10445362203E+02  0.56340833287E+02 -0.89587988370E+02  0.19855218496E+03  0.16767100944E+03 0.  0.
         24    2    3    3    0    0  0.46657106951E+02  0.12972080946E+02 -0.67357951103E+00  0.93100768471E+02  0.79511878782E+02 0.  0.
         -6    2    1    2    0  502 -0.10445362203E+02 -0.56340833287E+02  0.10261818455E+03  0.20776760464E+03  0.17132860431E+03 0.  0.
        -24    2    5    5    0    0 -0.15031752260E+02 -0.98016181877E+02  0.41646042659E+02  0.13362206034E+03  0.79292727628E+02 0.  0.
          5    1    3    3  501    0 -0.36211744748E+02  0.43368752340E+02 -0.88914408859E+02  0.10545141649E+03  0.47000000000E+01 0. -1.
        -11    1    4    4    0    0  0.23651374198E+02  0.41357410771E+02 -0.20112557079E+02  0.51714000807E+02  0.00000000000E+00 0.  1.
         12    1    4    4    0    0  0.23005732753E+02 -0.28385329825E+02  0.19438977568E+02  0.41386767664E+02  0.00000000000E+00 0. -1.
         -5    1    5    5    0  502  0.45863900572E+01  0.41675348591E+02  0.60972141887E+02  0.74145544304E+02  0.47000000000E+01 0.  1.
         13    1    6    6    0    0 -0.41947188300E+02 -0.24372975696E+02  0.17645106355E+02  0.51623234389E+02  0.00000000000E+00 0. -1.
        -14    1    6    6    0    0  0.26915436040E+02 -0.73643206181E+02  0.24000936304E+02  0.81998825951E+02  0.00000000000E+00 0.  1.
</event>
<event>
12    1  0.8251070E-002  0.2204867E+03  0.7818608E-02  0.1137113E+00
         21   -1    0    0  501  502  0.00000000000E+00  0.00000000000E+00  0.50196715201E+02  0.50196715201E+02  0.00000000000E+00 0. -1.
         21   -1    0    0  502  503 -0.00000000000E+00 -0.00000000000E+00 -0.11373845638E+04  0.11373845638E+04  0.00000000000E+00 0. -1.
         -6    2    1    2    0  503 -0.53814706349E+02  0.11989282495E+03 -0.80224546906E+03  0.82729453976E+03  0.15345406735E+03 0.  0.
        -24    2    3    3    0    0 -0.47894187275E+02  0.82739350433E+02 -0.76207085481E+03  0.77205394919E+03  0.78585364025E+02 0.  0.
          6    2    1    2  501    0  0.53814706349E+02 -0.11989282495E+03 -0.28494237958E+03  0.36028673929E+03  0.17704254497E+03 0.  0.
         24    2    5    5    0    0  0.37380613541E+02  0.46838179999E+01 -0.76805549187E+02  0.11711509303E+03  0.79985024913E+02 0.  0.
          5    1    5    5  501    0  0.16434092807E+02 -0.12457664295E+03 -0.20813683040E+03  0.24317164626E+03  0.47000000000E+01 0. -1.
        -11    1    6    6    0    0  0.41909784937E+02 -0.38427103273E+01 -0.90819753290E+02  0.10009707330E+03  0.00000000000E+00 0.  1.
         12    1    6    6    0    0 -0.45291713950E+01  0.85265283272E+01  0.14014204104E+02  0.17018019729E+02  0.00000000000E+00 0. -1.
         -5    1    3    3    0  503 -0.59205190739E+01  0.37153474521E+02 -0.40174614257E+02  0.55240590563E+02  0.47000000000E+01 0.  1.
         13    1    4    4    0    0 -0.58713895019E+02  0.32920188247E+02 -0.31668411205E+03  0.32375899537E+03  0.00000000000E+00 0. -1.
        -14    1    4    4    0    0  0.10819707744E+02  0.49819162186E+02 -0.44538674276E+03  0.44829495382E+03  0.00000000000E+00 0.  1.
</event>
<event>
12    1  0.8251070E-002  0.2906557E+03  0.7818608E-02  0.1090102E+00
         21   -1    0    0  503  502  0.00000000000E+00  0.00000000000E+00  0.17909657351E+04  0.17909657351E+04  0.00000000000E+00 0.  1.
         21   -1    0    0  501  503 -0.00000000000E+00 -0.00000000000E+00 -0.51522454087E+02  0.51522454087E+02  0.00000000000E+00 0. -1.
          6    2    1    2  501    0 -0.79282001464E+02  0.21907650228E+03  0.59936972534E+03  0.66612672505E+03  0.17378318838E+03 0.  0.
         24    2    3    3    0    0 -0.38991471869E+02  0.29702808502E+02  0.14821985297E+03  0.17516438432E+03  0.79440827094E+02 0.  0.
         -6    2    1    2    0  502  0.79282001464E+02 -0.21907650228E+03  0.11400735556E+04  0.11763614641E+04  0.17256428470E+03 0.  0.
        -24    2    5    5    0    0  0.66998044166E+02 -0.90937686647E+02  0.81651583832E+03  0.82810561259E+03  0.79387597240E+02 0.  0.
          5    1    3    3  501    0 -0.40290529595E+02  0.18937369378E+03  0.45114987238E+03  0.49096234073E+03  0.47000000000E+01 0. -1.
        -13    1    4    4    0    0 -0.53433966046E+02  0.26558996088E+02  0.14885554543E+03  0.16037001717E+03  0.00000000000E+00 0.  1.
         14    1    4    4    0    0  0.14442494177E+02  0.31438124139E+01 -0.63569246458E+00  0.14794367153E+02  0.00000000000E+00 0. -1.
         -5    1    5    5    0  502  0.12283957298E+02 -0.12813881564E+03  0.32355771732E+03  0.34825585152E+03  0.47000000000E+01 0.  1.
         13    1    6    6    0    0  0.75214653084E+01 -0.13965804768E+02  0.19322299993E+02  0.24999348396E+02  0.00000000000E+00 0. -1.
        -14    1    6    6    0    0  0.59476578858E+02 -0.76971881879E+02  0.79719353833E+03  0.80310626419E+03  0.00000000000E+00 0.  1.
</event>
<event>
12    1  0.8251070E-002  0.1937691E+03  0.7818608E-02  0.1155233E+00
         21   -1    0    0  503  502  0.00000000000E+00  0.00000000000E+00  0.40147883310E+03  0.40147883310E+03  0.00000000000E+00 0.  1.
         21   -1    0    0  501  503 -0.00000000000E+00 -0.00000000000E+00 -0.26955226139E+03  0.26955226139E+03  0.00000000000E+00 0.  1.
          6    2    1    2  501    0  0.87917061872E+02 -0.22991323628E+02 -0.20542261704E+03  0.28199261659E+03  0.17047983309E+03 0.  0.
         24    2    3    3    0    0  0.10180401657E+03  0.12738711963E+01 -0.21562735691E+03  0.25186167059E+03  0.81076898851E+02 0.  0.
         -6    2    1    2    0  502 -0.87917061872E+02  0.22991323628E+02  0.33734918875E+03  0.38903847790E+03  0.17113869056E+03 0.  0.
        -24    2    5    5    0    0 -0.11989655670E+02  0.54542880359E+02  0.11158221290E+03  0.14871933773E+03  0.80920785587E+02 0.  0.
          5    1    3    3  501    0 -0.13886954702E+02 -0.24265194825E+02  0.10204739872E+02  0.30130945996E+02  0.47000000000E+01 0. -1.
        -13    1    4    4    0    0  0.54087543078E+02  0.27298145163E+02 -0.17138779754E+03  0.18178126469E+03  0.00000000000E+00 0.  1.
         14    1    4    4    0    0  0.47716473497E+02 -0.26024273967E+02 -0.44239559364E+02  0.70080405900E+02  0.00000000000E+00 0. -1.
         -5    1    5    5    0  502 -0.75927406203E+02 -0.31551556730E+02  0.22576697585E+03  0.24031914016E+03  0.47000000000E+01 0.  1.
         13    1    6    6    0    0  0.33760436949E+02  0.16882065464E+02  0.55583982981E+02  0.67188915762E+02  0.00000000000E+00 0. -1.
        -14    1    6    6    0    0 -0.45750092618E+02  0.37660814894E+02  0.55998229915E+02  0.81530421970E+02  0.00000000000E+00 0.  1.
</event>
<event>
12    1  0.8251070E-002  0.2652654E+03  0.7818608E-02  0.1104178E+00
         21   -1    0    0  503  502  0.00000000000E+00  0.00000000000E+00  0.98960309871E+03  0.98960309871E+03  0.00000000000E+00 0.  1.
         21   -1    0    0  501  503 -0.00000000000E+00 -0.00000000000E+00 -0.87471029272E+02  0.87471029272E+02  0.00000000000E+00 0. -1.
          6    2    1    2  501    0 -0.14785192247E+03  0.13654359821E+03  0.68679416539E+03  0.73624177153E+03  0.17280444245E+03 0.  0.
         24    2    3    3    0    0 -0.12135552945E+03  0.16134538909E+03  0.64584158571E+03  0.68132008676E+03  0.79537460900E+02 0.  0.
         -6    2    1    2    0  502  0.14785192247E+03 -0.13654359821E+03  0.21533790404E+03  0.34083235645E+03  0.17114887408E+03 0.  0.
        -24    2    5    5    0    0  0.14841692301E+03 -0.11151142120E+03  0.10440729727E+03  0.22701399840E+03  0.78562660672E+02 0.  0.
          5    1    3    3  501    0 -0.26496393022E+02 -0.24801790887E+02  0.40952579688E+02  0.54921684765E+02  0.47000000000E+01 0. -1.
        -11    1    4    4    0    0 -0.25748533211E+01 -0.37600350246E+01  0.78319451711E+02  0.78451923172E+02  0.00000000000E+00 0.  1.
         12    1    4    4    0    0 -0.11878067613E+03  0.16510542412E+03  0.56752213399E+03  0.60286816359E+03  0.00000000000E+00 0. -1.
         -5    1    5    5    0  502 -0.56500053456E+00 -0.25032177003E+02  0.11093060677E+03  0.11381835805E+03  0.47000000000E+01 0.  1.
         11    1    6    6    0    0  0.10814001084E+03 -0.11148447130E+03  0.58562988533E+02  0.16598997835E+03  0.00000000000E+00 0. -1.
        -12    1    6    6    0    0  0.40276912166E+02 -0.26949905345E-01  0.45844308733E+02  0.61024020050E+02  0.00000000000E+00 0.  1.
</event>
<event>
12    1  0.8251070E-002  0.1837986E+03  0.7818608E-02  0.1164246E+00
         21   -1    0    0  503  502  0.00000000000E+00  0.00000000000E+00  0.26362839842E+02  0.26362839842E+02  0.00000000000E+00 0.  1.
         21   -1    0    0  501  503 -0.00000000000E+00 -0.00000000000E+00 -0.12862954373E+04  0.12862954373E+04  0.00000000000E+00 0.  1.
          6    2    1    2  501    0  0.63242740373E+02 -0.20540199155E+02 -0.67763909895E+03  0.70204576470E+03  0.17103205346E+03 0.  0.
         24    2    3    3    0    0  0.50053539798E+02  0.50662777116E+02 -0.47271704177E+03  0.48465450829E+03  0.79727768050E+02 0.  0.
         -6    2    1    2    0  502 -0.63242740373E+02  0.20540199155E+02 -0.58229349846E+03  0.61061251240E+03  0.17134870281E+03 0.  0.
        -24    2    5    5    0    0  0.23095539160E+02  0.43079561813E+01 -0.39736795627E+03  0.40582645238E+03  0.79005407172E+02 0.  0.
          5    1    3    3  501    0  0.13189200575E+02 -0.71202976271E+02 -0.20492205719E+03  0.21739125641E+03  0.47000000000E+01 0. -1.
        -13    1    4    4    0    0  0.32224976759E+02  0.48789845204E+02 -0.45726251039E+03  0.46098579320E+03  0.00000000000E+00 0.  1.
         14    1    4    4    0    0  0.17828563039E+02  0.18729319119E+01 -0.15454531372E+02  0.23668715088E+02  0.00000000000E+00 0. -1.
         -5    1    5    5    0  502 -0.86338279533E+02  0.16232242974E+02 -0.18492554219E+03  0.20478606002E+03  0.47000000000E+01 0.  1.
         11    1    6    6    0    0  0.17738640923E+02 -0.36860437708E+02 -0.19562305807E+03  0.19985427716E+03  0.00000000000E+00 0. -1.
        -12    1    6    6    0    0  0.53568982364E+01  0.41168393890E+02 -0.20174489820E+03  0.20597217522E+03  0.00000000000E+00 0.  1.
</event>
<event>
12    1  0.8251070E-002  0.1766581E+03  0.7818608E-02  0.1171267E+00
         21   -1    0    0  503  502  0.00000000000E+00  0.00000000000E+00  0.15188804064E+03  0.15188804064E+03  0.00000000000E+00 0.  1.
         21   -1    0    0  501  503 -0.00000000000E+00 -0.00000000000E+00 -0.21337568086E+03  0.21337568086E+03  0.00000000000E+00 0.  1.
          6    2    1    2  501    0  0.28121743432E+01 -0.31894338684E+02 -0.67885808945E+02  0.18925269647E+03  0.17373238875E+03 0.  0.
         24    2    3    3    0    0  0.36355623494E+02 -0.52089568727E+02  0.95754341727E+01  0.10233121188E+03  0.79655090582E+02 0.  0.
         -6    2    1    2    0  502 -0.28121743432E+01  0.31894338684E+02  0.63981687274E+01  0.17601102503E+03  0.17295602679E+03 0.  0.
        -24    2    5    5    0    0  0.11955811141E+01  0.20735678281E+02 -0.64327169697E+02  0.10414489044E+03  0.79226104756E+02 0.  0.
          5    1    3    3  501    0 -0.33543449150E+02  0.20195230043E+02 -0.77461243118E+02  0.86921484586E+02  0.47000000000E+01 0. -1.
        -11    1    4    4    0    0  0.59375184690E+02 -0.48624670631E+02 -0.10266935577E+01  0.76751711711E+02  0.00000000000E+00 0.  1.
         12    1    4    4    0    0 -0.23019561196E+02 -0.34648980958E+01  0.10602127730E+02  0.25579500169E+02  0.00000000000E+00 0. -1.
         -5    1    5    5    0  502 -0.40077554574E+01  0.11158660403E+02  0.70725338424E+02  0.71866134591E+02  0.47000000000E+01 0.  1.
         11    1    6    6    0    0 -0.38659271310E+02  0.50642140571E+01 -0.33077824691E+02  0.51130499787E+02  0.00000000000E+00 0. -1.
        -12    1    6    6    0    0  0.39854852424E+02  0.15671464224E+02 -0.31249345006E+02  0.53014390649E+02  0.00000000000E+00 0.  1.
</event>
<event>
12    1  0.8251070E-002  0.2009993E+03  0.7818608E-02  0.1148931E+00
         21   -1    0    0  501  502  0.00000000000E+00  0.00000000000E+00  0.16917004368E+03  0.16917004368E+03  0.00000000000E+00 0.  1.
         21   -1    0    0  502  503 -0.00000000000E+00 -0.00000000000E+00 -0.25073226938E+03  0.25073226938E+03  0.00000000000E+00 0.  1.
         -6    2    1    2    0  503  0.96081258481E+01  0.10316364465E+03 -0.86880170927E+02  0.21883264516E+03  0.17205960835E+03 0.  0.
        -24    2    3    3    0    0 -0.37798491745E+02  0.61682585824E+02 -0.10731251677E+03  0.15244261285E+03  0.80556232449E+02 0.  0.
          6    2    1    2  501    0 -0.96081258481E+01 -0.10316364465E+03  0.53179452294E+01  0.20106966791E+03  0.17223726993E+03 0.  0.
         24    2    5    5    0    0 -0.47323244906E+02 -0.11303672618E+03 -0.30655721351E+02  0.14781459649E+03  0.76763211954E+02 0.  0.
          5    1    5    5  501    0  0.37715119058E+02  0.98730815328E+01  0.35973666580E+02  0.53255071418E+02  0.47000000000E+01 0. -1.
        -11    1    6    6    0    0 -0.14432995986E+02  0.94228370740E+01  0.49887197247E+00  0.17243842521E+02  0.00000000000E+00 0.  1.
         12    1    6    6    0    0 -0.32890248921E+02 -0.12245956325E+03 -0.31154593323E+02  0.13057075397E+03  0.00000000000E+00 0. -1.
         -5    1    3    3    0  503  0.47406617593E+02  0.41481058823E+02  0.20432345840E+02  0.66390032303E+02  0.47000000000E+01 0.  1.
         11    1    4    4    0    0 -0.36458509199E+02  0.38591675888E+01 -0.80149244612E+01  0.37528057259E+02  0.00000000000E+00 0. -1.
        -12    1    4    4    0    0 -0.13399825454E+01  0.57823418235E+02 -0.99297592305E+02  0.11491455559E+03  0.00000000000E+00 0.  1.
</event>
<event>
12    1  0.8251070E-002  0.1944395E+03  0.7818608E-02  0.1155251E+00
         21   -1    0    0  503  502  0.00000000000E+00  0.00000000000E+00  0.77280471386E+02  0.77280471386E+02  0.00000000000E+00 0.  1.
         21   -1    0    0  501  503 -0.00000000000E+00 -0.00000000000E+00 -0.64590253572E+03  0.64590253572E+03  0.00000000000E+00 0.  1.
          6    2    1    2  501    0  0.86911394849E+02 -0.19751840606E+02 -0.46890001612E+03  0.50761594654E+03  0.17280913837E+03 0.  0.
         24    2    3    3    0    0 -0.25273734009E+00 -0.10818604667E+02 -0.35798526528E+03  0.36618907286E+03  0.76314355413E+02 0.  0.
         -6    2    1    2    0  502 -0.86911394849E+02  0.19751840606E+02 -0.99722048217E+02  0.21556706057E+03  0.16905899840E+03 0.  0.
        -24    2    5    5    0    0 -0.35795221586E+02 -0.41626514185E+02 -0.41179998074E+02  0.11642359260E+03  0.94045712824E+02 0.  0.
          5    1    3    3  501    0  0.87164132189E+02 -0.89332359387E+01 -0.11091475083E+03  0.14142687367E+03  0.47000000000E+01 0. -1.
        -11    1    4    4    0    0  0.24069597455E+02  0.23994700554E+02 -0.13636406694E+03  0.14053558243E+03  0.00000000000E+00 0.  1.
         12    1    4    4    0    0 -0.24322334795E+02 -0.34813305221E+02 -0.22162119835E+03  0.22565349044E+03  0.00000000000E+00 0. -1.
         -5    1    5    5    0  502 -0.51116173263E+02  0.61378354791E+02 -0.58542050143E+02  0.99143467968E+02  0.47000000000E+01 0.  1.
         13    1    6    6    0    0 -0.12002752255E+02 -0.20228261708E+02 -0.69698378628E+02  0.73560265204E+02  0.00000000000E+00 0. -1.
        -14    1    6    6    0    0 -0.23792469331E+02 -0.21398252477E+02  0.28518380554E+02  0.42863327395E+02  0.00000000000E+00 0.  1.
</event>
<event>
12    1  0.8251070E-002  0.1940730E+03  0.7818608E-02  0.1155640E+00
         21   -1    0    0  503  502  0.00000000000E+00  0.00000000000E+00  0.32550525093E+03  0.32550525093E+03  0.00000000000E+00 0. -1.
         21   -1    0    0  501  503 -0.00000000000E+00 -0.00000000000E+00 -0.11879542697E+03  0.11879542697E+03  0.00000000000E+00 0.  1.
          6    2    1    2  501    0  0.14603191346E+02  0.89310863819E+02  0.57666311121E+02  0.20245918812E+03  0.17168178652E+03 0.  0.
         24    2    3    3    0    0  0.76182130791E+02  0.34207040398E+02  0.61177880635E+01  0.10495156089E+03  0.63273723919E+02 0.  0.
         -6    2    1    2    0  502 -0.14603191346E+02 -0.89310863819E+02  0.14904351284E+03  0.24184148977E+03  0.16758178261E+03 0.  0.
        -24    2    5    5    0    0 -0.70369568511E+01 -0.14871861145E+02  0.14615888455E+03  0.16681600008E+03  0.78704938430E+02 0.  0.
          5    1    3    3  501    0 -0.61578939445E+02  0.55103823420E+02  0.51548523057E+02  0.97507627230E+02  0.47000000000E+01 0. -1.
        -11    1    4    4    0    0  0.32887134148E+02  0.45966822870E+02 -0.97690655111E+01  0.57358059923E+02  0.00000000000E+00 0.  1.
         12    1    4    4    0    0  0.43294996644E+02 -0.11759782472E+02  0.15886853575E+02  0.47593500971E+02  0.00000000000E+00 0. -1.
         -5    1    5    5    0  502 -0.75662344954E+01 -0.74439002673E+02  0.28846282857E+01  0.75025489694E+02  0.47000000000E+01 0.  1.
         11    1    6    6    0    0 -0.35009347304E+02 -0.32035248289E+02  0.91086768817E+02  0.10270691790E+03  0.00000000000E+00 0. -1.
        -12    1    6    6    0    0  0.27972390453E+02  0.17163387144E+02  0.55072115737E+02  0.64109082178E+02  0.00000000000E+00 0.  1.
</event>
<event>
12    1  0.8251070E-002  0.2577166E+03  0.7818608E-02  0.1108563E+00
         21   -1    0    0  503  502  0.00000000000E+00  0.00000000000E+00  0.84068902945E+03  0.84068902945E+03  0.00000000000E+00 0.  1.
         21   -1    0    0  501  503 -0.00000000000E+00 -0.00000000000E+00 -0.42242334489E+03  0.42242334489E+03  0.00000000000E+00 0. -1.
          6    2    1    2  501    0  0.15787561940E+03 -0.10839318944E+03 -0.36035688794E+03  0.44302925547E+03  0.17246460448E+03 0.  0.
         24    2    3    3    0    0  0.16126277320E+03 -0.47646757005E+02 -0.31926622684E+03  0.36946204610E+03  0.79343458712E+02 0.  0.
         -6    2    1    2    0  502 -0.15787561940E+03  0.10839318944E+03  0.77862257250E+03  0.82008311887E+03  0.17207387000E+03 0.  0.
        -24    2    5    5    0    0 -0.19700566362E+02  0.48780547458E+02  0.18865942820E+03  0.21121152814E+03  0.79058684826E+02 0.  0.
          5    1    3    3  501    0 -0.33871538017E+01 -0.60746432430E+02 -0.41090661105E+02  0.73567209366E+02  0.47000000000E+01 0. -1.
        -11    1    4    4    0    0 -0.73699144698E+01  0.14088768938E+00 -0.32892485530E+02  0.33708323793E+02  0.00000000000E+00 0.  1.
         12    1    4    4    0    0  0.16863268767E+03 -0.47787644695E+02 -0.28637374131E+03  0.33575372231E+03  0.00000000000E+00 0. -1.
         -5    1    5    5    0  502 -0.13817505303E+03  0.59612641977E+02  0.58996314431E+03  0.60887159073E+03  0.47000000000E+01 0.  1.
         11    1    6    6    0    0 -0.23940376349E+02  0.63920636062E+02  0.18154833640E+03  0.19395563355E+03  0.00000000000E+00 0. -1.
        -12    1    6    6    0    0  0.42398099869E+01 -0.15140088604E+02  0.71110917918E+01  0.17255894590E+02  0.00000000000E+00 0.  1.
</event>
<event>
12    1  0.8251070E-002  0.1877204E+03  0.7818608E-02  0.1161146E+00
         21   -1    0    0  503  502  0.00000000000E+00  0.00000000000E+00  0.94415053435E+02  0.94415053435E+02  0.00000000000E+00 0. -1.
         21   -1    0    0  501  503 -0.00000000000E+00 -0.00000000000E+00 -0.38415602276E+03  0.38415602276E+03  0.00000000000E+00 0. -1.
          6    2    1    2  501    0  0.73248622594E+02  0.62739052302E+01 -0.94781247510E+02  0.20792692999E+03  0.16983933802E+03 0.  0.
         24    2    3    3    0    0  0.25184318242E+02  0.57555491808E+02 -0.31718610809E+02  0.11338083212E+03  0.88894647188E+02 0.  0.
         -6    2    1    2    0  502 -0.73248622594E+02 -0.62739052302E+01 -0.19495972181E+03  0.27064414620E+03  0.17272590467E+03 0.  0.
        -24    2    5    5    0    0 -0.22922127442E+02  0.59992856310E+02 -0.12530785034E+03  0.16202778924E+03  0.80164707912E+02 0.  0.
          5    1    3    3  501    0  0.48064304351E+02 -0.51281586578E+02 -0.63062636701E+02  0.94546097870E+02  0.47000000000E+01 0. -1.
        -11    1    4    4    0    0 -0.16193795871E+02 -0.50220719533E+00 -0.38494950899E+02  0.41765446023E+02  0.00000000000E+00 0.  1.
         12    1    4    4    0    0  0.41378114114E+02  0.58057699004E+02  0.67763400904E+01  0.71615386100E+02  0.00000000000E+00 0. -1.
         -5    1    5    5    0  502 -0.50326495152E+02 -0.66266761540E+02 -0.69651871473E+02  0.10861635696E+03  0.47000000000E+01 0.  1.
         13    1    6    6    0    0 -0.31457102574E+02  0.41080659635E+02 -0.21272666074E+02  0.55943687940E+02  0.00000000000E+00 0. -1.
        -14    1    6    6    0    0  0.85349751319E+01  0.18912196674E+02 -0.10403518426E+03  0.10608410130E+03  0.00000000000E+00 0.  1.
</event>
<event>
12    1  0.8251070E-002  0.1840997E+03  0.7818608E-02  0.1164047E+00
         21   -1    0    0  501  502  0.00000000000E+00  0.00000000000E+00  0.14307334225E+04  0.14307334225E+04  0.00000000000E+00 0. -1.
         21   -1    0    0  502  503 -0.00000000000E+00 -0.00000000000E+00 -0.23678235598E+02  0.23678235598E+02  0.00000000000E+00 0. -1.
         -6    2    1    2    0  503 -0.60158119301E+02  0.19334664187E+02  0.66442118434E+03  0.68945500917E+03  0.17291579142E+03 0.  0.
        -24    2    3    3    0    0 -0.22099569656E+02 -0.35814777412E+02  0.18775420734E+03  0.20807842990E+03  0.79207962716E+02 0.  0.
          6    2    1    2  501    0  0.60158119301E+02 -0.19334664187E+02  0.74263400256E+03  0.76495664892E+03  0.17222248520E+03 0.  0.
         24    2    5    5    0    0 -0.20580474606E+02 -0.48016312168E+02  0.44446144087E+03  0.45468205437E+03  0.80378330273E+02 0.  0.
          5    1    5    5  501    0  0.80738593908E+02  0.28681647981E+02  0.29817256169E+03  0.31027459454E+03  0.47000000000E+01 0. -1.
        -11    1    6    6    0    0 -0.10701028357E+01 -0.25867904005E+02  0.31981565047E+02  0.41147467487E+02  0.00000000000E+00 0.  1.
         12    1    6    6    0    0 -0.19510371771E+02 -0.22148408163E+02  0.41247987582E+03  0.41353458689E+03  0.00000000000E+00 0. -1.
         -5    1    3    3    0  503 -0.38058549646E+02  0.55149441599E+02  0.47666697700E+03  0.48137657927E+03  0.47000000000E+01 0.  1.
         13    1    4    4    0    0 -0.24198200699E+02  0.14247798673E+02  0.24362588508E+02  0.37176449574E+02  0.00000000000E+00 0. -1.
        -14    1    4    4    0    0  0.20986310436E+01 -0.50062576085E+02  0.16339161883E+03  0.17090198033E+03  0.00000000000E+00 0.  1.
</event>
<event>
12    1  0.8251070E-002  0.1874946E+03  0.7818608E-02  0.1161407E+00
         21   -1    0    0  501  502  0.00000000000E+00  0.00000000000E+00  0.55322564224E+03  0.55322564224E+03  0.00000000000E+00 0.  1.
         21   -1    0    0  502  503 -0.00000000000E+00 -0.00000000000E+00 -0.39514811534E+03  0.39514811534E+03  0.00000000000E+00 0.  1.
         -6    2    1    2    0  503  0.63046949870E+01 -0.74551627722E+02 -0.35588826331E+03  0.40225697962E+03  0.17192011899E+03 0.  0.
        -24    2    3    3    0    0  0.51271897302E+02  0.51256505328E+01 -0.14875476615E+03  0.17576880421E+03  0.78176801769E+02 0.  0.
          6    2    1    2  501    0 -0.63046949870E+01  0.74551627722E+02  0.51396579021E+03  0.54611677796E+03  0.16877501974E+03 0.  0.
         24    2    5    5    0    0  0.62414117610E+02  0.45155546248E+02  0.28688380564E+03  0.30700441415E+03  0.77555444264E+02 0.  0.
          5    1    5    5  501    0 -0.68718812597E+02  0.29396081474E+02  0.22708198457E+03  0.23911236381E+03  0.47000000000E+01 0. -1.
        -13    1    6    6    0    0  0.50312919690E+02  0.66095511973E+02  0.24424956770E+03  0.25798809645E+03  0.00000000000E+00 0.  1.
         14    1    6    6    0    0  0.12101197920E+02 -0.20939965725E+02  0.42634237939E+02  0.49016317694E+02  0.00000000000E+00 0. -1.
         -5    1    3    3    0  503 -0.44967202315E+02 -0.79677278255E+02 -0.20713349716E+03  0.22648817541E+03  0.47000000000E+01 0.  1.
         13    1    4    4    0    0 -0.12225657791E+02 -0.20535246057E+02 -0.26868985601E+02  0.35959775114E+02  0.00000000000E+00 0. -1.
        -14    1    4    4    0    0  0.63497555093E+02  0.25660896590E+02 -0.12188578055E+03  0.13980902910E+03  0.00000000000E+00 0.  1.
</event>
<event>
12    1  0.8251070E-002  0.1944671E+03  0.7818608E-02  0.1154527E+00
         21   -1    0    0  503  502  0.00000000000E+00  0.00000000000E+00  0.36253854329E+02  0.36253854329E+02  0.00000000000E+00 0. -1.
         21   -1    0    0  501  503 -0.00000000000E+00 -0.00000000000E+00 -0.11462318260E+04  0.11462318260E+04  0.00000000000E+00 0. -1.
          6    2    1    2  501    0 -0.90439356143E+02  0.13690625671E+02 -0.73321886909E+03  0.75856927623E+03  0.17161213968E+03 0.  0.
         24    2    3    3    0    0 -0.34485955637E+02 -0.51560081158E+02 -0.49855902857E+03  0.50861774388E+03  0.79266520825E+02 0.  0.
         -6    2    1    2    0  502  0.90439356143E+02 -0.13690625671E+02 -0.37675910257E+03  0.42391640408E+03  0.17143799436E+03 0.  0.
        -24    2    5    5    0    0  0.88619792691E+02 -0.69003126987E+02 -0.25299459079E+03  0.28826048645E+03  0.80454620053E+02 0.  0.
          5    1    3    3  501    0 -0.55953400506E+02  0.65250706829E+02 -0.23465984052E+03  0.24995153235E+03  0.47000000000E+01 0. -1.
        -13    1    4    4    0    0 -0.60730284028E+01 -0.12553670154E+02 -0.88063224132E+01  0.16493259919E+02  0.00000000000E+00 0.  1.
         14    1    4    4    0    0 -0.28412927234E+02 -0.39006411004E+02 -0.48975270615E+03  0.49212448396E+03  0.00000000000E+00 0. -1.
         -5    1    5    5    0  502  0.18195634521E+01  0.55312501317E+02 -0.12376451178E+03  0.13565591763E+03  0.47000000000E+01 0.  1.
         11    1    6    6    0    0  0.83488744091E+02 -0.23605044447E+02 -0.12339676081E+03  0.15084538140E+03  0.00000000000E+00 0. -1.
        -12    1    6    6    0    0  0.51310486002E+01 -0.45398082540E+02 -0.12959782999E+03  0.13741510505E+03  0.00000000000E+00 0.  1.
</event>
<event>
12    1  0.8251070E-002  0.1953363E+03  0.7818608E-02  0.1154333E+00
         21   -1    0    0  503  502  0.00000000000E+00  0.00000000000E+00  0.13730936504E+03  0.13730936504E+03  0.00000000000E+00 0.  1.
         21   -1    0    0  501  503 -0.00000000000E+00 -0.00000000000E+00 -0.70253413929E+03  0.70253413929E+03  0.00000000000E+00 0. -1.
          6    2    1    2  501    0 -0.87318217953E+02  0.75890431350E+00 -0.60979229985E+03  0.63948750350E+03  0.17167577303E+03 0.  0.
         24    2    3    3    0    0 -0.12506557864E+02  0.12111886709E+01 -0.11440515258E+03  0.13846105237E+03  0.76974301677E+02 0.  0.
         -6    2    1    2    0  502  0.87318217953E+02 -0.75890431350E+00  0.44567525605E+02  0.20035600083E+03  0.17473183913E+03 0.  0.
        -24    2    5    5    0    0  0.10000486304E+03 -0.40884754511E+02 -0.43569609927E+01  0.13565105352E+03  0.81912693931E+02 0.  0.
          5    1    3    3  501    0 -0.74811660089E+02 -0.45228435736E+00 -0.49538714727E+03  0.50102645113E+03  0.47000000000E+01 0. -1.
        -11    1    4    4    0    0 -0.27657873449E+02  0.26457127989E+02 -0.28700731558E+02  0.47840041567E+02  0.00000000000E+00 0.  1.
         12    1    4    4    0    0  0.15151315585E+02 -0.25245939318E+02 -0.85704421025E+02  0.90621010805E+02  0.00000000000E+00 0. -1.
         -5    1    5    5    0  502 -0.12686645091E+02  0.40125850197E+02  0.48924486597E+02  0.64704947311E+02  0.47000000000E+01 0.  1.
         13    1    6    6    0    0  0.27774915381E+02 -0.54047514566E+02  0.76847999608E+01  0.61250599226E+02  0.00000000000E+00 0. -1.
        -14    1    6    6    0    0  0.72229947662E+02  0.13162760055E+02 -0.12041760953E+02  0.74400454289E+02  0.00000000000E+00 0.  1.
</event>
<event>
12    1  0.8251070E-002  0.2050088E+03  0.7818608E-02  0.1145596E+00
         21   -1    0    0  503  502  0.00000000000E+00  0.00000000000E+00  0.45060944406E+03  0.45060944406E+03  0.00000000000E+00 0.  1.
         21   -1    0    0  501  503 -0.00000000000E+00 -0.00000000000E+00 -0.61237704561E+03  0.61237704561E+03  0.00000000000E+00 0.  1.
          6    2    1    2  501    0 -0.61577210859E+01  0.11151984299E+03 -0.57024381187E+03  0.60595103293E+03  0.17182565707E+03 0.  0.
         24    2    3    3    0    0  0.30604894459E+02  0.10499862392E+03 -0.54299911221E+03  0.55949266599E+03  0.78883691828E+02 0.  0.
         -6    2    1    2    0  502  0.61577210859E+01 -0.11151984299E+03  0.40847621031E+03  0.45703545674E+03  0.17191277270E+03 0.  0.
        -24    2    5    5    0    0 -0.60839392242E+02 -0.72863247762E+02  0.20305143308E+03  0.23748050997E+03  0.78464154990E+02 0.  0.
          5    1    3    3  501    0 -0.36762615545E+02  0.65212190668E+01 -0.27244699652E+02  0.46458366943E+02  0.47000000000E+01 0. -1.
        -11    1    4    4    0    0 -0.79308423023E+01  0.62688490779E+02 -0.15642580989E+03  0.16870619175E+03  0.00000000000E+00 0.  1.
         12    1    4    4    0    0  0.38535736762E+02  0.42310133145E+02 -0.38657330232E+03  0.39078647423E+03  0.00000000000E+00 0. -1.
         -5    1    5    5    0  502  0.66997113327E+02 -0.38656595229E+02  0.20542477724E+03  0.21955494677E+03  0.47000000000E+01 0.  1.
         13    1    6    6    0    0 -0.61655680515E+02 -0.87633901888E+02  0.16592212151E+03  0.19751271885E+03  0.00000000000E+00 0. -1.
        -14    1    6    6    0    0  0.81628827337E+00  0.14770654126E+02  0.37129311561E+02  0.39967791118E+02  0.00000000000E+00 0.  1.
</event>
<event>
12    1  0.8251070E-002  0.2110232E+03  0.7818608E-02  0.1141127E+00
         21   -1    0    0  501  502  0.00000000000E+00  0.00000000000E+00  0.13195730376E+03  0.13195730376E+03  0.00000000000E+00 0.  1.
         21   -1    0    0  502  503 -0.00000000000E+00 -0.00000000000E+00 -0.38308687348E+03  0.38308687348E+03  0.00000000000E+00 0.  1.
         -6    2    1    2    0  503 -0.11798152133E+03 -0.19078765409E+02 -0.33358174826E+02  0.21180305495E+03  0.17165118000E+03 0.  0.
        -24    2    3    3    0    0 -0.14151995158E+03 -0.84463733037E+01  0.82528073206E+01  0.16260275723E+03  0.79197916083E+02 0.  0.
          6    2    1    2  501    0  0.11798152133E+03  0.19078765409E+02 -0.21777139489E+03  0.30324112229E+03  0.17391710424E+03 0.  0.
         24    2    5    5    0    0  0.53485097893E+02  0.76894889623E+02 -0.10613991937E+03  0.16186867384E+03  0.78500352470E+02 0.  0.
          5    1    5    5  501    0  0.64496423435E+02 -0.57816124214E+02 -0.11163147552E+03  0.14137244845E+03  0.47000000000E+01 0. -1.
        -13    1    6    6    0    0  0.28874492005E+02  0.35260342575E+00 -0.65922292820E+02  0.71969502627E+02  0.00000000000E+00 0.  1.
         14    1    6    6    0    0  0.24610605888E+02  0.76542286197E+02 -0.40217626554E+02  0.89899171209E+02  0.00000000000E+00 0. -1.
         -5    1    3    3    0  503  0.23538430254E+02 -0.10632392105E+02 -0.41610982147E+02  0.49200297722E+02  0.47000000000E+01 0.  1.
         13    1    4    4    0    0 -0.51111566070E+02  0.31052328279E+01  0.41163215698E+02  0.65699657408E+02  0.00000000000E+00 0. -1.
        -14    1    4    4    0    0 -0.90408385513E+02 -0.11551606132E+02 -0.32910408377E+02  0.96903099820E+02  0.00000000000E+00 0.  1.
</event>
<event>
12    1  0.8251070E-002  0.2878577E+03  0.7818608E-02  0.1091508E+00
         21   -1    0    0  503  502  0.00000000000E+00  0.00000000000E+00  0.38878780121E+03  0.38878780121E+03  0.00000000000E+00 0.  1.
         21   -1    0    0  501  503 -0.00000000000E+00 -0.00000000000E+00 -0.25453655757E+03  0.25453655757E+03  0.00000000000E+00 0.  1.
          6    2    1    2  501    0 -0.22465007609E+03  0.54441304190E+02 -0.62894374319E+02  0.29464857364E+03  0.17155339501E+03 0.  0.
         24    2    3    3    0    0 -0.20286755528E+03  0.29589682910E+02 -0.10618171739E+03  0.23998628899E+03  0.65483337388E+02 0.  0.
         -6    2    1    2    0  502  0.22465007609E+03 -0.54441304190E+02  0.19714561796E+03  0.34867578514E+03  0.17110492739E+03 0.  0.
        -24    2    5    5    0    0  0.22562577524E+03 -0.45623274853E+02  0.21719583835E+03  0.32625233831E+03  0.79234351092E+02 0.  0.
          5    1    3    3  501    0 -0.21782520806E+02  0.24851621280E+02  0.43287343070E+02  0.54662284648E+02  0.47000000000E+01 0. -1.
        -11    1    4    4    0    0 -0.51966645604E+01  0.10596578945E+02 -0.20615255091E+02  0.23754611139E+02  0.00000000000E+00 0.  1.
         12    1    4    4    0    0 -0.19767089072E+03  0.18993103965E+02 -0.85566462298E+02  0.21623167785E+03  0.00000000000E+00 0. -1.
         -5    1    5    5    0  502 -0.97569915557E+00 -0.88180293379E+01 -0.20050220391E+02  0.22423446835E+02  0.47000000000E+01 0.  1.
         13    1    6    6    0    0  0.75960338973E+01 -0.20198921290E+01  0.43223417512E+02  0.43932260545E+02  0.00000000000E+00 0. -1.
        -14    1    6    6    0    0  0.21802974134E+03 -0.43603382724E+02  0.17397242084E+03  0.28232007776E+03  0.00000000000E+00 0.  1.
</event>
<event>
12    1  0.8251070E-002  0.1990349E+03  0.7818608E-02  0.1151402E+00
         21   -1    0    0  501  502  0.00000000000E+00  0.00000000000E+00  0.23213594207E+03  0.23213594207E+03  0.00000000000E+00 0.  1.
         21   -1    0    0  502  503 -0.00000000000E+00 -0.00000000000E+00 -0.29266986342E+03  0.29266986342E+03  0.00000000000E+00 0. -1.
         -6    2    1    2    0  503  0.28565224894E+02  0.85671482700E+02 -0.20183918903E+03  0.28071137872E+03  0.17292843864E+03 0.  0.
        -24    2    3    3    0    0 -0.47715593354E+02  0.26468913012E+02 -0.11901278384E+03  0.15340854730E+03  0.79954727576E+02 0.  0.
          6    2    1    2  501    0 -0.28565224894E+02 -0.85671482700E+02  0.14130526768E+03  0.24409442678E+03  0.17736779721E+03 0.  0.
         24    2    5    5    0    0 -0.49259013346E+02 -0.12250591876E+03  0.96670958952E+02  0.18245580190E+03  0.80688876660E+02 0.  0.
          5    1    5    5  501    0  0.20693788452E+02  0.36834436059E+02  0.44634308733E+02  0.61638624874E+02  0.47000000000E+01 0. -1.
        -11    1    6    6    0    0 -0.60962525040E+01 -0.49922326133E+02  0.82798706406E+02  0.96876357919E+02  0.00000000000E+00 0.  1.
         12    1    6    6    0    0 -0.43162760842E+02 -0.72583592626E+02  0.13872252546E+02  0.85579443984E+02  0.00000000000E+00 0. -1.
         -5    1    3    3    0  503  0.76280818248E+02  0.59202569688E+02 -0.82826405184E+02  0.12730283141E+03  0.47000000000E+01 0.  1.
         11    1    4    4    0    0  0.14099338751E+02  0.10088532728E+02  0.10591973887E+01  0.17369275889E+02  0.00000000000E+00 0. -1.
        -12    1    4    4    0    0 -0.61814932105E+02  0.16380380284E+02 -0.12007198123E+03  0.13603927141E+03  0.00000000000E+00 0.  1.
</event>
<event>
12    1  0.8251070E-002  0.2401023E+03  0.7818608E-02  0.1120013E+00
         21   -1    0    0  501  502  0.00000000000E+00  0.00000000000E+00  0.15205254905E+04  0.15205254905E+04  0.00000000000E+00 0.  1.
         21   -1    0    0  502  503 -0.00000000000E+00 -0.00000000000E+00 -0.38470938745E+02  0.38470938745E+02  0.00000000000E+00 0. -1.
         -6    2    1    2    0  503  0.12709973602E+03  0.10558996470E+03  0.85285101128E+03  0.88553802806E+03  0.17181143198E+03 0.  0.
        -24    2    3    3    0    0  0.14192505463E+03  0.37420452518E+02  0.56588226508E+03  0.59017380586E+03  0.80866382304E+02 0.  0.
          6    2    1    2  501    0 -0.12709973602E+03 -0.10558996470E+03  0.62920354052E+03  0.67345840123E+03  0.17419971080E+03 0.  0.
         24    2    5    5    0    0 -0.73097995187E+02  0.48322577403E+01  0.20200805876E+03  0.22890545178E+03  0.78890952831E+02 0.  0.
          5    1    5    5  501    0 -0.54001740837E+02 -0.11042222244E+03  0.42719548176E+03  0.44455294945E+03  0.47000000000E+01 0. -1.
        -11    1    6    6    0    0 -0.49203526875E+02 -0.13880971330E+02  0.18916171993E+03  0.19594852566E+03  0.00000000000E+00 0.  1.
         12    1    6    6    0    0 -0.23894468312E+02  0.18713229071E+02  0.12846338826E+02  0.32956926122E+02  0.00000000000E+00 0. -1.
         -5    1    3    3    0  503 -0.14825318610E+02  0.68169512181E+02  0.28696874619E+03  0.29536422220E+03  0.47000000000E+01 0.  1.
         11    1    4    4    0    0  0.18554252233E+02 -0.50746200465E+01  0.15995040820E+02  0.25017061685E+02  0.00000000000E+00 0. -1.
        -12    1    4    4    0    0  0.12337080240E+03  0.42495072564E+02  0.54988722426E+03  0.56515674417E+03  0.00000000000E+00 0.  1.
</event>
<event>
12    1  0.8251070E-002  0.2018048E+03  0.7818608E-02  0.1148644E+00
         21   -1    0    0  503  502  0.00000000000E+00  0.00000000000E+00  0.94396507315E+02  0.94396507315E+02  0.00000000000E+00 0. -1.
         21   -1    0    0  501  503 -0.00000000000E+00 -0.00000000000E+00 -0.55463001211E+03  0.55463001211E+03  0.00000000000E+00 0. -1.
          6    2    1    2  501    0 -0.10015027029E+03  0.75115817589E+01 -0.38656857219E+03  0.43607389786E+03  0.17503908962E+03 0.  0.
         24    2    3    3    0    0  0.18159412471E+02  0.48600592603E+01 -0.12240045755E+03  0.14657243949E+03  0.78410608803E+02 0.  0.
         -6    2    1    2    0  502  0.10015027029E+03 -0.75115817589E+01 -0.73664932611E+02  0.21295262157E+03  0.17273041491E+03 0.  0.
        -24    2    5    5    0    0  0.11379140074E+03 -0.41045189379E+02 -0.92366789714E+02  0.17193515286E+03  0.79980513213E+02 0.  0.
          5    1    3    3  501    0 -0.11830968276E+03  0.26515224986E+01 -0.26416811464E+03  0.28950145837E+03  0.47000000000E+01 0. -1.
        -11    1    4    4    0    0  0.25339421367E+02  0.24943270098E+02 -0.17693568330E+02  0.39715429730E+02  0.00000000000E+00 0.  1.
         12    1    4    4    0    0 -0.71800088962E+01 -0.20083210837E+02 -0.10470688922E+03  0.10685700976E+03  0.00000000000E+00 0. -1.
         -5    1    5    5    0  502 -0.13641130446E+02  0.33533607620E+02  0.18701857103E+02  0.41017468705E+02  0.47000000000E+01 0.  1.
         11    1    6    6    0    0  0.67266208575E+02  0.18041226045E+02 -0.48558779031E+02  0.84901022811E+02  0.00000000000E+00 0. -1.
        -12    1    6    6    0    0  0.46525192164E+02 -0.59086415424E+02 -0.43808010683E+02  0.87034130050E+02  0.00000000000E+00 0.  1.
</event>
<event>
12    1  0.8251070E-002  0.1810301E+03  0.7818608E-02  0.1166835E+00
         21   -1    0    0  503  502  0.00000000000E+00  0.00000000000E+00  0.10602614136E+03  0.10602614136E+03  0.00000000000E+00 0.  1.
         21   -1    0    0  501  503 -0.00000000000E+00 -0.00000000000E+00 -0.81097572692E+03  0.81097572692E+03  0.00000000000E+00 0.  1.
          6    2    1    2  501    0 -0.19548048146E+02 -0.51608533457E+02 -0.71319318163E+03  0.73578412898E+03  0.17230265009E+03 0.  0.
         24    2    3    3    0    0  0.29889804292E+02  0.11888203777E+02 -0.23645104951E+03  0.25227499005E+03  0.81846453805E+02 0.  0.
         -6    2    1    2    0  502  0.19548048146E+02  0.51608533457E+02  0.82435960719E+01  0.18121773930E+03  0.17241329777E+03 0.  0.
        -24    2    5    5    0    0  0.63727403077E+02 -0.18734642481E+01  0.32647973791E+02  0.10753054141E+03  0.80201218026E+02 0.  0.
          5    1    3    3  501    0 -0.49437852439E+02 -0.63496737233E+02 -0.47674213212E+03  0.48350913893E+03  0.47000000000E+01 0. -1.
        -11    1    4    4    0    0  0.25797077254E+02  0.42320044060E+02 -0.19169336238E+03  0.19799702146E+03  0.00000000000E+00 0.  1.
         12    1    4    4    0    0  0.40927270382E+01 -0.30431840283E+02 -0.44757687129E+02  0.54277968595E+02  0.00000000000E+00 0. -1.
         -5    1    5    5    0  502 -0.44179354931E+02  0.53481997705E+02 -0.24404377719E+02  0.73687197887E+02  0.47000000000E+01 0.  1.
         13    1    6    6    0    0  0.39398400956E+02  0.38631884639E+02  0.18791685690E+02  0.58290513463E+02  0.00000000000E+00 0. -1.
        -14    1    6    6    0    0  0.24329002121E+02 -0.40505348887E+02  0.13856288101E+02  0.49240027951E+02  0.00000000000E+00 0.  1.
</event>
<event>
12    1  0.8251070E-002  0.1759059E+03  0.7818608E-02  0.1172466E+00
         21   -1    0    0  501  502  0.00000000000E+00  0.00000000000E+00  0.16088028388E+03  0.16088028388E+03  0.00000000000E+00 0. -1.
         21   -1    0    0  502  503 -0.00000000000E+00 -0.00000000000E+00 -0.20446604246E+03  0.20446604246E+03  0.00000000000E+00 0. -1.
         -6    2    1    2    0  503 -0.17977604109E+02 -0.11835220653E+02  0.27679172417E+02  0.17555285818E+03  0.17201570490E+03 0.  0.
        -24    2    3    3    0    0 -0.16015939218E+02 -0.24603612010E+02  0.82313465782E+02  0.11921569497E+03  0.81086541701E+02 0.  0.
          6    2    1    2  501    0  0.17977604109E+02  0.11835220653E+02 -0.71264931003E+02  0.18979346816E+03  0.17458408710E+03 0.  0.
         24    2    5    5    0    0 -0.20036479041E+02  0.20904235605E+02 -0.10686084909E+03  0.13672297792E+03  0.80221468852E+02 0.  0.
          5    1    5    5  501    0  0.38014083150E+02 -0.90690149516E+01  0.35595918088E+02  0.53070490241E+02  0.47000000000E+01 0. -1.
        -11    1    6    6    0    0  0.43791174986E+01 -0.16794280667E+02  0.33816478907E+01  0.17682196573E+02  0.00000000000E+00 0.  1.
         12    1    6    6    0    0 -0.24415596539E+02  0.37698516272E+02 -0.11024249698E+03  0.11904078135E+03  0.00000000000E+00 0. -1.
         -5    1    3    3    0  503 -0.19616648906E+01  0.12768391357E+02 -0.54634293365E+02  0.56337163209E+02  0.47000000000E+01 0.  1.
         11    1    4    4    0    0 -0.18277369564E+02  0.15152693999E+02  0.75078863667E+02  0.78743267287E+02  0.00000000000E+00 0. -1.
        -12    1    4    4    0    0  0.22614303454E+01 -0.39756306009E+02  0.72346021151E+01  0.40472427682E+02  0.00000000000E+00 0.  1.
</event>
<event>
12    1  0.8251070E-002  0.2437347E+03  0.7818608E-02  0.1117607E+00
         21   -1    0    0  501  502  0.00000000000E+00  0.00000000000E+00  0.34671328562E+02  0.34671328562E+02  0.00000000000E+00 0.  1.
         21   -1    0    0  502  503 -0.00000000000E+00 -0.00000000000E+00 -0.17161711005E+04  0.17161711005E+04  0.00000000000E+00 0. -1.
         -6    2    1    2    0  503 -0.97204440670E+02  0.14031431975E+03 -0.75695692991E+03  0.79471165631E+03  0.17159840128E+03 0.  0.
        -24    2    3    3    0    0 -0.74071833226E+02  0.22780061667E+02 -0.48541470387E+03  0.49788394555E+03  0.79091218343E+02 0.  0.
          6    2    1    2  501    0  0.97204440670E+02 -0.14031431975E+03 -0.92454284203E+03  0.95613077275E+03  0.17398211472E+03 0.  0.
         24    2    5    5    0    0  0.27418018450E+02 -0.46555330845E+02 -0.19859629005E+03  0.22082037635E+03  0.80012534170E+02 0.  0.
          5    1    5    5  501    0  0.69786422220E+02 -0.93758988908E+02 -0.72594655198E+03  0.73531039640E+03  0.47000000000E+01 0. -1.
        -11    1    6    6    0    0  0.49552240690E+01 -0.65837926714E+02 -0.12233303468E+03  0.13901279874E+03  0.00000000000E+00 0.  1.
         12    1    6    6    0    0  0.22462794381E+02  0.19282595869E+02 -0.76263255370E+02  0.81807577611E+02  0.00000000000E+00 0. -1.
         -5    1    3    3    0  503 -0.23132607444E+02  0.11753425809E+03 -0.27154222605E+03  0.29682771076E+03  0.47000000000E+01 0.  1.
         13    1    4    4    0    0 -0.65727942951E+02 -0.17264050415E+02 -0.25685425340E+03  0.26569214782E+03  0.00000000000E+00 0. -1.
        -14    1    4    4    0    0 -0.83438902750E+01  0.40044112082E+02 -0.22856045047E+03  0.23219179773E+03  0.00000000000E+00 0.  1.
</event>
<event>
12    1  0.8251070E-002  0.1860813E+03  0.7818608E-02  0.1163300E+00
         21   -1    0    0  501  502  0.00000000000E+00  0.00000000000E+00  0.31678870698E+03  0.31678870698E+03  0.00000000000E+00 0.  1.
         21   -1    0    0  502  503 -0.00000000000E+00 -0.00000000000E+00 -0.11956469101E+03  0.11956469101E+03  0.00000000000E+00 0.  1.
         -6    2    1    2    0  503 -0.70666895629E+02  0.11174318147E+02  0.26926734277E+02  0.18801945078E+03  0.17177773234E+03 0.  0.
        -24    2    3    3    0    0 -0.18244855174E+02  0.36712198404E+02 -0.40792161915E+02  0.98530945626E+02  0.79772717895E+02 0.  0.
          6    2    1    2  501    0  0.70666895629E+02 -0.11174318147E+02  0.17029728170E+03  0.24833394721E+03  0.16598165460E+03 0.  0.
         24    2    5    5    0    0  0.11132069367E+03 -0.13096438342E+02  0.11568992924E+03  0.18006624780E+03  0.80472854641E+02 0.  0.
          5    1    5    5  501    0 -0.40653798037E+02  0.19221201947E+01  0.54607352459E+02  0.68267699415E+02  0.47000000000E+01 0. -1.
        -13    1    6    6    0    0  0.32678333325E+02 -0.26995573581E+02  0.84112274306E+02  0.94188689081E+02  0.00000000000E+00 0.  1.
         14    1    6    6    0    0  0.78642360342E+02  0.13899135239E+02  0.31577654932E+02  0.85877558719E+02  0.00000000000E+00 0. -1.
         -5    1    3    3    0  503 -0.52422040455E+02 -0.25537880257E+02  0.67718896191E+02  0.89488505155E+02  0.47000000000E+01 0.  1.
         13    1    4    4    0    0  0.24988855622E+02 -0.87022584936E+01 -0.17080089049E+02  0.31494470151E+02  0.00000000000E+00 0. -1.
        -14    1    4    4    0    0 -0.43233710796E+02  0.45414456898E+02 -0.23712072866E+02  0.67036475475E+02  0.00000000000E+00 0.  1.
</event>
<event>
12    1  0.8251070E-002  0.2646672E+03  0.7818608E-02  0.1104444E+00
         21   -1    0    0  501  502  0.00000000000E+00  0.00000000000E+00  0.38275821704E+03  0.38275821704E+03  0.00000000000E+00 0.  1.
         21   -1    0    0  502  503 -0.00000000000E+00 -0.00000000000E+00 -0.18808168765E+03  0.18808168765E+03  0.00000000000E+00 0. -1.
         -6    2    1    2    0  503 -0.17517922657E+03  0.95949746639E+02  0.14585643531E+03  0.30219664288E+03  0.17365078735E+03 0.  0.
        -24    2    3    3    0    0 -0.81433393953E+02  0.64980448696E+02  0.61030328001E+01  0.13102280708E+03  0.79220405222E+02 0.  0.
          6    2    1    2  501    0  0.17517922657E+03 -0.95949746639E+02  0.48820094077E+02  0.26864326181E+03  0.17289212020E+03 0.  0.
         24    2    5    5    0    0  0.34366709091E+02 -0.76768361652E+02  0.44960209974E+02  0.12640023275E+03  0.82952675152E+02 0.  0.
          5    1    5    5  501    0  0.14081251748E+03 -0.19181384988E+02  0.38598841024E+01  0.14224302905E+03  0.47000000000E+01 0. -1.
        -11    1    6    6    0    0 -0.27615859679E+02 -0.20163563058E+02  0.12953053090E+02  0.36564826888E+02  0.00000000000E+00 0.  1.
         12    1    6    6    0    0  0.61982568770E+02 -0.56604798594E+02  0.32007156884E+02  0.89835405865E+02  0.00000000000E+00 0. -1.
         -5    1    3    3    0  503 -0.93745832616E+02  0.30969297943E+02  0.13975340251E+03  0.17117383580E+03  0.47000000000E+01 0.  1.
         13    1    4    4    0    0 -0.50229859589E+02  0.13326317211E+02  0.36448492299E+02  0.63475366211E+02  0.00000000000E+00 0. -1.
        -14    1    4    4    0    0 -0.31203534364E+02  0.51654131485E+02 -0.30345459499E+02  0.67547440873E+02  0.00000000000E+00 0.  1.
</event>
<event>
12    1  0.8251070E-002  0.2732433E+03  0.7818608E-02  0.1099573E+00
         21   -1    0    0  501  502  0.00000000000E+00  0.00000000000E+00  0.26132334725E+04  0.26132334725E+04  0.00000000000E+00 0.  1.
         21   -1    0    0  502  503 -0.00000000000E+00 -0.00000000000E+00 -0.72385034754E+02  0.72385034754E+02  0.00000000000E+00 0.  1.
         -6    2    1    2    0  503 -0.19999827482E+03 -0.66577741589E+02  0.22363477822E+03  0.35235019273E+03  0.17235497871E+03 0.  0.
        -24    2    3    3    0    0 -0.14104851274E+03 -0.86638470869E+02  0.10087426453E+03  0.21461950977E+03  0.92114109389E+02 0.  0.
          6    2    1    2  501    0  0.19999827482E+03  0.66577741589E+02  0.23172136595E+04  0.23332683145E+04  0.17386770270E+03 0.  0.
         24    2    5    5    0    0  0.19951830236E+03  0.95893451121E+01  0.17462409618E+04  0.17594392291E+04  0.79808494341E+02 0.  0.
          5    1    5    5  501    0  0.47997245706E+00  0.56988396477E+02  0.57097269772E+03  0.57382908539E+03  0.47000000000E+01 0. -1.
        -13    1    6    6    0    0  0.33685372819E+02  0.32589952761E+02  0.44887083485E+03  0.45131124043E+03  0.00000000000E+00 0.  1.
         14    1    6    6    0    0  0.16583292954E+03 -0.23000607649E+02  0.12973701269E+04  0.13081279886E+04  0.00000000000E+00 0. -1.
         -5    1    3    3    0  503 -0.58949762074E+02  0.20060729280E+02  0.12276051369E+03  0.13773068296E+03  0.47000000000E+01 0.  1.
         13    1    4    4    0    0 -0.32251885206E+02 -0.69803705282E+01  0.68368833017E+02  0.75915788873E+02  0.00000000000E+00 0. -1.
        -14    1    4    4    0    0 -0.10879662754E+03 -0.79658100341E+02  0.32505431512E+02  0.13870372090E+03  0.00000000000E+00 0.  1.
</event>
<event>
12    1  0.8251070E-002  0.1802853E+03  0.7818608E-02  0.1167576E+00
         21   -1    0    0  501  502  0.00000000000E+00  0.00000000000E+00  0.21217745007E+03  0.21217745007E+03  0.00000000000E+00 0. -1.
         21   -1    0    0  502  503 -0.00000000000E+00 -0.00000000000E+00 -0.15834743562E+03  0.15834743562E+03  0.00000000000E+00 0. -1.
         -6    2    1    2    0  503 -0.34223036372E+02  0.43945538105E+02 -0.70903332045E+01  0.18022493067E+03  0.17125514962E+03 0.  0.
        -24    2    3    3    0    0  0.28272852606E+02  0.54087808902E+02  0.32072630642E+02  0.10562982672E+03  0.80026004459E+02 0.  0.
          6    2    1    2  501    0  0.34223036372E+02 -0.43945538105E+02  0.60920347653E+02  0.19029995503E+03  0.17146532474E+03 0.  0.
         24    2    5    5    0    0 -0.26658228598E+02  0.16918973962E+02  0.58544533152E+02  0.10405175651E+03  0.80014953845E+02 0.  0.
          5    1    5    5  501    0  0.60881264971E+02 -0.60864512067E+02  0.23758145013E+01  0.86248198521E+02  0.47000000000E+01 0. -1.
        -11    1    6    6    0    0  0.10600755779E+02  0.40295778677E+02  0.33286094800E+02  0.53330009463E+02  0.00000000000E+00 0.  1.
         12    1    6    6    0    0 -0.37258984377E+02 -0.23376804716E+02  0.25258438352E+02  0.50721747047E+02  0.00000000000E+00 0. -1.
         -5    1    3    3    0  503 -0.62495888978E+02 -0.10142270797E+02 -0.39162963846E+02  0.74595103950E+02  0.47000000000E+01 0.  1.
         13    1    4    4    0    0  0.25701355940E+02  0.74663951227E+02  0.31110704589E+02  0.84871321717E+02  0.00000000000E+00 0. -1.
        -14    1    4    4    0    0  0.25714966657E+01 -0.20576142325E+02  0.96192605300E+00  0.20758505000E+02  0.00000000000E+00 0.  1.
</event>
<event>
12    1  0.8251070E-002  0.2200081E+03  0.7818608E-02  0.1133934E+00
         21   -1    0    0  503  502  0.00000000000E+00  0.00000000000E+00  0.16562833486E+03  0.16562833486E+03  0.00000000000E+00 0.  1.
         21   -1    0    0  501  503 -0.00000000000E+00 -0.00000000000E+00 -0.47068076710E+03  0.47068076710E+03  0.00000000000E+00 0. -1.
          6    2    1    2  501    0  0.13524019270E+03  0.24230935824E+02 -0.34870981559E+03  0.41231309654E+03  0.17183278533E+03 0.  0.
         24    2    3    3    0    0  0.16084298643E+03  0.20362681942E+02 -0.33860151802E+03  0.38412206757E+03  0.81324471650E+02 0.  0.
         -6    2    1    2    0  502 -0.13524019270E+03 -0.24230935824E+02  0.43657383350E+02  0.22399600542E+03  0.17143860519E+03 0.  0.
        -24    2    5    5    0    0 -0.41987670151E+02  0.40435177362E-01 -0.38209217520E+02  0.97467894902E+02  0.79228026312E+02 0.  0.
          5    1    3    3  501    0 -0.25602793724E+02  0.38682538820E+01 -0.10108297567E+02  0.28191028968E+02  0.47000000000E+01 0. -1.
        -13    1    4    4    0    0 -0.88532375223E+01  0.43264125382E+01 -0.29985964247E+02  0.31563518687E+02  0.00000000000E+00 0.  1.
         14    1    4    4    0    0  0.16969622395E+03  0.16036269404E+02 -0.30861555378E+03  0.35255854888E+03  0.00000000000E+00 0. -1.
         -5    1    5    5    0  502 -0.93252522552E+02 -0.24271371001E+02  0.81866600871E+02  0.12652811052E+03  0.47000000000E+01 0.  1.
         13    1    6    6    0    0 -0.15433602816E+02  0.30969079160E+02  0.83401540622E+01  0.35592669606E+02  0.00000000000E+00 0. -1.
        -14    1    6    6    0    0 -0.26554067335E+02 -0.30928643983E+02 -0.46549371582E+02  0.61875225296E+02  0.00000000000E+00 0.  1.
</event>
<event>
12    1  0.8251070E-002  0.2728263E+03  0.7818608E-02  0.1099694E+00
         21   -1    0    0  501  502  0.00000000000E+00  0.00000000000E+00  0.81558989351E+03  0.81558989351E+03  0.00000000000E+00 0. -1.
         21   -1    0    0  502  503 -0.00000000000E+00 -0.00000000000E+00 -0.14376960370E+03  0.14376960370E+03  0.00000000000E+00 0. -1.
         -6    2    1    2    0  503 -0.20529694901E+03 -0.47487774234E+02  0.45947583871E+02  0.27666838692E+03  0.17329826855E+03 0.  0.
        -24    2    3    3    0    0 -0.15820891960E+03  0.13790556267E+02 -0.16450964726E+02  0.17723003833E+03  0.76939005479E+02 0.  0.
          6    2    1    2  501    0  0.20529694901E+03  0.47487774234E+02  0.62587270594E+03  0.68269111028E+03  0.17305658624E+03 0.  0.
         24    2    5    5    0    0  0.83453241757E+02  0.12459145060E+02  0.14657925967E+03  0.18689156258E+03  0.79519198590E+02 0.  0.
          5    1    5    5  501    0  0.12184370726E+03  0.35028629174E+02  0.47929344628E+03  0.49579954770E+03  0.47000000000E+01 0. -1.
        -11    1    6    6    0    0  0.98541290723E+02  0.10300604032E+02  0.11477570896E+03  0.15162437729E+03  0.00000000000E+00 0.  1.
         12    1    6    6    0    0 -0.15088048966E+02  0.21585410283E+01  0.31803550707E+02  0.35267185294E+02  0.00000000000E+00 0. -1.
         -5    1    3    3    0  503 -0.47088029418E+02 -0.61278330501E+02  0.62398548597E+02  0.99438348591E+02  0.47000000000E+01 0.  1.
         11    1    4    4    0    0 -0.14534972747E+03 -0.11509992329E+02 -0.30310678627E+01  0.14583624574E+03  0.00000000000E+00 0. -1.
        -12    1    4    4    0    0 -0.12859192128E+02  0.25300548597E+02 -0.13419896863E+02  0.31393792592E+02  0.00000000000E+00 0.  1.
</event>
<event>
12    1  0.8251070E-002  0.2386437E+03  0.7818608E-02  0.1120800E+00
         21   -1    0    0  503  502  0.00000000000E+00  0.00000000000E+00  0.20824157749E+03  0.20824157749E+03  0.00000000000E+00 0.  1.
         21   -1    0    0  501  503 -0.00000000000E+00 -0.00000000000E+00 -0.34235680353E+03  0.34235680353E+03  0.00000000000E+00 0.  1.
          6    2    1    2  501    0  0.82130158928E+02  0.14315134383E+03 -0.19107998385E+03  0.30525007009E+03  0.17154700467E+03 0.  0.
         24    2    3    3    0    0  0.22696085298E+02  0.15678225034E+03 -0.12541715819E+03  0.21551764900E+03  0.74984045974E+02 0.  0.
         -6    2    1    2    0  502 -0.82130158928E+02 -0.14315134383E+03  0.56964757818E+02  0.24534831094E+03  0.17237499761E+03 0.  0.
        -24    2    5    5    0    0 -0.35526931069E+01 -0.69099284567E+02  0.82709178212E+02  0.13424929745E+03  0.79967074161E+02 0.  0.
          5    1    3    3  501    0  0.59434073630E+02 -0.13630906512E+02 -0.65662825661E+02  0.89732421088E+02  0.47000000000E+01 0. -1.
        -13    1    4    4    0    0  0.20618885349E+01  0.95492131230E+02 -0.11584387290E+03  0.15014260354E+03  0.00000000000E+00 0.  1.
         14    1    4    4    0    0  0.20634196763E+02  0.61290119111E+02 -0.95732852945E+01  0.65375045453E+02  0.00000000000E+00 0. -1.
         -5    1    5    5    0  502 -0.78577465821E+02 -0.74052059262E+02 -0.25744420394E+02  0.11109901348E+03  0.47000000000E+01 0.  1.
         13    1    6    6    0    0  0.24610282404E+02 -0.31384963758E+02  0.93296542441E+00  0.39894264933E+02  0.00000000000E+00 0. -1.
        -14    1    6    6    0    0 -0.28162975511E+02 -0.37714320809E+02  0.81776212788E+02  0.94355032519E+02  0.00000000000E+00 0.  1.
</event>
<event>
12    1  0.8251070E-002  0.2966257E+03  0.7818608E-02  0.1087472E+00
         21   -1    0    0  501  502  0.00000000000E+00  0.00000000000E+00  0.81298014250E+03  0.81298014250E+03  0.00000000000E+00 0.  1.
         21   -1    0    0  502  503 -0.00000000000E+00 -0.00000000000E+00 -0.27556982045E+03  0.27556982045E+03  0.00000000000E+00 0.  1.
         -6    2    1    2    0  503 -0.58428830538E+02  0.22945873620E+03 -0.15807602796E+03  0.33244941043E+03  0.17166636252E+03 0.  0.
        -24    2    3    3    0    0 -0.64909258046E+02  0.22493268427E+03 -0.18197434937E+03  0.30684275401E+03  0.78929637196E+02 0.  0.
          6    2    1    2  501    0  0.58428830538E+02 -0.22945873620E+03  0.69548635001E+03  0.75610055253E+03  0.17866600860E+03 0.  0.
         24    2    5    5    0    0  0.80758679032E+02 -0.18096360762E+03  0.37717440920E+03  0.43330807850E+03  0.78902245928E+02 0.  0.
          5    1    5    5  501    0 -0.22329848494E+02 -0.48495128578E+02  0.31831194081E+03  0.32279247403E+03  0.47000000000E+01 0. -1.
        -11    1    6    6    0    0  0.61575940691E+02 -0.14082298606E+03  0.34710365112E+03  0.37960987144E+03  0.00000000000E+00 0.  1.
         12    1    6    6    0    0  0.19182738341E+02 -0.40140621558E+02  0.30070758081E+02  0.53698207055E+02  0.00000000000E+00 0. -1.
         -5    1    3    3    0  503  0.64804275086E+01  0.45260519284E+01  0.23898321405E+02  0.25606656414E+02  0.47000000000E+01 0.  1.
         11    1    4    4    0    0 -0.42814416635E+00  0.58560313824E+02 -0.10737719491E+02  0.59538158205E+02  0.00000000000E+00 0. -1.
        -12    1    4    4    0    0 -0.64481113880E+02  0.16637237045E+03 -0.17123662988E+03  0.24730459581E+03  0.00000000000E+00 0.  1.
</event>
<event>
12    1  0.8251070E-002  0.1724055E+03  0.7818608E-02  0.1175471E+00
         21   -1    0    0  503  502  0.00000000000E+00  0.00000000000E+00  0.22240162610E+03  0.22240162610E+03  0.00000000000E+00 0. -1.
         21   -1    0    0  501  503 -0.00000000000E+00 -0.00000000000E+00 -0.29603939308E+03  0.29603939308E+03  0.00000000000E+00 0. -1.
          6    2    1    2  501    0 -0.53966944829E+01 -0.80213169355E+00 -0.22902195345E+03  0.28666132729E+03  0.17231916223E+03 0.  0.
         24    2    3    3    0    0 -0.34668953880E+02 -0.49085415615E+02 -0.82402827308E+02  0.12947545379E+03  0.79764357927E+02 0.  0.
         -6    2    1    2    0  502  0.53966944829E+01  0.80213169355E+00  0.15538418647E+03  0.23177969189E+03  0.17189477143E+03 0.  0.
        -24    2    5    5    0    0  0.53562262256E+01 -0.30202388731E+02  0.17476878025E+03  0.19491325187E+03  0.80660868825E+02 0.  0.
          5    1    3    3  501    0  0.29272259397E+02  0.48283283921E+02 -0.14661912615E+03  0.15718587350E+03  0.47000000000E+01 0. -1.
        -13    1    4    4    0    0 -0.53482967326E+01  0.50781857814E+01 -0.65078081680E+02  0.65494648360E+02  0.00000000000E+00 0.  1.
         14    1    4    4    0    0 -0.29320657147E+02 -0.54163601396E+02 -0.17324745628E+02  0.63980805425E+02  0.00000000000E+00 0. -1.
         -5    1    5    5    0  502  0.40468257317E-01  0.31004520425E+02 -0.19384593778E+02  0.36866440029E+02  0.47000000000E+01 0.  1.
         11    1    6    6    0    0 -0.26140378915E+02  0.14725251727E+02  0.79513183784E+02  0.84985286043E+02  0.00000000000E+00 0. -1.
        -12    1    6    6    0    0  0.31496605141E+02 -0.44927640458E+02  0.95255596463E+02  0.10992796582E+03  0.00000000000E+00 0.  1.
</event>
<event>
12    1  0.8251070E-002  0.2469591E+03  0.7818608E-02  0.1115656E+00
         21   -1    0    0  503  502  0.00000000000E+00  0.00000000000E+00  0.33501414736E+03  0.33501414736E+03  0.00000000000E+00 0. -1.
         21   -1    0    0  501  503 -0.00000000000E+00 -0.00000000000E+00 -0.19151704087E+03  0.19151704087E+03  0.00000000000E+00 0.  1.
          6    2    1    2  501    0 -0.13255793849E+03 -0.11565251469E+03  0.72974575940E+01  0.24450438571E+03  0.16965267618E+03 0.  0.
         24    2    3    3    0    0 -0.11383727437E+03 -0.13725076672E+03 -0.29522812128E+02  0.19765601308E+03  0.79997531644E+02 0.  0.
         -6    2    1    2    0  502  0.13255793849E+03  0.11565251469E+03  0.13619964890E+03  0.28202680252E+03  0.17332530620E+03 0.  0.
        -24    2    5    5    0    0  0.12468169758E+03  0.51344164828E+02  0.14554794186E+03  0.21639845792E+03  0.86384838014E+02 0.  0.
          5    1    3    3  501    0 -0.18720664116E+02  0.21598252032E+02  0.36820269721E+02  0.46848372631E+02  0.47000000000E+01 0. -1.
        -13    1    4    4    0    0 -0.18013561104E+02  0.12041819905E+01  0.15018621860E+02  0.23483982637E+02  0.00000000000E+00 0.  1.
         14    1    4    4    0    0 -0.95823713267E+02 -0.13845494871E+03 -0.44541433988E+02  0.17417203045E+03  0.00000000000E+00 0. -1.
         -5    1    5    5    0  502  0.78762409093E+01  0.64308349864E+02 -0.93482929609E+01  0.65628344595E+02  0.47000000000E+01 0.  1.
         11    1    6    6    0    0  0.12418730060E+02  0.26271446244E+02  0.77454133338E+02  0.82725791113E+02  0.00000000000E+00 0. -1.
        -12    1    6    6    0    0  0.11226296752E+03  0.25072718584E+02  0.68093808524E+02  0.13367266681E+03  0.00000000000E+00 0.  1.
</event>
<event>
12    1  0.8251070E-002  0.1842490E+03  0.7818608E-02  0.1163813E+00
         21   -1    0    0  503  502  0.00000000000E+00  0.00000000000E+00  0.11844484953E+03  0.11844484953E+03  0.00000000000E+00 0.  1.
         21   -1    0    0  501  503 -0.00000000000E+00 -0.00000000000E+00 -0.15100710249E+04  0.15100710249E+04  0.00000000000E+00 0.  1.
          6    2    1    2  501    0  0.42508700762E+02  0.49543540816E+02 -0.14287630516E+04  0.14405615147E+04  0.17202345143E+03 0.  0.
         24    2    3    3    0    0  0.76281359828E+02 -0.31706884117E+01 -0.66508685679E+03  0.67430907390E+03  0.80766954528E+02 0.  0.
         -6    2    1    2    0  502 -0.42508700762E+02 -0.49543540816E+02  0.37136876178E+02  0.18795435981E+03  0.17229666777E+03 0.  0.
        -24    2    5    5    0    0 -0.48230409622E+02 -0.87758221711E+02  0.61613036780E+02  0.14197314380E+03  0.79577191264E+02 0.  0.
          5    1    3    3  501    0 -0.33772659065E+02  0.52714229227E+02 -0.76367619481E+03  0.76625244077E+03  0.47000000000E+01 0. -1.
        -11    1    4    4    0    0  0.21017868335E+02 -0.10829099801E+01 -0.49521015007E+03  0.49565715592E+03  0.00000000000E+00 0.  1.
         12    1    4    4    0    0  0.55263491492E+02 -0.20877784316E+01 -0.16987670672E+03  0.17865191798E+03  0.00000000000E+00 0. -1.
         -5    1    5    5    0  502  0.57217088597E+01  0.38214680895E+02 -0.24476160602E+02  0.45981216013E+02  0.47000000000E+01 0.  1.
         13    1    6    6    0    0 -0.41131646273E+02 -0.54339621816E+02 -0.37134210629E+01  0.68252445526E+02  0.00000000000E+00 0. -1.
        -14    1    6    6    0    0 -0.70987633494E+01 -0.33418599895E+02  0.65326457843E+02  0.73720698276E+02  0.00000000000E+00 0.  1.
</event>
<event>
12    1  0.8251070E-002  0.1836256E+03  0.7818608E-02  0.1165254E+00
         21   -1    0    0  501  502  0.00000000000E+00  0.00000000000E+00  0.10651152782E+04  0.10651152782E+04  0.00000000000E+00 0.  1.
         21   -1    0    0  502  503 -0.00000000000E+00 -0.00000000000E+00 -0.33561746626E+02  0.33561746626E+02  0.00000000000E+00 0.  1.
         -6    2    1    2    0  503  0.25116954090E+02  0.62411091709E+02  0.35897777493E+03  0.40148514380E+03  0.16673113699E+03 0.  0.
        -24    2    3    3    0    0 -0.26384623080E+02  0.84382039615E+02  0.28298907593E+03  0.30697849123E+03  0.79602135887E+02 0.  0.
          6    2    1    2  501    0 -0.25116954090E+02 -0.62411091709E+02  0.67257575667E+03  0.69719188106E+03  0.17085773264E+03 0.  0.
         24    2    5    5    0    0  0.46309124590E+02 -0.13762561865E+02  0.41228644674E+03  0.42289098963E+03  0.80763431212E+02 0.  0.
          5    1    5    5  501    0 -0.71426078680E+02 -0.48648529844E+02  0.26028930994E+03  0.27430089143E+03  0.47000000000E+01 0. -1.
        -11    1    6    6    0    0  0.26668118860E+01  0.20147656168E+02  0.27712601464E+02  0.34366091058E+02  0.00000000000E+00 0.  1.
         12    1    6    6    0    0  0.43642312704E+02 -0.33910218033E+02  0.38457384527E+03  0.38852489857E+03  0.00000000000E+00 0. -1.
         -5    1    3    3    0  503  0.51501577170E+02 -0.21970947907E+02  0.75988699003E+02  0.94506652565E+02  0.47000000000E+01 0.  1.
         11    1    4    4    0    0  0.18070529963E+02  0.40760982101E+02  0.55902741417E+02  0.71506071161E+02  0.00000000000E+00 0. -1.
        -12    1    4    4    0    0 -0.44455153043E+02  0.43621057515E+02  0.22708633451E+03  0.23547242007E+03  0.00000000000E+00 0.  1.
</event>
<event>
12    1  0.8251070E-002  0.1971616E+03  0.7818608E-02  0.1153148E+00
         21   -1    0    0  501  502  0.00000000000E+00  0.00000000000E+00  0.79602653772E+02  0.79602653772E+02  0.00000000000E+00 0.  1.
         21   -1    0    0  502  503 -0.00000000000E+00 -0.00000000000E+00 -0.71026096493E+03  0.71026096493E+03  0.00000000000E+00 0.  1.
         -6    2    1    2    0  503 -0.31698141648E+02 -0.83239048047E+02 -0.54406571818E+03  0.57868834341E+03  0.17589537172E+03 0.  0.
        -24    2    3    3    0    0  0.20072447769E+02 -0.55522594654E+01 -0.38781214437E+03  0.39660951329E+03  0.80418380773E+02 0.  0.
          6    2    1    2  501    0  0.31698141648E+02  0.83239048047E+02 -0.86592592984E+02  0.21117527530E+03  0.17077238780E+03 0.  0.
         24    2    5    5    0    0  0.81125573007E+02  0.80231611962E+02 -0.79867326922E+02  0.16098130309E+03  0.80732396729E+02 0.  0.
          5    1    5    5  501    0 -0.49427431360E+02  0.30074360852E+01 -0.67252660620E+01  0.50193972210E+02  0.47000000000E+01 0. -1.
        -13    1    6    6    0    0  0.80745787461E+02  0.74996215936E+02 -0.34736537061E+02  0.11554627473E+03  0.00000000000E+00 0.  1.
         14    1    6    6    0    0  0.37978554637E+00  0.52353960268E+01 -0.45130789861E+02  0.45435028360E+02  0.00000000000E+00 0. -1.
         -5    1    3    3    0  503 -0.51770589417E+02 -0.77686788582E+02 -0.15625357381E+03  0.18207883012E+03  0.47000000000E+01 0.  1.
         11    1    4    4    0    0  0.52620105626E+01  0.30662359447E+02 -0.72690566040E+02  0.79068245416E+02  0.00000000000E+00 0. -1.
        -12    1    4    4    0    0  0.14810437206E+02 -0.36214618912E+02 -0.31512157833E+03  0.31754126787E+03  0.00000000000E+00 0.  1.
</event>
<event>
12    1  0.8251070E-002  0.1867806E+03  0.7818608E-02  0.1161696E+00
         21   -1    0    0  501  502  0.00000000000E+00  0.00000000000E+00  0.13126890851E+03  0.13126890851E+03  0.00000000000E+00 0. -1.
         21   -1    0    0  502  503 -0.00000000000E+00 -0.00000000000E+00 -0.49576150755E+03  0.49576150755E+03  0.00000000000E+00 0. -1.
         -6    2    1    2    0  503  0.70819747556E+02 -0.18288364039E+02 -0.39696978872E+03  0.43871630585E+03  0.17186355913E+03 0.  0.
        -24    2    3    3    0    0  0.26018710778E+02  0.49398379500E+02 -0.27775844819E+03  0.29441778937E+03  0.80093107985E+02 0.  0.
          6    2    1    2  501    0 -0.70819747556E+02  0.18288364039E+02  0.32477189680E+02  0.18831411021E+03  0.17046270956E+03 0.  0.
         24    2    5    5    0    0 -0.42123090643E+02  0.55139379977E+02 -0.30849744242E+02  0.10948590426E+03  0.78871734621E+02 0.  0.
          5    1    5    5  501    0 -0.28696656914E+02 -0.36851015938E+02  0.63326933921E+02  0.78828205952E+02  0.47000000000E+01 0. -1.
        -11    1    6    6    0    0  0.16689759834E+02  0.35620259183E+02  0.19280657581E+01  0.39383605537E+02  0.00000000000E+00 0.  1.
         12    1    6    6    0    0 -0.58812850476E+02  0.19519120795E+02 -0.32777810000E+02  0.70102298722E+02  0.00000000000E+00 0. -1.
         -5    1    3    3    0  503  0.44801036778E+02 -0.67686743539E+02 -0.11921134053E+03  0.14429851648E+03  0.47000000000E+01 0.  1.
         11    1    4    4    0    0  0.44283444353E+02  0.40581189811E+02 -0.26182355610E+03  0.26862507504E+03  0.00000000000E+00 0. -1.
        -12    1    4    4    0    0 -0.18264733575E+02  0.88171896892E+01 -0.15934892093E+02  0.25792714331E+02  0.00000000000E+00 0.  1.
</event>
<event>
12    1  0.8251070E-002  0.2515031E+03  0.7818608E-02  0.1113679E+00
         21   -1    0    0  503  502  0.00000000000E+00  0.00000000000E+00  0.28388097203E+03  0.28388097203E+03  0.00000000000E+00 0.  1.
         21   -1    0    0  501  503 -0.00000000000E+00 -0.00000000000E+00 -0.21615777801E+03  0.21615777801E+03  0.00000000000E+00 0. -1.
          6    2    1    2  501    0 -0.16817166976E+03  0.38588094411E+02  0.21175421373E+02  0.25239299201E+03  0.18298380368E+03 0.  0.
         24    2    3    3    0    0 -0.18424353689E+03  0.48431258009E+02  0.54080313221E+02  0.21418285343E+03  0.81598693530E+02 0.  0.
         -6    2    1    2    0  502  0.16817166976E+03 -0.38588094411E+02  0.46547772651E+02  0.24764575802E+03  0.17143796193E+03 0.  0.
        -24    2    5    5    0    0  0.15943299628E+03 -0.40274237547E+01 -0.12097722060E+02  0.17885485441E+03  0.80047508522E+02 0.  0.
          5    1    3    3  501    0  0.16071867138E+02 -0.98431635975E+01 -0.32904891848E+02  0.38210138582E+02  0.47000000000E+01 0. -1.
        -13    1    4    4    0    0 -0.82764968043E+02  0.63669308508E+02  0.22510504361E+02  0.10682014598E+03  0.00000000000E+00 0.  1.
         14    1    4    4    0    0 -0.10147856885E+03 -0.15238050499E+02  0.31569808860E+02  0.10736270745E+03  0.00000000000E+00 0. -1.
         -5    1    5    5    0  502  0.87386734734E+01 -0.34560670657E+02  0.58645494711E+02  0.68790903615E+02  0.47000000000E+01 0.  1.
         11    1    6    6    0    0  0.79413676275E+02  0.33863867666E+01 -0.45771859943E+02  0.91722749400E+02  0.00000000000E+00 0. -1.
        -12    1    6    6    0    0  0.80019320007E+02 -0.74138105213E+01  0.33674137883E+02  0.87132105008E+02  0.00000000000E+00 0.  1.
</event>
<event>
12    1  0.8251070E-002  0.2006768E+03  0.7818608E-02  0.1149492E+00
         21   -1    0    0  501  502  0.00000000000E+00  0.00000000000E+00  0.68154725927E+03  0.68154725927E+03  0.00000000000E+00 0.  1.
         21   -1    0    0  502  503 -0.00000000000E+00 -0.00000000000E+00 -0.71282892237E+02  0.71282892237E+02  0.00000000000E+00 0. -1.
         -6    2    1    2    0  503  0.10460867937E+03  0.17811447114E+01  0.46270480710E+03  0.50374181098E+03  0.16945183781E+03 0.  0.
        -24    2    3    3    0    0  0.58931308115E+02  0.65393290402E+02  0.20826547694E+03  0.23748180637E+03  0.72621745800E+02 0.  0.
          6    2    1    2  501    0 -0.10460867937E+03 -0.17811447114E+01  0.14755955993E+03  0.24908834052E+03  0.17124552369E+03 0.  0.
         24    2    5    5    0    0 -0.31622993162E+02  0.28204958080E+02  0.11993854627E+02  0.92160882107E+02  0.80958274964E+02 0.  0.
          5    1    5    5  501    0 -0.72985686209E+02 -0.29986102791E+02  0.13556570530E+03  0.15692745842E+03  0.47000000000E+01 0. -1.
        -11    1    6    6    0    0 -0.42131583189E+01  0.31407897986E+02  0.41201294077E+02  0.51978393516E+02  0.00000000000E+00 0.  1.
         12    1    6    6    0    0 -0.27409834843E+02 -0.32029399060E+01 -0.29207439450E+02  0.40182488591E+02  0.00000000000E+00 0. -1.
         -5    1    3    3    0  503  0.45677371255E+02 -0.63612145690E+02  0.25443933016E+03  0.26626000461E+03  0.47000000000E+01 0.  1.
         11    1    4    4    0    0  0.15936979013E+02 -0.13105308159E+02  0.18686091172E+02  0.27837140753E+02  0.00000000000E+00 0. -1.
        -12    1    4    4    0    0  0.42994329102E+02  0.78498598561E+02  0.18957938577E+03  0.20964466561E+03  0.00000000000E+00 0.  1.
</event>
<event>
12    1  0.8251070E-002  0.1926871E+03  0.7818608E-02  0.1157423E+00
         21   -1    0    0  501  502  0.00000000000E+00  0.00000000000E+00  0.75545368160E+03  0.75545368160E+03  0.00000000000E+00 0. -1.
         21   -1    0    0  502  503 -0.00000000000E+00 -0.00000000000E+00 -0.58109617782E+02  0.58109617782E+02  0.00000000000E+00 0. -1.
         -6    2    1    2    0  503  0.46901310649E+02  0.69798454184E+02  0.18038123018E+03  0.26394265495E+03  0.17336891231E+03 0.  0.
        -24    2    3    3    0    0  0.13043216630E+02 -0.23767586826E+02  0.76412624907E+02  0.11995468517E+03  0.88403696560E+02 0.  0.
          6    2    1    2  501    0 -0.46901310649E+02 -0.69798454184E+02  0.51696283364E+03  0.54962064442E+03  0.16661549828E+03 0.  0.
         24    2    5    5    0    0 -0.39082968798E+02 -0.10625695379E+03  0.46721608280E+03  0.48727340807E+03  0.79539219914E+02 0.  0.
          5    1    5    5  501    0 -0.78183418503E+01  0.36458499602E+02  0.49746750837E+02  0.62347236357E+02  0.47000000000E+01 0. -1.
        -11    1    6    6    0    0 -0.40757695847E+01 -0.35917855275E+02  0.44569386699E+02  0.57385838462E+02  0.00000000000E+00 0.  1.
         12    1    6    6    0    0 -0.35007199214E+02 -0.70339098511E+02  0.42264669610E+03  0.42988756960E+03  0.00000000000E+00 0. -1.
         -5    1    3    3    0  503  0.33858094019E+02  0.93566041009E+02  0.10396860527E+03  0.14398796978E+03  0.47000000000E+01 0.  1.
         11    1    4    4    0    0 -0.43675851085E+01  0.29279076171E+02  0.61915999837E+01  0.30243611085E+02  0.00000000000E+00 0. -1.
        -12    1    4    4    0    0  0.17410801739E+02 -0.53046662997E+02  0.70221024924E+02  0.89711074085E+02  0.00000000000E+00 0.  1.
</event>
<event>
12    1  0.8251070E-002  0.1943243E+03  0.7818608E-02  0.1155869E+00
         21   -1    0    0  503  502  0.00000000000E+00  0.00000000000E+00  0.40106874008E+03  0.40106874008E+03  0.00000000000E+00 0.  1.
         21   -1    0    0  501  503 -0.00000000000E+00 -0.00000000000E+00 -0.12973854459E+03  0.12973854459E+03  0.00000000000E+00 0. -1.
          6    2    1    2  501    0 -0.85374874065E+02  0.29450206692E+02 -0.71054240675E+01  0.19445412237E+03  0.17206317113E+03 0.  0.
         24    2    3    3    0    0 -0.51077952942E+02  0.74026690619E+00  0.62631285672E+02  0.11147317199E+03  0.76772943514E+02 0.  0.
         -6    2    1    2    0  502  0.85374874065E+02 -0.29450206692E+02  0.27843561956E+03  0.33635316231E+03  0.16568304607E+03 0.  0.
        -24    2    5    5    0    0  0.40865713313E+02 -0.20451211384E+02  0.53894039550E+02  0.10721770354E+03  0.80640001750E+02 0.  0.
          5    1    3    3  501    0 -0.34296921123E+02  0.28709939786E+02 -0.69736709740E+02  0.82980950382E+02  0.47000000000E+01 0. -1.
        -11    1    4    4    0    0 -0.44236612612E+02  0.29387367803E+02  0.62504569408E+02  0.82020219938E+02  0.00000000000E+00 0.  1.
         12    1    4    4    0    0 -0.68413403306E+01 -0.28647100897E+02  0.12671626409E+00  0.29452952048E+02  0.00000000000E+00 0. -1.
         -5    1    5    5    0  502  0.44509160752E+02 -0.89989953082E+01  0.22454158001E+03  0.22913545876E+03  0.47000000000E+01 0.  1.
         11    1    6    6    0    0  0.36465050995E+02 -0.46928236169E+02  0.54114975900E+02  0.80376550751E+02  0.00000000000E+00 0. -1.
        -12    1    6    6    0    0  0.44006623181E+01  0.26477024785E+02 -0.22093635000E+00  0.26841152791E+02  0.00000000000E+00 0.  1.
</event>
<event>
12    1  0.8251070E-002  0.1952873E+03  0.7818608E-02  0.1155739E+00
         21   -1    0    0  501  502  0.00000000000E+00  0.00000000000E+00  0.51505268412E+03  0.51505268412E+03  0.00000000000E+00 0. -1.
         21   -1    0    0  502  503 -0.00000000000E+00 -0.00000000000E+00 -0.76803127789E+02  0.76803127789E+02  0.00000000000E+00 0. -1.
         -6    2    1    2    0  503  0.54904852117E+02  0.71622748865E+02  0.14069783907E+03  0.24069275368E+03  0.17318417599E+03 0.  0.
        -24    2    3    3    0    0  0.77799492765E+02  0.54560970167E+02  0.54621970058E+02  0.14988298499E+03  0.10223350252E+03 0.  0.
          6    2    1    2  501    0 -0.54904852117E+02 -0.71622748865E+02  0.29755171725E+03  0.35116305822E+03  0.16319959583E+03 0.  0.
         24    2    5    5    0    0 -0.63788706316E+02 -0.97117475274E+02  0.29099236578E+03  0.32298471491E+03  0.78369420472E+02 0.  0.
          5    1    5    5  501    0  0.88838541992E+01  0.25494726409E+02  0.65593514686E+01  0.28178343312E+02  0.47000000000E+01 0. -1.
        -13    1    6    6    0    0  0.54003570581E+01 -0.16081868768E+02  0.12220880904E+03  0.12338064421E+03  0.00000000000E+00 0.  1.
         14    1    6    6    0    0 -0.69189063374E+02 -0.81035606506E+02  0.16878355674E+03  0.19960407070E+03  0.00000000000E+00 0. -1.
         -5    1    3    3    0  503 -0.22894640649E+02  0.17061778698E+02  0.86075869017E+02  0.90809768691E+02  0.47000000000E+01 0.  1.
         13    1    4    4    0    0  0.40083752910E+02  0.86535587015E+00  0.71638504548E+02  0.82094649168E+02  0.00000000000E+00 0. -1.
        -14    1    4    4    0    0  0.37715739855E+02  0.53695614297E+02 -0.17016534490E+02  0.67788335822E+02  0.00000000000E+00 0.  1.
</event>
<event>
12    1  0.8251070E-002  0.2288015E+03  0.7818608E-02  0.1127649E+00
         21   -1    0    0  503  502  0.00000000000E+00  0.00000000000E+00  0.58084677134E+03  0.58084677134E+03  0.00000000000E+00 0.  1.
         21   -1    0    0  501  503 -0.00000000000E+00 -0.00000000000E+00 -0.23322083045E+03  0.23322083045E+03  0.00000000000E+00 0.  1.
          6    2    1    2  501    0 -0.91238896203E+02 -0.12074441586E+03 -0.14555252969E+03  0.27039936914E+03  0.17037174001E+03 0.  0.
         24    2    3    3    0    0 -0.12733192996E+03 -0.72347467925E+02 -0.10110915126E+03  0.19528428716E+03  0.80407187753E+02 0.  0.
         -6    2    1    2    0  502  0.91238896203E+02  0.12074441586E+03  0.49317847059E+03  0.54366823264E+03  0.17159951397E+03 0.  0.
        -24    2    5    5    0    0  0.10657966275E+03  0.68262822696E+02  0.44910365324E+03  0.47328118651E+03  0.79258770377E+02 0.  0.
          5    1    3    3  501    0  0.36093033756E+02 -0.48396947930E+02 -0.44443378434E+02  0.75115081983E+02  0.47000000000E+01 0. -1.
        -13    1    4    4    0    0 -0.93445665029E+02 -0.12967729407E+02 -0.36311876228E+02  0.10108811342E+03  0.00000000000E+00 0.  1.
         14    1    4    4    0    0 -0.33886264930E+02 -0.59379738518E+02 -0.64797275028E+02  0.94196173746E+02  0.00000000000E+00 0. -1.
         -5    1    5    5    0  502 -0.15340766544E+02  0.52481593159E+02  0.44074817352E+02  0.70387046133E+02  0.47000000000E+01 0.  1.
         11    1    6    6    0    0  0.39249354301E+02  0.60263435463E+02  0.14683892075E+03  0.16350492993E+03  0.00000000000E+00 0. -1.
        -12    1    6    6    0    0  0.67330308446E+02  0.79993872324E+01  0.30226473249E+03  0.30977625658E+03  0.00000000000E+00 0.  1.
</event>
<event>
12    1  0.8251070E-002  0.1728691E+03  0.7818608E-02  0.1174973E+00
         21   -1    0    0  503  502  0.00000000000E+00  0.00000000000E+00  0.10367756772E+03  0.10367756772E+03  0.00000000000E+00 0. -1.
         21   -1    0    0  501  503 -0.00000000000E+00 -0.00000000000E+00 -0.52860647071E+03  0.52860647071E+03  0.00000000000E+00 0. -1.
          6    2    1    2  501    0  0.11472103506E+02  0.96349292860E+00 -0.42578211176E+03  0.45941284175E+03  0.17215462526E+03 0.  0.
         24    2    3    3    0    0  0.15215239527E+02  0.36599366908E+02 -0.11284588776E+03  0.14439681538E+03  0.80902587946E+02 0.  0.
         -6    2    1    2    0  502 -0.11472103506E+02 -0.96349292860E+00  0.85320876836E+00  0.17287119668E+03  0.17248531879E+03 0.  0.
        -24    2    5    5    0    0  0.59281591642E+01 -0.66078546668E+02  0.97905057213E+01  0.10471912671E+03  0.80428378668E+02 0.  0.
          5    1    3    3  501    0 -0.37431360218E+01 -0.35635873979E+02 -0.31293622400E+03  0.31501602637E+03  0.47000000000E+01 0. -1.
        -13    1    4    4    0    0 -0.72310827386E+01  0.28515629873E+02 -0.11659272872E+03  0.12024680493E+03  0.00000000000E+00 0.  1.
         14    1    4    4    0    0  0.22446322266E+02  0.80837370343E+01  0.37468409624E+01  0.24150010454E+02  0.00000000000E+00 0. -1.
         -5    1    5    5    0  502 -0.17400262670E+02  0.65115053740E+02 -0.89372969529E+01  0.68152069971E+02  0.47000000000E+01 0.  1.
         13    1    6    6    0    0 -0.10467196896E+02 -0.19748857463E+02  0.40861932961E+02  0.46575499431E+02  0.00000000000E+00 0. -1.
        -14    1    6    6    0    0  0.16395356060E+02 -0.46329689205E+02 -0.31071427239E+02  0.58143627276E+02  0.00000000000E+00 0.  1.
</event>
<event>
12    1  0.8251070E-002  0.1728807E+03  0.7818608E-02  0.1175107E+00
         21   -1    0    0  501  502  0.00000000000E+00  0.00000000000E+00  0.57381762088E+02  0.57381762088E+02  0.00000000000E+00 0.  1.
         21   -1    0    0  502  503 -0.00000000000E+00 -0.00000000000E+00 -0.60921381576E+03  0.60921381576E+03  0.00000000000E+00 0.  1.
         -6    2    1    2    0  503 -0.15426680462E+02  0.36479602392E+01 -0.14766493216E+03  0.22736021425E+03  0.17215238817E+03 0.  0.
        -24    2    3    3    0    0 -0.35736984656E+02 -0.56584741306E+02 -0.11694433787E+03  0.15660477838E+03  0.79812990371E+02 0.  0.
          6    2    1    2  501    0  0.15426680462E+02 -0.36479602392E+01 -0.40416712151E+03  0.43923536359E+03  0.17124646693E+03 0.  0.
         24    2    5    5    0    0 -0.36499870100E+02  0.43074450953E+02 -0.17946850568E+03  0.20388263190E+03  0.78559112869E+02 0.  0.
          5    1    5    5  501    0  0.51926550562E+02 -0.46722411192E+02 -0.22469861583E+03  0.23535273169E+03  0.47000000000E+01 0. -1.
        -11    1    6    6    0    0  0.83022594730E+01  0.47325484921E+02 -0.12032790697E+03  0.12956633140E+03  0.00000000000E+00 0.  1.
         12    1    6    6    0    0 -0.44802129573E+02 -0.42510339683E+01 -0.59140598713E+02  0.74316300502E+02  0.00000000000E+00 0. -1.
         -5    1    3    3    0  503  0.20310304194E+02  0.60232701546E+02 -0.30720594291E+02  0.70755435873E+02  0.47000000000E+01 0.  1.
         11    1    4    4    0    0 -0.95805169395E+01  0.16983252268E+02 -0.50165537444E+01  0.20134124612E+02  0.00000000000E+00 0. -1.
        -12    1    4    4    0    0 -0.26156467716E+02 -0.73567993574E+02 -0.11192778412E+03  0.13647065377E+03  0.00000000000E+00 0.  1.
</event>
<event>
12    1  0.8251070E-002  0.1747441E+03  0.7818608E-02  0.1173151E+00
         21   -1    0    0  503  502  0.00000000000E+00  0.00000000000E+00  0.13053210419E+04  0.13053210419E+04  0.00000000000E+00 0.  1.
         21   -1    0    0  501  503 -0.00000000000E+00 -0.00000000000E+00 -0.69931707741E+02  0.69931707741E+02  0.00000000000E+00 0.  1.
          6    2    1    2  501    0 -0.22390198895E+02  0.10685437582E+02  0.56609035208E+02  0.18368470065E+03  0.17297394834E+03 0.  0.
         24    2    3    3    0    0  0.33430896650E+02  0.34251305240E+02  0.74896719031E+02  0.12021916507E+03  0.80946601955E+02 0.  0.
         -6    2    1    2    0  502  0.22390198895E+02 -0.10685437582E+02  0.11787802990E+04  0.11915680490E+04  0.17232504925E+03 0.  0.
        -24    2    5    5    0    0 -0.46634070123E+02 -0.12705238403E+02  0.56505316337E+03  0.57395043569E+03  0.88305524274E+02 0.  0.
          5    1    3    3  501    0 -0.55821095545E+02 -0.23565867658E+02 -0.18287683823E+02  0.63465535576E+02  0.47000000000E+01 0. -1.
        -13    1    4    4    0    0  0.28248454105E+02  0.12913803599E+02  0.88904285332E+02  0.94173846864E+02  0.00000000000E+00 0.  1.
         14    1    4    4    0    0  0.51824425450E+01  0.21337501642E+02 -0.14007566301E+02  0.26045318211E+02  0.00000000000E+00 0. -1.
         -5    1    5    5    0  502  0.69024269018E+02  0.20198008210E+01  0.61372713561E+03  0.61761761333E+03  0.47000000000E+01 0.  1.
         13    1    6    6    0    0  0.18373596329E+02 -0.28100107963E+02  0.16903988220E+03  0.17234177347E+03  0.00000000000E+00 0. -1.
        -14    1    6    6    0    0 -0.65007666452E+02  0.15394869560E+02  0.39601328117E+03  0.40160866222E+03  0.00000000000E+00 0.  1.
</event>
<event>
12    1  0.8251070E-002  0.1761916E+03  0.7818608E-02  0.1171944E+00
         21   -1    0    0  501  502  0.00000000000E+00  0.00000000000E+00  0.50869480668E+03  0.50869480668E+03  0.00000000000E+00 0.  1.
         21   -1    0    0  502  503 -0.00000000000E+00 -0.00000000000E+00 -0.10210429976E+03  0.10210429976E+03  0.00000000000E+00 0.  1.
         -6    2    1    2    0  503 -0.81791575232E+01 -0.26851866285E+02  0.88295412625E+01  0.17641270352E+03  0.17394125395E+03 0.  0.
        -24    2    3    3    0    0 -0.25273495642E+02 -0.40015209555E+02  0.66147979106E+02  0.11498808860E+03  0.81281847923E+02 0.  0.
          6    2    1    2  501    0  0.81791575232E+01  0.26851866285E+02  0.39776096565E+03  0.43438640292E+03  0.17230739945E+03 0.  0.
         24    2    5    5    0    0  0.23696485495E+02  0.81035908470E+02  0.28862595146E+03  0.31146675755E+03  0.81106469023E+02 0.  0.
          5    1    5    5  501    0 -0.15517327971E+02 -0.54184042185E+02  0.10913501420E+03  0.12291964537E+03  0.47000000000E+01 0. -1.
        -11    1    6    6    0    0  0.27537176893E+02  0.62340885893E+02  0.95081914635E+02  0.11698398461E+03  0.00000000000E+00 0.  1.
         12    1    6    6    0    0 -0.38406913986E+01  0.18695022576E+02  0.19354403682E+03  0.19448277294E+03  0.00000000000E+00 0. -1.
         -5    1    3    3    0  503  0.17094338119E+02  0.13163343270E+02 -0.57318437844E+02  0.61424614925E+02  0.47000000000E+01 0.  1.
         11    1    4    4    0    0 -0.13208388420E+02  0.23947237550E+02  0.29757259981E+02  0.40415668156E+02  0.00000000000E+00 0. -1.
        -12    1    4    4    0    0 -0.12065107222E+02 -0.63962447106E+02  0.36390719125E+02  0.74572420441E+02  0.00000000000E+00 0.  1.
</event>
<event>
12    1  0.8251070E-002  0.2587584E+03  0.7818608E-02  0.1108002E+00
         21   -1    0    0  503  502  0.00000000000E+00  0.00000000000E+00  0.13740461456E+03  0.13740461456E+03  0.00000000000E+00 0. -1.
         21   -1    0    0  501  503 -0.00000000000E+00 -0.00000000000E+00 -0.50268891130E+03  0.50268891130E+03  0.00000000000E+00 0. -1.
          6    2    1    2  501    0 -0.19236914927E+03 -0.82448959675E+01 -0.24136247659E+03  0.35385272689E+03  0.17286422220E+03 0.  0.
         24    2    3    3    0    0 -0.13628936102E+03 -0.41687831294E+02 -0.23770346130E+03  0.28828710353E+03  0.79333809570E+02 0.  0.
         -6    2    1    2    0  502  0.19236914927E+03  0.82448959675E+01 -0.12392182015E+03  0.28624079898E+03  0.17176527469E+03 0.  0.
        -24    2    5    5    0    0  0.65855801566E+02  0.43506812529E+02 -0.13965641163E+02  0.11488887688E+03  0.82307870597E+02 0.  0.
          5    1    3    3  501    0 -0.56079788252E+02  0.33442935326E+02 -0.36590152925E+01  0.65565623359E+02  0.47000000000E+01 0. -1.
        -13    1    4    4    0    0 -0.67073412257E+02 -0.54462766258E+02 -0.90495810913E+02  0.12511805359E+03  0.00000000000E+00 0.  1.
         14    1    4    4    0    0 -0.69215948766E+02  0.12774934964E+02 -0.14720765039E+03  0.16316904994E+03  0.00000000000E+00 0. -1.
         -5    1    5    5    0  502  0.12651334771E+03 -0.35261916562E+02 -0.10995617898E+03  0.17135192209E+03  0.47000000000E+01 0.  1.
         13    1    6    6    0    0  0.74525550365E+02  0.56652104518E+02 -0.23450407310E+02  0.96506166677E+02  0.00000000000E+00 0. -1.
        -14    1    6    6    0    0 -0.86697487993E+01 -0.13145291989E+02  0.94847661467E+01  0.18382710208E+02  0.00000000000E+00 0.  1.
</event>
<event>
12    1  0.8251070E-002  0.4461703E+03  0.7818608E-02  0.1028949E+00
         21   -1    0    0  501  502  0.00000000000E+00  0.00000000000E+00  0.24941880120E+03  0.24941880120E+03  0.00000000000E+00 0. -1.
         21   -1    0    0  502  503 -0.00000000000E+00 -0.00000000000E+00 -0.10575283279E+04  0.10575283279E+04  0.00000000000E+00 0.  1.
         -6    2    1    2    0  503  0.39896957711E+03  0.98079623214E+02 -0.79601133442E+02  0.45321544186E+03  0.17398724190E+03 0.  0.
        -24    2    3    3    0    0  0.12484085350E+03 -0.54549387325E+01  0.36888462307E+01  0.14854303855E+03  0.80227374726E+02 0.  0.
          6    2    1    2  501    0 -0.39896957711E+03 -0.98079623214E+02 -0.72850839324E+03  0.85373168722E+03  0.17128040984E+03 0.  0.
         24    2    5    5    0    0 -0.18754306162E+03 -0.30558769496E+02 -0.46794157815E+03  0.51141985239E+03  0.80465560959E+02 0.  0.
          5    1    5    5  501    0 -0.21142651550E+03 -0.67520853718E+02 -0.26056681508E+03  0.34231183483E+03  0.47000000000E+01 0. -1.
        -11    1    6    6    0    0 -0.29812917098E+02 -0.49875964882E+00 -0.17348700204E+03  0.17603067535E+03  0.00000000000E+00 0.  1.
         12    1    6    6    0    0 -0.15773014452E+03 -0.30060009847E+02 -0.29445457611E+03  0.33538917704E+03  0.00000000000E+00 0. -1.
         -5    1    3    3    0  503  0.27412872362E+03  0.10353456195E+03 -0.83289979672E+02  0.30467240332E+03  0.47000000000E+01 0.  1.
         13    1    4    4    0    0  0.90538543715E+02  0.18260274527E+02  0.32437235921E+02  0.97891980254E+02  0.00000000000E+00 0. -1.
        -14    1    4    4    0    0  0.34302309784E+02 -0.23715213260E+02 -0.28748389690E+02  0.50651058293E+02  0.00000000000E+00 0.  1.
</event>
<event>
12    1  0.8251070E-002  0.1822851E+03  0.7818608E-02  0.1168388E+00
         21   -1    0    0  501  502  0.00000000000E+00  0.00000000000E+00  0.15654477884E+03  0.15654477884E+03  0.00000000000E+00 0. -1.
         21   -1    0    0  502  503 -0.00000000000E+00 -0.00000000000E+00 -0.26030777688E+03  0.26030777688E+03  0.00000000000E+00 0.  1.
         -6    2    1    2    0  503 -0.36653441705E+02  0.52463313618E+02 -0.15399258940E+03  0.23862434616E+03  0.17068095069E+03 0.  0.
        -24    2    3    3    0    0 -0.56339510566E+02  0.79658008083E+02 -0.16051386566E+03  0.20410319673E+03  0.79836552672E+02 0.  0.
          6    2    1    2  501    0  0.36653441705E+02 -0.52463313618E+02  0.50229591365E+02  0.17822820956E+03  0.15857619232E+03 0.  0.
         24    2    5    5    0    0  0.77880217528E+02 -0.11868047709E+02  0.26244555593E+02  0.11541901756E+03  0.80166040671E+02 0.  0.
          5    1    5    5  501    0 -0.41226775823E+02 -0.40595265909E+02  0.23985035772E+02  0.62809192002E+02  0.47000000000E+01 0. -1.
        -13    1    6    6    0    0  0.32918640527E+02  0.96424061893E+01 -0.26128533854E+02  0.43119753857E+02  0.00000000000E+00 0.  1.
         14    1    6    6    0    0  0.44961577001E+02 -0.21510453898E+02  0.52373089448E+02  0.72299263700E+02  0.00000000000E+00 0. -1.
         -5    1    3    3    0  503  0.19686068861E+02 -0.27194694465E+02  0.65212762634E+01  0.34521149435E+02  0.47000000000E+01 0.  1.
         11    1    4    4    0    0 -0.53662092071E+02  0.45502443555E+02 -0.44765471918E+02  0.83390886618E+02  0.00000000000E+00 0. -1.
        -12    1    4    4    0    0 -0.26774184952E+01  0.34155564527E+02 -0.11574839374E+03  0.12071231011E+03  0.00000000000E+00 0.  1.
</event>
<event>
12    1  0.8251070E-002  0.1741051E+03  0.7818608E-02  0.1174802E+00
         21   -1    0    0  501  502  0.00000000000E+00  0.00000000000E+00  0.19730658435E+03  0.19730658435E+03  0.00000000000E+00 0.  1.
         21   -1    0    0  502  503 -0.00000000000E+00 -0.00000000000E+00 -0.16687883519E+03  0.16687883519E+03  0.00000000000E+00 0.  1.
         -6    2    1    2    0  503 -0.21814387882E+02  0.16846107342E+01 -0.43137364352E+02  0.17936945688E+03  0.17272482284E+03 0.  0.
        -24    2    3    3    0    0  0.32661761870E+02  0.48018720812E+02 -0.25774240519E+02  0.10562619470E+03  0.84380052707E+02 0.  0.
          6    2    1    2  501    0  0.21814387882E+02 -0.16846107342E+01  0.73565113516E+02  0.18481596266E+03  0.16812616898E+03 0.  0.
         24    2    5    5    0    0  0.49895491513E+02  0.52074315834E+02  0.60255002811E+02  0.12254382111E+03  0.78644950790E+02 0.  0.
          5    1    5    5  501    0 -0.28081103632E+02 -0.53758926568E+02  0.13310110705E+02  0.62272141556E+02  0.47000000000E+01 0. -1.
        -11    1    6    6    0    0  0.45521445357E+02  0.27019754846E+02  0.76009055483E+02  0.92626376669E+02  0.00000000000E+00 0.  1.
         12    1    6    6    0    0  0.43740461564E+01  0.25054560988E+02 -0.15754052673E+02  0.29917444438E+02  0.00000000000E+00 0. -1.
         -5    1    3    3    0  503 -0.54476149752E+02 -0.46334110078E+02 -0.17363123833E+02  0.73743262185E+02  0.47000000000E+01 0.  1.
         13    1    4    4    0    0  0.16474983686E+02 -0.58486709163E+00  0.27281211883E+02  0.31875251823E+02  0.00000000000E+00 0. -1.
        -14    1    4    4    0    0  0.16186778184E+02  0.48603587903E+02 -0.53055452403E+02  0.73750942873E+02  0.00000000000E+00 0.  1.
</event>
<event>
12    1  0.8251070E-002  0.2763116E+03  0.7818608E-02  0.1097896E+00
         21   -1    0    0  503  502  0.00000000000E+00  0.00000000000E+00  0.52084377643E+03  0.52084377643E+03  0.00000000000E+00 0.  1.
         21   -1    0    0  501  503 -0.00000000000E+00 -0.00000000000E+00 -0.14738755879E+03  0.14738755879E+03  0.00000000000E+00 0. -1.
          6    2    1    2  501    0  0.19308856485E+03  0.96104323078E+02  0.15378091281E+03  0.31622247600E+03  0.17271030773E+03 0.  0.
         24    2    3    3    0    0  0.20145773056E+03  0.95618522119E+02  0.94112087720E+02  0.25578459364E+03  0.82707643602E+02 0.  0.
         -6    2    1    2    0  502 -0.19308856485E+03 -0.96104323078E+02  0.21967530484E+03  0.35200885922E+03  0.17068615241E+03 0.  0.
        -24    2    5    5    0    0 -0.49510257410E+02  0.10572911327E+02  0.10211712567E+03  0.13791360426E+03  0.77647941648E+02 0.  0.
          5    1    3    3  501    0 -0.83691657159E+01  0.48580095895E+00  0.59668825091E+02  0.60437882368E+02  0.47000000000E+01 0. -1.
        -11    1    4    4    0    0  0.27498069916E+02  0.13180155006E+02  0.49563080135E+02  0.58192432906E+02  0.00000000000E+00 0.  1.
         12    1    4    4    0    0  0.17395966065E+03  0.82438367113E+02  0.44549007585E+02  0.19759216073E+03  0.00000000000E+00 0. -1.
         -5    1    5    5    0  502 -0.14357830744E+03 -0.10667723441E+03  0.11755817916E+03  0.21409525496E+03  0.47000000000E+01 0.  1.
         11    1    6    6    0    0 -0.81992220874E+01  0.29684405486E+00 -0.12890573439E+02  0.15280125746E+02  0.00000000000E+00 0. -1.
        -12    1    6    6    0    0 -0.41311035322E+02  0.10276067273E+02  0.11500769911E+03  0.12263347852E+03  0.00000000000E+00 0.  1.
</event>
<event>
12    1  0.8251070E-002  0.1980216E+03  0.7818608E-02  0.1151917E+00
         21   -1    0    0  501  502  0.00000000000E+00  0.00000000000E+00  0.15288036415E+03  0.15288036415E+03  0.00000000000E+00 0. -1.
         21   -1    0    0  502  503 -0.00000000000E+00 -0.00000000000E+00 -0.32052979989E+03  0.32052979989E+03  0.00000000000E+00 0. -1.
         -6    2    1    2    0  503  0.62640846144E+02 -0.72252788394E+02 -0.19245616353E+03  0.27613748406E+03  0.17340182867E+03 0.  0.
        -24    2    3    3    0    0  0.83078648605E+02 -0.10526458567E+03 -0.16949195394E+03  0.23078412199E+03  0.80938826688E+02 0.  0.
          6    2    1    2  501    0 -0.62640846144E+02  0.72252788394E+02  0.24806727788E+02  0.19727267999E+03  0.17075361047E+03 0.  0.
         24    2    5    5    0    0 -0.10041326960E+03  0.60525642705E+02  0.49844910008E+02  0.15022714365E+03  0.79608426060E+02 0.  0.
          5    1    5    5  501    0  0.37772423458E+02  0.11727145689E+02 -0.25038182220E+02  0.47045536332E+02  0.47000000000E+01 0. -1.
        -11    1    6    6    0    0 -0.32292839943E+01  0.21259567840E+01 -0.17790107205E+02  0.18205380571E+02  0.00000000000E+00 0.  1.
         12    1    6    6    0    0 -0.97183985608E+02  0.58399685921E+02  0.67635017213E+02  0.13202176308E+03  0.00000000000E+00 0. -1.
         -5    1    3    3    0  503 -0.20437802460E+02  0.33011797274E+02 -0.22964209591E+02  0.45353362068E+02  0.47000000000E+01 0.  1.
         11    1    4    4    0    0  0.21407434870E+02 -0.57365438118E+02 -0.12906447361E+03  0.14285205671E+03  0.00000000000E+00 0. -1.
        -12    1    4    4    0    0  0.61671213734E+02 -0.47899147550E+02 -0.40427480326E+02  0.87932065283E+02  0.00000000000E+00 0.  1.
</event>
<event>
12    1  0.8251070E-002  0.1986410E+03  0.7818608E-02  0.1151933E+00
         21   -1    0    0  503  502  0.00000000000E+00  0.00000000000E+00  0.16394507731E+03  0.16394507731E+03  0.00000000000E+00 0.  1.
         21   -1    0    0  501  503 -0.00000000000E+00 -0.00000000000E+00 -0.24217441370E+03  0.24217441370E+03  0.00000000000E+00 0. -1.
          6    2    1    2  501    0 -0.39777503103E+01  0.10037484525E+03 -0.74874885730E+02  0.21228399137E+03  0.17136893657E+03 0.  0.
         24    2    3    3    0    0  0.18115358525E+02  0.49139428990E+02 -0.10998723394E+03  0.14619208313E+03  0.80821308096E+02 0.  0.
         -6    2    1    2    0  502  0.39777503103E+01 -0.10037484525E+03 -0.33544506663E+01  0.19383549965E+03  0.16574081129E+03 0.  0.
        -24    2    5    5    0    0 -0.55297385867E+02 -0.87126714363E+02  0.10286502119E+02  0.13140777877E+03  0.80705185433E+02 0.  0.
          5    1    3    3  501    0 -0.22093108836E+02  0.51235416265E+02  0.35112348213E+02  0.66091908240E+02  0.47000000000E+01 0. -1.
        -13    1    4    4    0    0 -0.14360732496E+02 -0.17220365896E+02 -0.25087819296E+02  0.33647738653E+02  0.00000000000E+00 0.  1.
         14    1    4    4    0    0  0.32476091022E+02  0.66359794886E+02 -0.84899414647E+02  0.11254434447E+03  0.00000000000E+00 0. -1.
         -5    1    5    5    0  502  0.59275136178E+02 -0.13248130892E+02 -0.13640952785E+02  0.62427720877E+02  0.47000000000E+01 0.  1.
         11    1    6    6    0    0 -0.52622716403E+02 -0.10239381431E+03  0.57938115972E+01  0.11527016849E+03  0.00000000000E+00 0. -1.
        -12    1    6    6    0    0 -0.26746694643E+01  0.15267099945E+02  0.44926905215E+01  0.16137610282E+02  0.00000000000E+00 0.  1.
</event>
<event>
12    1  0.8251070E-002  0.1860355E+03  0.7818608E-02  0.1163395E+00
         21   -1    0    0  503  502  0.00000000000E+00  0.00000000000E+00  0.13950449277E+03  0.13950449277E+03  0.00000000000E+00 0. -1.
         21   -1    0    0  501  503 -0.00000000000E+00 -0.00000000000E+00 -0.26846045671E+03  0.26846045671E+03  0.00000000000E+00 0. -1.
          6    2    1    2  501    0  0.67913311778E+02 -0.16815768926E+02  0.19489314165E+00  0.18603557683E+03  0.17237810146E+03 0.  0.
         24    2    3    3    0    0  0.62943098245E+02  0.37650902484E+02  0.43885669734E+02  0.11587650560E+03  0.78243136869E+02 0.  0.
         -6    2    1    2    0  502 -0.67913311778E+02  0.16815768926E+02 -0.12915085708E+03  0.22192937264E+03  0.16636620617E+03 0.  0.
        -24    2    5    5    0    0 -0.92670058302E+02  0.13621721541E+02 -0.33571668019E+02  0.12303260920E+03  0.72364874287E+02 0.  0.
          5    1    3    3  501    0  0.49702135329E+01 -0.54466671410E+02 -0.43690776593E+02  0.70159071233E+02  0.47000000000E+01 0. -1.
        -13    1    4    4    0    0  0.38913291651E+02  0.50290643791E+02 -0.79549227150E+00  0.63592656243E+02  0.00000000000E+00 0.  1.
         14    1    4    4    0    0  0.24029806595E+02 -0.12639741308E+02  0.44681162006E+02  0.52283849356E+02  0.00000000000E+00 0. -1.
         -5    1    5    5    0  502  0.24756746524E+02  0.31940473847E+01 -0.95579189061E+02  0.98896763439E+02  0.47000000000E+01 0.  1.
         13    1    6    6    0    0 -0.45387615122E+02  0.29795289581E+02  0.11771541563E+02  0.55555054481E+02  0.00000000000E+00 0. -1.
        -14    1    6    6    0    0 -0.47282443180E+02 -0.16173568039E+02 -0.45343209582E+02  0.67477554722E+02  0.00000000000E+00 0.  1.
</event>
<event>
12    1  0.8251070E-002  0.1801303E+03  0.7818608E-02  0.1168128E+00
         21   -1    0    0  503  502  0.00000000000E+00  0.00000000000E+00  0.16819822725E+03  0.16819822725E+03  0.00000000000E+00 0. -1.
         21   -1    0    0  501  503 -0.00000000000E+00 -0.00000000000E+00 -0.19098607684E+03  0.19098607684E+03  0.00000000000E+00 0. -1.
          6    2    1    2  501    0 -0.42026334519E+02  0.26438983174E+02 -0.82264659655E+01  0.17846638839E+03  0.17122308378E+03 0.  0.
         24    2    3    3    0    0  0.76844019723E+01 -0.43426858095E+02 -0.15712689500E+02  0.92265885829E+02  0.79505742176E+02 0.  0.
         -6    2    1    2    0  502  0.42026334519E+02 -0.26438983174E+02 -0.14561383623E+02  0.18071791569E+03  0.17315224092E+03 0.  0.
        -24    2    5    5    0    0  0.72448965259E+02 -0.59779952853E+01 -0.58883821941E+02  0.12300520457E+03  0.79864803706E+02 0.  0.
          5    1    3    3  501    0 -0.49710736491E+02  0.69865841269E+02  0.74862235349E+01  0.86200502559E+02  0.47000000000E+01 0. -1.
        -11    1    4    4    0    0  0.26962032591E+02 -0.84042748546E+01 -0.37336768265E+02  0.46814712450E+02  0.00000000000E+00 0.  1.
         12    1    4    4    0    0 -0.19277630619E+02 -0.35022583240E+02  0.21624078765E+02  0.45451173379E+02  0.00000000000E+00 0. -1.
         -5    1    5    5    0  502 -0.30422630740E+02 -0.20460987888E+02  0.44322438318E+02  0.57712711121E+02  0.47000000000E+01 0.  1.
         13    1    6    6    0    0  0.54781518669E+02 -0.53984375055E+01  0.63563477498E+01  0.55412643611E+02  0.00000000000E+00 0. -1.
        -14    1    6    6    0    0  0.17667446590E+02 -0.57955777986E+00 -0.65240169691E+02  0.67592560963E+02  0.00000000000E+00 0.  1.
</event>
<event>
12    1  0.8251070E-002  0.1976517E+03  0.7818608E-02  0.1152276E+00
         21   -1    0    0  503  502  0.00000000000E+00  0.00000000000E+00  0.20513836136E+03  0.20513836136E+03  0.00000000000E+00 0.  1.
         21   -1    0    0  501  503 -0.00000000000E+00 -0.00000000000E+00 -0.19848694249E+03  0.19848694249E+03  0.00000000000E+00 0.  1.
          6    2    1    2  501    0 -0.90631025070E+02 -0.30972768131E+02 -0.42974153072E+02  0.20226951806E+03  0.17289558998E+03 0.  0.
         24    2    3    3    0    0  0.12397047998E+02 -0.17365390969E+02 -0.42875064335E+02  0.98240462639E+02  0.85776883572E+02 0.  0.
         -6    2    1    2    0  502  0.90631025070E+02  0.30972768131E+02  0.49625571942E+02  0.20135578579E+03  0.17002399833E+03 0.  0.
        -24    2    5    5    0    0  0.49400424182E+02 -0.30008488555E+02 -0.78361064533E+01  0.10785385746E+03  0.90720111939E+02 0.  0.
          5    1    3    3  501    0 -0.10302807307E+03 -0.13607377162E+02 -0.99088736861E-01  0.10402905542E+03  0.47000000000E+01 0. -1.
        -13    1    4    4    0    0 -0.26484189908E+02 -0.34493438059E+02 -0.10268603497E+02  0.44683932257E+02  0.00000000000E+00 0.  1.
         14    1    4    4    0    0  0.38881237906E+02  0.17128047089E+02 -0.32606460838E+02  0.53556530382E+02  0.00000000000E+00 0. -1.
         -5    1    5    5    0  502  0.41230600888E+02  0.60981256686E+02  0.57461678396E+02  0.93501928326E+02  0.47000000000E+01 0.  1.
         13    1    6    6    0    0  0.28981562352E+02 -0.32127514984E+02  0.38028617685E+02  0.57604547897E+02  0.00000000000E+00 0. -1.
        -14    1    6    6    0    0  0.20418861830E+02  0.21190264287E+01 -0.45864724138E+02  0.50249309564E+02  0.00000000000E+00 0.  1.
</event>
<event>
12    1  0.8251070E-002  0.2656093E+03  0.7818608E-02  0.1103875E+00
         21   -1    0    0  501  502  0.00000000000E+00  0.00000000000E+00  0.11324025110E+04  0.11324025110E+04  0.00000000000E+00 0. -1.
         21   -1    0    0  502  503 -0.00000000000E+00 -0.00000000000E+00 -0.73354745492E+02  0.73354745492E+02  0.00000000000E+00 0. -1.
         -6    2    1    2    0  503 -0.85960093290E+02  0.18256626728E+03  0.76418598748E+03  0.80890495254E+03  0.17212617233E+03 0.  0.
        -24    2    3    3    0    0 -0.60179394263E+02  0.12964693683E+03  0.71000167449E+03  0.72876052197E+03  0.80991560580E+02 0.  0.
          6    2    1    2  501    0  0.85960093290E+02 -0.18256626728E+03  0.29486177803E+03  0.39685230395E+03  0.17270988224E+03 0.  0.
         24    2    5    5    0    0  0.83356861389E+02 -0.54021644713E+02  0.96317416136E+02  0.16026732884E+03  0.80881812577E+02 0.  0.
          5    1    5    5  501    0  0.26032319016E+01 -0.12854462256E+03  0.19854436189E+03  0.23658497510E+03  0.47000000000E+01 0. -1.
        -13    1    6    6    0    0  0.50675152643E+02 -0.72824840761E+02  0.78919131984E+02  0.11874198045E+03  0.00000000000E+00 0.  1.
         14    1    6    6    0    0  0.32681708746E+02  0.18803196047E+02  0.17398284152E+02  0.41525348398E+02  0.00000000000E+00 0. -1.
         -5    1    3    3    0  503 -0.25780699027E+02  0.52919330443E+02  0.54184312988E+02  0.80144430567E+02  0.47000000000E+01 0.  1.
         13    1    4    4    0    0  0.98517131717E+01  0.57998756569E+02  0.17991959597E+03  0.18929335178E+03  0.00000000000E+00 0. -1.
        -14    1    4    4    0    0 -0.70031107435E+02  0.71648180264E+02  0.53008207852E+03  0.53946717019E+03  0.00000000000E+00 0.  1.
</event>
<event>
12    1  0.8251070E-002  0.1882648E+03  0.7818608E-02  0.1160059E+00
         21   -1    0    0  501  502  0.00000000000E+00  0.00000000000E+00  0.94914227160E+02  0.94914227160E+02  0.00000000000E+00 0.  1.
         21   -1    0    0  502  503 -0.00000000000E+00 -0.00000000000E+00 -0.37831220831E+03  0.37831220831E+03  0.00000000000E+00 0. -1.
         -6    2    1    2    0  503  0.73667544348E+02 -0.20368023153E+02 -0.11423038856E+03  0.22012304241E+03  0.17194129427E+03 0.  0.
        -24    2    3    3    0    0  0.81159648495E+02 -0.51925688727E+01 -0.14497846643E+03  0.18471174013E+03  0.80534588205E+02 0.  0.
          6    2    1    2  501    0 -0.73667544348E+02  0.20368023153E+02 -0.16916759259E+03  0.25310339305E+03  0.17205199718E+03 0.  0.
         24    2    5    5    0    0 -0.81553407858E+02 -0.19474522654E+02 -0.17725610627E+03  0.21142450927E+03  0.79059348253E+02 0.  0.
          5    1    5    5  501    0  0.78858635108E+01  0.39842545808E+02  0.80885136764E+01  0.41678883781E+02  0.47000000000E+01 0. -1.
        -11    1    6    6    0    0  0.57471314259E+01  0.18662695197E+02 -0.23596525629E+02  0.30628772966E+02  0.00000000000E+00 0.  1.
         12    1    6    6    0    0 -0.87300539284E+02 -0.38137217851E+02 -0.15365958064E+03  0.18079573631E+03  0.00000000000E+00 0. -1.
         -5    1    3    3    0  503 -0.74921041479E+01 -0.15175454281E+02  0.30748077869E+02  0.35411302289E+02  0.47000000000E+01 0.  1.
         11    1    4    4    0    0 -0.74316616134E+01  0.20002207324E+02 -0.37693822616E+02  0.43314456658E+02  0.00000000000E+00 0. -1.
        -12    1    4    4    0    0  0.88591310109E+02 -0.25194776197E+02 -0.10728464381E+03  0.14139728347E+03  0.00000000000E+00 0.  1.
</event>
<event>
12    1  0.8251070E-002  0.2102391E+03  0.7818608E-02  0.1142005E+00
         21   -1    0    0  501  502  0.00000000000E+00  0.00000000000E+00  0.15316444428E+03  0.15316444428E+03  0.00000000000E+00 0.  1.
         21   -1    0    0  502  503 -0.00000000000E+00 -0.00000000000E+00 -0.28735142534E+03  0.28735142534E+03  0.00000000000E+00 0.  1.
         -6    2    1    2    0  503  0.91004364321E+02 -0.78739855102E+02 -0.89389989749E+02  0.22555714584E+03  0.16853396295E+03 0.  0.
        -24    2    3    3    0    0  0.58896835719E+02 -0.95626384178E+02 -0.11617533333E+03  0.18021849911E+03  0.79804490720E+02 0.  0.
          6    2    1    2  501    0 -0.91004364321E+02  0.78739855102E+02 -0.44796991316E+02  0.21495872378E+03  0.17239119290E+03 0.  0.
         24    2    5    5    0    0 -0.47283671475E+02  0.93002581507E+02 -0.82984895441E+02  0.15499765000E+03  0.79073085673E+02 0.  0.
          5    1    5    5  501    0 -0.43720692846E+02 -0.14262726404E+02  0.38187904125E+02  0.59961073781E+02  0.47000000000E+01 0. -1.
        -11    1    6    6    0    0 -0.26209490819E+02  0.70668716542E+02 -0.10275086940E+02  0.76069588656E+02  0.00000000000E+00 0.  1.
         12    1    6    6    0    0 -0.21074180656E+02  0.22333864964E+02 -0.72709808501E+02  0.78928061340E+02  0.00000000000E+00 0. -1.
         -5    1    3    3    0  503  0.32107528602E+02  0.16886529076E+02  0.26785343577E+02  0.45338646735E+02  0.47000000000E+01 0.  1.
         11    1    4    4    0    0  0.16550619221E+02  0.11679287258E+02 -0.71213222046E+01  0.21471888072E+02  0.00000000000E+00 0. -1.
        -12    1    4    4    0    0  0.42346216498E+02 -0.10730567144E+03 -0.10905401112E+03  0.15874661104E+03  0.00000000000E+00 0.  1.
</event>
<event>
12    1  0.8251070E-002  0.1890354E+03  0.7818608E-02  0.1160523E+00
         21   -1    0    0  503  502  0.00000000000E+00  0.00000000000E+00  0.12182789540E+03  0.12182789540E+03  0.00000000000E+00 0.  1.
         21   -1    0    0  501  503 -0.00000000000E+00 -0.00000000000E+00 -0.39662484519E+03  0.39662484519E+03  0.00000000000E+00 0.  1.
          6    2    1    2  501    0 -0.63357336770E+02  0.21234750353E+02 -0.27331567650E+03  0.32941149011E+03  0.17130500300E+03 0.  0.
         24    2    3    3    0    0 -0.39624694866E+02  0.60662758486E+02 -0.96013007813E+02  0.14617357799E+03  0.83054984932E+02 0.  0.
         -6    2    1    2    0  502  0.63357336770E+02 -0.21234750353E+02 -0.14812732928E+01  0.18904125047E+03  0.17683137014E+03 0.  0.
        -24    2    5    5    0    0  0.11123695067E+03 -0.17734341001E+02  0.11227975509E+02  0.13915813411E+03  0.80936721033E+02 0.  0.
          5    1    3    3  501    0 -0.23732641905E+02 -0.39428008132E+02 -0.17730266868E+03  0.18323791212E+03  0.47000000000E+01 0. -1.
        -11    1    4    4    0    0 -0.11645925894E+02 -0.70947906500E+01 -0.65273205668E+02  0.66682494123E+02  0.00000000000E+00 0.  1.
         12    1    4    4    0    0 -0.27978768972E+02  0.67757549136E+02 -0.30739802146E+02  0.79491083865E+02  0.00000000000E+00 0. -1.
         -5    1    5    5    0  502 -0.47879613898E+02 -0.35004093518E+01 -0.12709248801E+02  0.49883116360E+02  0.47000000000E+01 0.  1.
         11    1    6    6    0    0 -0.38586429871E+01  0.11856881766E+02 -0.12849467323E+02  0.17904847986E+02  0.00000000000E+00 0. -1.
        -12    1    6    6    0    0  0.11509559366E+03 -0.29591222767E+02  0.24077442831E+02  0.12125328613E+03  0.00000000000E+00 0.  1.
</event>
<event>
12    1  0.8251070E-002  0.1812107E+03  0.7818608E-02  0.1167195E+00
         21   -1    0    0  501  502  0.00000000000E+00  0.00000000000E+00  0.42338505453E+03  0.42338505453E+03  0.00000000000E+00 0.  1.
         21   -1    0    0  502  503 -0.00000000000E+00 -0.00000000000E+00 -0.84302979758E+02  0.84302979758E+02  0.00000000000E+00 0.  1.
         -6    2    1    2    0  503  0.15687725207E+02 -0.46454722432E+02  0.91687867011E+02  0.20102666048E+03  0.17204914213E+03 0.  0.
        -24    2    3    3    0    0  0.37775699298E+02 -0.79113271254E+02  0.10745870089E+03  0.15830349801E+03  0.76332902080E+02 0.  0.
          6    2    1    2  501    0 -0.15687725207E+02  0.46454722432E+02  0.24739420776E+03  0.30666137380E+03  0.17445101946E+03 0.  0.
         24    2    5    5    0    0  0.46780649902E+02  0.49461273087E+02  0.95163358101E+02  0.14201733710E+03  0.80486101723E+02 0.  0.
          5    1    5    5  501    0 -0.62468375109E+02 -0.30065506546E+01  0.15223084966E+03  0.16464403671E+03  0.47000000000E+01 0. -1.
        -11    1    6    6    0    0  0.58295301797E+01 -0.14446554532E+02  0.52890375052E+02  0.55136903551E+02  0.00000000000E+00 0.  1.
         12    1    6    6    0    0  0.40951119722E+02  0.63907827619E+02  0.42272983049E+02  0.86880433547E+02  0.00000000000E+00 0. -1.
         -5    1    3    3    0  503 -0.22087974091E+02  0.32658548822E+02 -0.15770833874E+02  0.42723162473E+02  0.47000000000E+01 0.  1.
         11    1    4    4    0    0 -0.22271821843E+02 -0.34675226243E+02  0.43998313988E+02  0.60284799054E+02  0.00000000000E+00 0. -1.
        -12    1    4    4    0    0  0.60047521141E+02 -0.44438045011E+02  0.63460386898E+02  0.98018698955E+02  0.00000000000E+00 0.  1.
</event>
<event>
12    1  0.8251070E-002  0.1785259E+03  0.7818608E-02  0.1170731E+00
         21   -1    0    0  503  502  0.00000000000E+00  0.00000000000E+00  0.46312109112E+03  0.46312109112E+03  0.00000000000E+00 0.  1.
         21   -1    0    0  501  503 -0.00000000000E+00 -0.00000000000E+00 -0.14705223315E+03  0.14705223315E+03  0.00000000000E+00 0.  1.
          6    2    1    2  501    0 -0.21453925036E+02 -0.59787622726E+01 -0.68936974381E+02  0.18579024593E+03  0.17108387577E+03 0.  0.
         24    2    3    3    0    0  0.50397242832E+02 -0.27337573251E+02 -0.37831552267E+02  0.10449801743E+03  0.78748868580E+02 0.  0.
         -6    2    1    2    0  502  0.21453925036E+02  0.59787622726E+01  0.38500583235E+03  0.42438307834E+03  0.17713127827E+03 0.  0.
        -24    2    5    5    0    0 -0.40268470952E+02 -0.57282062709E+01  0.32656668648E+03  0.33845327531E+03  0.79059830188E+02 0.  0.
          5    1    3    3  501    0 -0.71851167868E+02  0.21358810979E+02 -0.31105422113E+02  0.81292228505E+02  0.47000000000E+01 0. -1.
        -13    1    4    4    0    0  0.18996704880E+01 -0.36404391381E+02  0.78161401268E+01  0.37282442332E+02  0.00000000000E+00 0.  1.
         14    1    4    4    0    0  0.48497572344E+02  0.90668181293E+01 -0.45647692394E+02  0.67215575094E+02  0.00000000000E+00 0. -1.
         -5    1    5    5    0  502  0.61722395988E+02  0.11706968544E+02  0.58439145862E+02  0.85929803025E+02  0.47000000000E+01 0.  1.
         11    1    6    6    0    0 -0.87151716725E+01 -0.40162157868E+02  0.17968978763E+03  0.18432952265E+03  0.00000000000E+00 0. -1.
        -12    1    6    6    0    0 -0.31553299280E+02  0.34433951597E+02  0.14687689885E+03  0.15412375266E+03  0.00000000000E+00 0.  1.
</event>
<event>
12    1  0.8251070E-002  0.1831872E+03  0.7818608E-02  0.1165727E+00
         21   -1    0    0  503  502  0.00000000000E+00  0.00000000000E+00  0.12121523070E+03  0.12121523070E+03  0.00000000000E+00 0.  1.
         21   -1    0    0  501  503 -0.00000000000E+00 -0.00000000000E+00 -0.28304807846E+03  0.28304807846E+03  0.00000000000E+00 0.  1.
          6    2    1    2  501    0 -0.33440714171E+02 -0.54027177247E+02 -0.12221520526E+03  0.21684101780E+03  0.16747015662E+03 0.  0.
         24    2    3    3    0    0  0.40372499280E+01 -0.94853418344E+02 -0.10981672276E+03  0.15985687858E+03  0.66940560739E+02 0.  0.
         -6    2    1    2    0  502  0.33440714171E+02  0.54027177247E+02 -0.39617642497E+02  0.18742229136E+03  0.17181484353E+03 0.  0.
        -24    2    5    5    0    0  0.54441152727E+02 -0.55233383926E+01  0.32977858747E+02  0.91092238245E+02  0.64930041766E+02 0.  0.
          5    1    3    3  501    0 -0.37477964099E+02  0.40826241097E+02 -0.12398482499E+02  0.56984139226E+02  0.47000000000E+01 0. -1.
        -11    1    4    4    0    0 -0.30076030237E+02 -0.44013833970E+02 -0.64545153427E+02  0.83712973943E+02  0.00000000000E+00 0.  1.
         12    1    4    4    0    0  0.34113280165E+02 -0.50839584374E+02 -0.45271569333E+02  0.76143904634E+02  0.00000000000E+00 0. -1.
         -5    1    5    5    0  502 -0.21000438557E+02  0.59550515640E+02 -0.72595501243E+02  0.96330053116E+02  0.47000000000E+01 0.  1.
         11    1    6    6    0    0  0.57607009083E+02 -0.18163726898E+02  0.54649103987E+01  0.60649432940E+02  0.00000000000E+00 0. -1.
        -12    1    6    6    0    0 -0.31658563559E+01  0.12640388505E+02  0.27512948348E+02  0.30442805305E+02  0.00000000000E+00 0.  1.
</event>
<event>
12    1  0.8251070E-002  0.2212960E+03  0.7818608E-02  0.1133239E+00
         21   -1    0    0  503  502  0.00000000000E+00  0.00000000000E+00  0.77499088476E+03  0.77499088476E+03  0.00000000000E+00 0. -1.
         21   -1    0    0  501  503 -0.00000000000E+00 -0.00000000000E+00 -0.63057039906E+02  0.63057039906E+02  0.00000000000E+00 0. -1.
          6    2    1    2  501    0 -0.10499095303E+03 -0.86475930756E+02  0.38882092487E+03  0.44738532556E+03  0.17455867520E+03 0.  0.
         24    2    3    3    0    0 -0.49255672090E+02 -0.35178543438E+02  0.73698157183E+02  0.12325218593E+03  0.78077088918E+02 0.  0.
         -6    2    1    2    0  502  0.10499095303E+03  0.86475930756E+02  0.32311291998E+03  0.39066259910E+03  0.17237784214E+03 0.  0.
        -24    2    5    5    0    0 -0.10751670751E+01  0.62174710262E+02  0.94563681804E+02  0.13748792536E+03  0.78062725574E+02 0.  0.
          5    1    3    3  501    0 -0.55735280944E+02 -0.51297387318E+02  0.31512276769E+03  0.32413313963E+03  0.47000000000E+01 0. -1.
        -13    1    4    4    0    0  0.19400417590E+02 -0.21178378294E+02  0.21684207808E+02  0.35987564214E+02  0.00000000000E+00 0.  1.
         14    1    4    4    0    0 -0.68656089680E+02 -0.14000165144E+02  0.52013949375E+02  0.87264621720E+02  0.00000000000E+00 0. -1.
         -5    1    5    5    0  502  0.10606612011E+03  0.24301220494E+02  0.22854923818E+03  0.25317467374E+03  0.47000000000E+01 0.  1.
         13    1    6    6    0    0  0.25498539674E+02  0.63442510891E+02  0.46938354337E+02  0.82935739109E+02  0.00000000000E+00 0. -1.
        -14    1    6    6    0    0 -0.26573706749E+02 -0.12678006288E+01  0.47625327467E+02  0.54552186254E+02  0.00000000000E+00 0.  1.
</event>
<event>
12    1  0.8251070E-002  0.2702497E+03  0.7818608E-02  0.1101192E+00
         21   -1    0    0  501  502  0.00000000000E+00  0.00000000000E+00  0.15924792062E+04  0.15924792062E+04  0.00000000000E+00 0.  1.
         21   -1    0    0  502  503 -0.00000000000E+00 -0.00000000000E+00 -0.45798014061E+02  0.45798014061E+02  0.00000000000E+00 0. -1.
         -6    2    1    2    0  503  0.88061566027E+02 -0.18848312750E+03  0.77741457189E+03  0.82292082307E+03  0.17188523991E+03 0.  0.
        -24    2    3    3    0    0  0.11169587400E+03 -0.19421327231E+03  0.74506910433E+03  0.78218098576E+03  0.80525529140E+02 0.  0.
          6    2    1    2  501    0 -0.88061566027E+02  0.18848312750E+03  0.76926662021E+03  0.81535639714E+03  0.17249403652E+03 0.  0.
         24    2    5    5    0    0 -0.54782852034E+02  0.14512651576E+03  0.33658992118E+03  0.37921595593E+03  0.80306287019E+02 0.  0.
          5    1    5    5  501    0 -0.33278713993E+02  0.43356611744E+02  0.43267669902E+03  0.43614044122E+03  0.47000000000E+01 0. -1.
        -13    1    6    6    0    0 -0.46057913591E+02  0.10736106061E+03  0.31239478295E+03  0.33352395589E+03  0.00000000000E+00 0.  1.
         14    1    6    6    0    0 -0.87249384433E+01  0.37765455145E+02  0.24195138238E+02  0.45692000038E+02  0.00000000000E+00 0. -1.
         -5    1    3    3    0  503 -0.23634307970E+02  0.57301448106E+01  0.32345467552E+02  0.40739837309E+02  0.47000000000E+01 0.  1.
         13    1    4    4    0    0  0.69809690331E+02 -0.56518934075E+02  0.21711694932E+03  0.23496287463E+03  0.00000000000E+00 0. -1.
        -14    1    4    4    0    0  0.41886183667E+02 -0.13769433824E+03  0.52795215501E+03  0.54721811113E+03  0.00000000000E+00 0.  1.
</event>
<event>
12    1  0.8251070E-002  0.2383846E+03  0.7818608E-02  0.1120989E+00
         21   -1    0    0  503  502  0.00000000000E+00  0.00000000000E+00  0.36490129459E+03  0.36490129459E+03  0.00000000000E+00 0. -1.
         21   -1    0    0  501  503 -0.00000000000E+00 -0.00000000000E+00 -0.18822754526E+03  0.18822754526E+03  0.00000000000E+00 0.  1.
          6    2    1    2  501    0  0.10137808782E+01 -0.16261590752E+03 -0.27467001849E+02  0.23928065507E+03  0.17336618635E+03 0.  0.
         24    2    3    3    0    0 -0.51984197612E+02 -0.11149632296E+03 -0.61020845157E+02  0.15822543901E+03  0.78599994732E+02 0.  0.
         -6    2    1    2    0  502 -0.10137808782E+01  0.16261590752E+03  0.20414075117E+03  0.31384818478E+03  0.17430512234E+03 0.  0.
        -24    2    5    5    0    0 -0.28037780977E+01  0.22099399751E+02  0.13602054971E+03  0.15760944153E+03  0.76438874117E+02 0.  0.
          5    1    3    3  501    0  0.52997978491E+02 -0.51119584558E+02  0.33553843308E+02  0.81055216058E+02  0.47000000000E+01 0. -1.
        -13    1    4    4    0    0 -0.62111602302E+02 -0.11589573994E+03 -0.64753688677E+02  0.14656982593E+03  0.00000000000E+00 0.  1.
         14    1    4    4    0    0  0.10127404690E+02  0.43994169796E+01  0.37328435203E+01  0.11655613079E+02  0.00000000000E+00 0. -1.
         -5    1    5    5    0  502  0.17899972195E+01  0.14051650777E+03  0.68120201463E+02  0.15623874325E+03  0.47000000000E+01 0.  1.
         13    1    6    6    0    0 -0.33397668558E+02  0.39201507513E+01  0.27617516447E+02  0.43514354662E+02  0.00000000000E+00 0. -1.
        -14    1    6    6    0    0  0.30593890460E+02  0.18179248999E+02  0.10840303326E+03  0.11409508687E+03  0.00000000000E+00 0.  1.
</event>
<event>
12    1  0.8251070E-002  0.1776546E+03  0.7818608E-02  0.1170159E+00
         21   -1    0    0  501  502  0.00000000000E+00  0.00000000000E+00  0.41047214043E+02  0.41047214043E+02  0.00000000000E+00 0.  1.
         21   -1    0    0  502  503 -0.00000000000E+00 -0.00000000000E+00 -0.76979009167E+03  0.76979009167E+03  0.00000000000E+00 0.  1.
         -6    2    1    2    0  503 -0.47270805916E+02  0.82933521444E+00 -0.38508491671E+03  0.42397562260E+03  0.17096701023E+03 0.  0.
        -24    2    3    3    0    0  0.87466539451E+01  0.41858440836E+02 -0.12252083262E+03  0.15234474885E+03  0.79805607894E+02 0.  0.
          6    2    1    2  501    0  0.47270805916E+02 -0.82933521444E+00 -0.34365796092E+03  0.38686168312E+03  0.17124821423E+03 0.  0.
         24    2    5    5    0    0  0.73924082238E+02  0.35344655600E+02 -0.31160843135E+03  0.33147019374E+03  0.77837396121E+02 0.  0.
          5    1    5    5  501    0 -0.26653276322E+02 -0.36173990814E+02 -0.32049529562E+02  0.55391489376E+02  0.47000000000E+01 0. -1.
        -11    1    6    6    0    0  0.55586599298E+02  0.11270814154E+02 -0.80992330666E+02  0.98876988728E+02  0.00000000000E+00 0.  1.
         12    1    6    6    0    0  0.18337482940E+02  0.24073841446E+02 -0.23061610069E+03  0.23259320502E+03  0.00000000000E+00 0. -1.
         -5    1    3    3    0  503 -0.56017459861E+02 -0.41029105622E+02 -0.26256408410E+03  0.27163087375E+03  0.47000000000E+01 0.  1.
         11    1    4    4    0    0  0.18740499555E+02  0.43831717705E+02 -0.24132299135E+02  0.53430269156E+02  0.00000000000E+00 0. -1.
        -12    1    4    4    0    0 -0.99938456097E+01 -0.19732768686E+01 -0.98388533482E+02  0.98914479690E+02  0.00000000000E+00 0.  1.
</event>
<event>
12    1  0.8251070E-002  0.2076166E+03  0.7818608E-02  0.1144457E+00
         21   -1    0    0  501  502  0.00000000000E+00  0.00000000000E+00  0.18274096449E+03  0.18274096449E+03  0.00000000000E+00 0.  1.
         21   -1    0    0  502  503 -0.00000000000E+00 -0.00000000000E+00 -0.26393711977E+03  0.26393711977E+03  0.00000000000E+00 0.  1.
         -6    2    1    2    0  503  0.59311786069E+01 -0.11323432899E+03 -0.11980322566E+03  0.23550240371E+03  0.16808145982E+03 0.  0.
        -24    2    3    3    0    0 -0.43398245609E+02 -0.26816496739E+02 -0.96668175892E+02  0.13323435224E+03  0.76184802732E+02 0.  0.
          6    2    1    2  501    0 -0.59311786069E+01  0.11323432899E+03  0.38607070380E+02  0.21117568055E+03  0.17391799801E+03 0.  0.
         24    2    5    5    0    0 -0.44672064351E+02  0.11037566158E+03 -0.16823149280E+02  0.14332564400E+03  0.77979752981E+02 0.  0.
          5    1    5    5  501    0  0.38740885744E+02  0.28586674104E+01  0.55430219660E+02  0.67850036545E+02  0.47000000000E+01 0. -1.
        -13    1    6    6    0    0 -0.11343832732E+02  0.96016464004E+02  0.11398320176E+02  0.97353816585E+02  0.00000000000E+00 0.  1.
         14    1    6    6    0    0 -0.33328231620E+02  0.14359197574E+02 -0.28221469456E+02  0.45971827418E+02  0.00000000000E+00 0. -1.
         -5    1    3    3    0  503  0.49329424215E+02 -0.86417832249E+02 -0.23135049764E+02  0.10226805147E+03  0.47000000000E+01 0.  1.
         11    1    4    4    0    0 -0.27021852970E+02  0.21702882209E+02 -0.17188852043E+02  0.38686590295E+02  0.00000000000E+00 0. -1.
        -12    1    4    4    0    0 -0.16376392639E+02 -0.48519378948E+02 -0.79479323849E+02  0.94547761945E+02  0.00000000000E+00 0.  1.
</event>
<event>
12    1  0.8251070E-002  0.2658922E+03  0.7818608E-02  0.1103684E+00
         21   -1    0    0  503  502  0.00000000000E+00  0.00000000000E+00  0.94214794807E+03  0.94214794807E+03  0.00000000000E+00 0. -1.
         21   -1    0    0  501  503 -0.00000000000E+00 -0.00000000000E+00 -0.21116923549E+03  0.21116923549E+03  0.00000000000E+00 0. -1.
          6    2    1    2  501    0  0.63414783054E+02  0.19336088141E+03 -0.97557645527E+02  0.28322458929E+03  0.17113973417E+03 0.  0.
         24    2    3    3    0    0  0.67192788087E+02  0.21552689895E+03 -0.75295752655E+02  0.25123572358E+03  0.80518466786E+02 0.  0.
         -6    2    1    2    0  502 -0.63414783054E+02 -0.19336088141E+03  0.82853635811E+03  0.87009259427E+03  0.17081791688E+03 0.  0.
        -24    2    5    5    0    0 -0.10733580311E+03 -0.16734053485E+03  0.66890047803E+03  0.70242679976E+03  0.80322663602E+02 0.  0.
          5    1    3    3  501    0 -0.37780050333E+01 -0.22166017537E+02 -0.22261892872E+02  0.31988865715E+02  0.47000000000E+01 0. -1.
        -13    1    4    4    0    0 -0.31781914720E+01  0.37116958290E+01  0.10920513493E+02  0.11963912484E+02  0.00000000000E+00 0.  1.
         14    1    4    4    0    0  0.70370979559E+02  0.21181520312E+03 -0.86216266149E+02  0.23927181110E+03  0.00000000000E+00 0. -1.
         -5    1    5    5    0  502  0.43921020057E+02 -0.26020346563E+02  0.15963588008E+03  0.16766579451E+03  0.47000000000E+01 0.  1.
         11    1    6    6    0    0 -0.76708356686E+02 -0.16701110353E+03  0.57165320725E+03  0.60047004092E+03  0.00000000000E+00 0. -1.
        -12    1    6    6    0    0 -0.30627446425E+02 -0.32943131912E+00  0.97247270782E+02  0.10195675884E+03  0.00000000000E+00 0.  1.
</event>
<event>
12    1  0.8251070E-002  0.2275945E+03  0.7818608E-02  0.1129971E+00
         21   -1    0    0  501  502  0.00000000000E+00  0.00000000000E+00  0.50972734559E+03  0.50972734559E+03  0.00000000000E+00 0. -1.
         21   -1    0    0  502  503 -0.00000000000E+00 -0.00000000000E+00 -0.10762252839E+03  0.10762252839E+03  0.00000000000E+00 0.  1.
         -6    2    1    2    0  503  0.11917985777E+03 -0.68549144610E+02  0.11087351572E+03  0.25316434625E+03  0.18137371915E+03 0.  0.
        -24    2    3    3    0    0  0.13411477459E+03 -0.99376633196E+02  0.67113680005E+02  0.19739339490E+03  0.81224493337E+02 0.  0.
          6    2    1    2  501    0 -0.11917985777E+03  0.68549144610E+02  0.29123130148E+03  0.36418552773E+03  0.17003706631E+03 0.  0.
         24    2    5    5    0    0 -0.11916431299E+03 -0.25038720485E+01  0.16042281250E+03  0.21525103808E+03  0.79944529259E+02 0.  0.
          5    1    5    5  501    0 -0.15544783598E-01  0.71053016659E+02  0.13080848898E+03  0.14893448965E+03  0.47000000000E+01 0. -1.
        -13    1    6    6    0    0  0.10625281605E+02  0.71705230369E+01  0.20309571219E+02  0.24016487939E+02  0.00000000000E+00 0.  1.
         14    1    6    6    0    0 -0.12978959459E+03 -0.96743950854E+01  0.14011324128E+03  0.19123455014E+03  0.00000000000E+00 0. -1.
         -5    1    3    3    0  503 -0.14934916816E+02  0.30827488586E+02  0.43759835716E+02  0.55770951352E+02  0.47000000000E+01 0.  1.
         11    1    4    4    0    0 -0.99977653990E+01 -0.16611103768E+02  0.85347782560E+01  0.21183165988E+02  0.00000000000E+00 0. -1.
        -12    1    4    4    0    0  0.14411253999E+03 -0.82765529427E+02  0.58578901749E+02  0.17621022891E+03  0.00000000000E+00 0.  1.
</event>
<event>
12    1  0.8251070E-002  0.2073414E+03  0.7818608E-02  0.1143777E+00
         21   -1    0    0  501  502  0.00000000000E+00  0.00000000000E+00  0.13939777507E+03  0.13939777507E+03  0.00000000000E+00 0. -1.
         21   -1    0    0  502  503 -0.00000000000E+00 -0.00000000000E+00 -0.59379955227E+03  0.59379955227E+03  0.00000000000E+00 0. -1.
         -6    2    1    2    0  503  0.10711339770E+03  0.41534551566E+02 -0.48151923375E+03  0.52409019553E+03  0.17207952127E+03 0.  0.
        -24    2    3    3    0    0  0.12527504441E+03  0.71696474665E+02 -0.43986032366E+03  0.46934403762E+03  0.77281951871E+02 0.  0.
          6    2    1    2  501    0 -0.10711339770E+03 -0.41534551566E+02  0.27117456545E+02  0.20910713181E+03  0.17260369979E+03 0.  0.
         24    2    5    5    0    0 -0.11414473126E+03 -0.47912377322E+02 -0.32340003439E+02  0.14871345779E+03  0.75797105039E+02 0.  0.
          5    1    5    5  501    0  0.70313335563E+01  0.63778257559E+01  0.59457459984E+02  0.60393674012E+02  0.47000000000E+01 0. -1.
        -11    1    6    6    0    0 -0.19910390887E+02 -0.16316605199E+02 -0.41570689216E+02  0.48895577227E+02  0.00000000000E+00 0.  1.
         12    1    6    6    0    0 -0.94234340369E+02 -0.31595772123E+02  0.92306857771E+01  0.99817880566E+02  0.00000000000E+00 0. -1.
         -5    1    3    3    0  503 -0.18161646711E+02 -0.30161923099E+02 -0.41658910089E+02  0.54746157912E+02  0.47000000000E+01 0.  1.
         11    1    4    4    0    0  0.44357511863E+02 -0.10069833747E+02 -0.17016377272E+03  0.17613829781E+03  0.00000000000E+00 0. -1.
        -12    1    4    4    0    0  0.80917532548E+02  0.81766308412E+02 -0.26969655094E+03  0.29320573981E+03  0.00000000000E+00 0.  1.
</event>
<event>
12    1  0.8251070E-002  0.2107398E+03  0.7818608E-02  0.1141035E+00
         21   -1    0    0  503  502  0.00000000000E+00  0.00000000000E+00  0.18805854663E+03  0.18805854663E+03  0.00000000000E+00 0. -1.
         21   -1    0    0  501  503 -0.00000000000E+00 -0.00000000000E+00 -0.99174590859E+03  0.99174590859E+03  0.00000000000E+00 0. -1.
          6    2    1    2  501    0 -0.11586575257E+03  0.37835582343E+02 -0.91690876533E+03  0.94081505080E+03  0.17191530465E+03 0.  0.
         24    2    3    3    0    0 -0.17892279211E+01  0.18787160585E+02 -0.53210704834E+03  0.53898082224E+03  0.83703387695E+02 0.  0.
         -6    2    1    2    0  502  0.11586575257E+03 -0.37835582343E+02  0.11322140337E+03  0.23898940441E+03  0.17158218244E+03 0.  0.
        -24    2    5    5    0    0  0.12743379896E+03 -0.77785904712E+02  0.89454644065E+02  0.19085628896E+03  0.78319662927E+02 0.  0.
          5    1    3    3  501    0 -0.11407652465E+03  0.19048421758E+02 -0.38480171699E+03  0.40183422856E+03  0.47000000000E+01 0. -1.
        -13    1    4    4    0    0  0.45413422926E+01  0.16010525008E+02 -0.16869316975E+02  0.23696720365E+02  0.00000000000E+00 0.  1.
         14    1    4    4    0    0 -0.63305702137E+01  0.27766355771E+01 -0.51523773136E+03  0.51528410187E+03  0.00000000000E+00 0. -1.
         -5    1    5    5    0  502 -0.11568046397E+02  0.39950322369E+02  0.23766759304E+02  0.48133115447E+02  0.47000000000E+01 0.  1.
         11    1    6    6    0    0  0.10212644200E+03 -0.58773840555E+02  0.10292740093E+03  0.15645518320E+03  0.00000000000E+00 0. -1.
        -12    1    6    6    0    0  0.25307356963E+02 -0.19012064158E+02 -0.13472756862E+02  0.34401105759E+02  0.00000000000E+00 0.  1.
</event>
<event>
12    1  0.8251070E-002  0.2079408E+03  0.7818608E-02  0.1144137E+00
         21   -1    0    0  501  502  0.00000000000E+00  0.00000000000E+00  0.23013384435E+03  0.23013384435E+03  0.00000000000E+00 0.  1.
         21   -1    0    0  502  503 -0.00000000000E+00 -0.00000000000E+00 -0.18796327010E+03  0.18796327010E+03  0.00000000000E+00 0.  1.
         -6    2    1    2    0  503  0.87755361476E+02  0.63949708966E+02 -0.99099890451E+01  0.20817677856E+03  0.17733807968E+03 0.  0.
        -24    2    3    3    0    0  0.98497110063E+02 -0.13695949671E+02 -0.20523516298E+02  0.12893682381E+03  0.79462129880E+02 0.  0.
          6    2    1    2  501    0 -0.87755361476E+02 -0.63949708966E+02  0.52080563291E+02  0.20992033590E+03  0.17194066885E+03 0.  0.
         24    2    5    5    0    0 -0.48419160789E+02 -0.10737013042E+03  0.22776239468E+02  0.14424307135E+03  0.80090864080E+02 0.  0.
          5    1    5    5  501    0 -0.39336200687E+02  0.43420421455E+02  0.29304323823E+02  0.65677264548E+02  0.47000000000E+01 0. -1.
        -11    1    6    6    0    0  0.51827454284E+01 -0.82436191913E+02  0.20385563896E+02  0.85077363633E+02  0.00000000000E+00 0.  1.
         12    1    6    6    0    0 -0.53601906217E+02 -0.24933938508E+02  0.23906755720E+01  0.59165707714E+02  0.00000000000E+00 0. -1.
         -5    1    3    3    0  503 -0.10741748587E+02  0.77645658637E+02  0.10613527253E+02  0.79239954750E+02  0.47000000000E+01 0.  1.
         11    1    4    4    0    0 -0.45595983769E+01 -0.17502275308E+01 -0.24629299349E+02  0.25108875327E+02  0.00000000000E+00 0. -1.
        -12    1    4    4    0    0  0.10305670844E+03 -0.11945722140E+02  0.41057830508E+01  0.10382794848E+03  0.00000000000E+00 0.  1.
</event>
<event>
12    1  0.8251070E-002  0.2447119E+03  0.7818608E-02  0.1116732E+00
         21   -1    0    0  501  502  0.00000000000E+00  0.00000000000E+00  0.62001199400E+03  0.62001199400E+03  0.00000000000E+00 0. -1.
         21   -1    0    0  502  503 -0.00000000000E+00 -0.00000000000E+00 -0.12373342990E+03  0.12373342990E+03  0.00000000000E+00 0.  1.
         -6    2    1    2    0  503 -0.13405829942E+03 -0.11136817157E+03  0.73552919162E+02  0.25529798102E+03  0.17144249740E+03 0.  0.
        -24    2    3    3    0    0 -0.12397360588E+02 -0.43846434843E+02  0.80081445770E+02  0.11592337563E+03  0.70349034560E+02 0.  0.
          6    2    1    2  501    0  0.13405829942E+03  0.11136817157E+03  0.42272564493E+03  0.48844744288E+03  0.17178310829E+03 0.  0.
         24    2    5    5    0    0  0.42270710815E+02  0.66256065350E+02  0.33539340773E+03  0.35387748634E+03  0.81017641302E+02 0.  0.
          5    1    5    5  501    0  0.91787588602E+02  0.45112106218E+02  0.87332237209E+02  0.13456995655E+03  0.47000000000E+01 0. -1.
        -11    1    6    6    0    0 -0.83876565830E+01  0.61389504922E+02  0.18061842953E+03  0.19095036314E+03  0.00000000000E+00 0.  1.
         12    1    6    6    0    0  0.50658367398E+02  0.48665604283E+01  0.15477497819E+03  0.16292712319E+03  0.00000000000E+00 0. -1.
         -5    1    3    3    0  503 -0.12166093883E+03 -0.67521736725E+02 -0.65285266078E+01  0.13937460539E+03  0.47000000000E+01 0.  1.
         13    1    4    4    0    0 -0.16285453105E+02  0.15107966069E+02  0.10289898410E+02  0.24481597801E+02  0.00000000000E+00 0. -1.
        -14    1    4    4    0    0  0.38880925175E+01 -0.58954400912E+02  0.69791547360E+02  0.91441777832E+02  0.00000000000E+00 0.  1.
</event>
<event>
12    1  0.8251070E-002  0.1923354E+03  0.7818608E-02  0.1156408E+00
         21   -1    0    0  503  502  0.00000000000E+00  0.00000000000E+00  0.20804702160E+02  0.20804702160E+02  0.00000000000E+00 0.  1.
         21   -1    0    0  501  503 -0.00000000000E+00 -0.00000000000E+00 -0.18863398822E+04  0.18863398822E+04  0.00000000000E+00 0.  1.
          6    2    1    2  501    0 -0.71221785962E+02 -0.42577125486E+02 -0.11624085863E+04  0.11781864774E+04  0.17333291530E+03 0.  0.
         24    2    3    3    0    0  0.67076465967E+00  0.16704405340E+02 -0.79800719059E+03  0.80203051778E+03  0.78472849699E+02 0.  0.
         -6    2    1    2    0  502  0.71221785962E+02  0.42577125486E+02 -0.70312659369E+03  0.72895810694E+03  0.17351530342E+03 0.  0.
        -24    2    5    5    0    0  0.20704834298E+02  0.73771612885E+02 -0.26695603245E+03  0.28874008489E+03  0.78958041588E+02 0.  0.
          5    1    3    3  501    0 -0.71892550622E+02 -0.59281530826E+02 -0.36440139575E+03  0.37615595962E+03  0.47000000000E+01 0. -1.
        -13    1    4    4    0    0  0.33986754108E+02 -0.45559463742E+01 -0.21820883892E+03  0.22088674357E+03  0.00000000000E+00 0.  1.
         14    1    4    4    0    0 -0.33315989448E+02  0.21260351714E+02 -0.57979835167E+03  0.58114377421E+03  0.00000000000E+00 0. -1.
         -5    1    5    5    0  502  0.50516951664E+02 -0.31194487399E+02 -0.43617056124E+03  0.44021802205E+03  0.47000000000E+01 0.  1.
         13    1    6    6    0    0  0.36731912379E+02  0.28013029033E+01 -0.10209772294E+03  0.10854043355E+03  0.00000000000E+00 0. -1.
        -14    1    6    6    0    0 -0.16027078081E+02  0.70970309981E+02 -0.16485830950E+03  0.18019965134E+03  0.00000000000E+00 0.  1.
</event>
<event>
12    1  0.8251070E-002  0.2002973E+03  0.7818608E-02  0.1149718E+00
         21   -1    0    0  501  502  0.00000000000E+00  0.00000000000E+00  0.70713194931E+03  0.70713194931E+03  0.00000000000E+00 0.  1.
         21   -1    0    0  502  503 -0.00000000000E+00 -0.00000000000E+00 -0.56449046779E+02  0.56449046779E+02  0.00000000000E+00 0. -1.
         -6    2    1    2    0  503  0.27278246769E+02 -0.98037781737E+02  0.31876944376E+03  0.37647437453E+03  0.17252097555E+03 0.  0.
        -24    2    3    3    0    0 -0.12587765764E+02 -0.99448505880E+02  0.30921749477E+03  0.33518734476E+03  0.81771876866E+02 0.  0.
          6    2    1    2  501    0 -0.27278246769E+02  0.98037781737E+02  0.33191345877E+03  0.38710662156E+03  0.17125852665E+03 0.  0.
         24    2    5    5    0    0  0.50758192492E+02  0.64112107734E+02  0.21044772123E+03  0.23872652652E+03  0.77558717303E+02 0.  0.
          5    1    5    5  501    0 -0.78036439261E+02  0.33925674004E+02  0.12146573754E+03  0.14838009505E+03  0.47000000000E+01 0. -1.
        -11    1    6    6    0    0  0.41118453291E+02  0.61638089102E+01  0.14471380124E+03  0.15056827026E+03  0.00000000000E+00 0.  1.
         12    1    6    6    0    0  0.96397392012E+01  0.57948298824E+02  0.65733919990E+02  0.88158256253E+02  0.00000000000E+00 0. -1.
         -5    1    3    3    0  503  0.39866012533E+02  0.14107241430E+01  0.95519489989E+01  0.41287029774E+02  0.47000000000E+01 0.  1.
         11    1    4    4    0    0 -0.46437461752E+02 -0.71220892477E+02  0.21364742244E+03  0.22994363330E+03  0.00000000000E+00 0. -1.
        -12    1    4    4    0    0  0.33849695988E+02 -0.28227613404E+02  0.95570072328E+02  0.10524371146E+03  0.00000000000E+00 0.  1.
</event>
<event>
12    1  0.8251070E-002  0.2052242E+03  0.7818608E-02  0.1145499E+00
         21   -1    0    0  501  502  0.00000000000E+00  0.00000000000E+00  0.14606860061E+04  0.14606860061E+04  0.00000000000E+00 0. -1.
         21   -1    0    0  502  503 -0.00000000000E+00 -0.00000000000E+00 -0.30585521020E+02  0.30585521020E+02  0.00000000000E+00 0. -1.
         -6    2    1    2    0  503  0.94005842533E+02  0.57360671793E+02  0.89754822979E+03  0.92071157044E+03  0.17317513112E+03 0.  0.
        -24    2    3    3    0    0  0.31273495072E+02 -0.21305170566E+02  0.60383237693E+03  0.61020431707E+03  0.79396645739E+02 0.  0.
          6    2    1    2  501    0 -0.94005842533E+02 -0.57360671793E+02  0.53255225533E+03  0.57055995672E+03  0.17262506904E+03 0.  0.
         24    2    5    5    0    0 -0.13008064603E+03 -0.42457295608E+02  0.47537455952E+03  0.50117061340E+03  0.80420242923E+02 0.  0.
          5    1    5    5  501    0  0.36074803497E+02 -0.14903376185E+02  0.57177695809E+02  0.69389343325E+02  0.47000000000E+01 0. -1.
        -11    1    6    6    0    0 -0.38964440795E+02  0.64886884970E+00  0.46793424666E+02  0.60895593184E+02  0.00000000000E+00 0.  1.
         12    1    6    6    0    0 -0.91116205235E+02 -0.43106164458E+02  0.42858113486E+03  0.44027502022E+03  0.00000000000E+00 0. -1.
         -5    1    3    3    0  503  0.62732347461E+02  0.78665842359E+02  0.29371585286E+03  0.31050725337E+03  0.47000000000E+01 0.  1.
         11    1    4    4    0    0 -0.13713230908E+02  0.15059411162E+02  0.61262949493E+02  0.64559953121E+02  0.00000000000E+00 0. -1.
        -12    1    4    4    0    0  0.44986725980E+02 -0.36364581728E+02  0.54256942744E+03  0.54564436395E+03  0.00000000000E+00 0.  1.
</event>
<event>
12    1  0.8251070E-002  0.1740594E+03  0.7818608E-02  0.1173799E+00
         21   -1    0    0  503  502  0.00000000000E+00  0.00000000000E+00  0.20863437496E+03  0.20863437496E+03  0.00000000000E+00 0.  1.
         21   -1    0    0  501  503 -0.00000000000E+00 -0.00000000000E+00 -0.14482153264E+03  0.14482153264E+03  0.00000000000E+00 0.  1.
          6    2    1    2  501    0  0.14631055211E+02 -0.23467825020E+02  0.31576035670E+02  0.17643647763E+03  0.17137087857E+03 0.  0.
         24    2    3    3    0    0  0.72221283576E+02 -0.12865139312E+02  0.42325474574E+02  0.11671469112E+03  0.80308453570E+02 0.  0.
         -6    2    1    2    0  502 -0.14631055211E+02  0.23467825020E+02  0.32236806642E+02  0.17701942997E+03  0.17184836425E+03 0.  0.
        -24    2    5    5    0    0  0.13836225128E+02 -0.14794481504E+02  0.77501172833E+02  0.11110021428E+03  0.76983816566E+02 0.  0.
          5    1    3    3  501    0 -0.57590228365E+02 -0.10602685708E+02 -0.10749438904E+02  0.59721786512E+02  0.47000000000E+01 0. -1.
        -13    1    4    4    0    0 -0.29706683898E+01 -0.29760549529E+02  0.26255585271E+01  0.30023469761E+02  0.00000000000E+00 0.  1.
         14    1    4    4    0    0  0.75191951966E+02  0.16895410217E+02  0.39699916047E+02  0.86691221361E+02  0.00000000000E+00 0. -1.
         -5    1    5    5    0  502 -0.28467280339E+02  0.38262306524E+02 -0.45264366191E+02  0.65919215690E+02  0.47000000000E+01 0.  1.
         13    1    6    6    0    0  0.75436505540E+01 -0.32086899315E+02  0.16003704836E+01  0.33000559950E+02  0.00000000000E+00 0. -1.
        -14    1    6    6    0    0  0.62925745745E+01  0.17292417811E+02  0.75900802350E+02  0.78099654326E+02  0.00000000000E+00 0.  1.
</event>
<event>
12    1  0.8251070E-002  0.1815385E+03  0.7818608E-02  0.1166417E+00
         21   -1    0    0  503  502  0.00000000000E+00  0.00000000000E+00  0.61913145674E+03  0.61913145674E+03  0.00000000000E+00 0.  1.
         21   -1    0    0  501  503 -0.00000000000E+00 -0.00000000000E+00 -0.82031763546E+02  0.82031763546E+02  0.00000000000E+00 0.  1.
          6    2    1    2  501    0 -0.20814397140E+02 -0.52129452669E+02  0.60587998052E+02  0.19138219062E+03  0.17264274794E+03 0.  0.
         24    2    3    3    0    0  0.38773263542E+02 -0.69040043531E+02  0.11264736742E+02  0.11206301580E+03  0.78494150347E+02 0.  0.
         -6    2    1    2    0  502  0.20814397140E+02  0.52129452669E+02  0.47651169514E+03  0.50978102967E+03  0.17222828930E+03 0.  0.
        -24    2    5    5    0    0  0.32010074773E+02  0.92122659479E+02  0.42733497340E+03  0.44524236102E+03  0.78194317463E+02 0.  0.
          5    1    3    3  501    0 -0.59587660682E+02  0.16910590863E+02  0.49323261310E+02  0.79319174826E+02  0.47000000000E+01 0. -1.
        -13    1    4    4    0    0  0.38004882132E+02 -0.38724864938E+02  0.42204523077E+02  0.68740148374E+02  0.00000000000E+00 0.  1.
         14    1    4    4    0    0  0.76838140974E+00 -0.30315178593E+02 -0.30939786335E+02  0.43322867421E+02  0.00000000000E+00 0. -1.
         -5    1    5    5    0  502 -0.11195677633E+02 -0.39993206810E+02  0.49176721749E+02  0.64538668647E+02  0.47000000000E+01 0.  1.
         13    1    6    6    0    0  0.22937877919E+02  0.28829572594E+02  0.47753423299E+02  0.60313182110E+02  0.00000000000E+00 0. -1.
        -14    1    6    6    0    0  0.90721968542E+01  0.63293086885E+02  0.37958155010E+03  0.38492917891E+03  0.00000000000E+00 0.  1.
</event>
<event>
12    1  0.8251070E-002  0.1946398E+03  0.7818608E-02  0.1154607E+00
         21   -1    0    0  501  502  0.00000000000E+00  0.00000000000E+00  0.87566081991E+02  0.87566081991E+02  0.00000000000E+00 0.  1.
         21   -1    0    0  502  503 -0.00000000000E+00 -0.00000000000E+00 -0.51778694295E+03  0.51778694295E+03  0.00000000000E+00 0.  1.
         -6    2    1    2    0  503  0.23829899121E+02 -0.88002757607E+02 -0.33921457427E+03  0.39048846460E+03  0.17059415039E+03 0.  0.
        -24    2    3    3    0    0  0.72165004027E+02 -0.16299719487E+02 -0.19168172593E+03  0.21941643479E+03  0.76994929317E+02 0.  0.
          6    2    1    2  501    0 -0.23829899121E+02  0.88002757607E+02 -0.91006286696E+02  0.21486456035E+03  0.17196594325E+03 0.  0.
         24    2    5    5    0    0 -0.56941695114E+02  0.22591535909E+02 -0.28286399916E+01  0.10009345625E+03  0.79107298290E+02 0.  0.
          5    1    5    5  501    0  0.33111795994E+02  0.65411221698E+02 -0.88177646704E+02  0.11477110410E+03  0.47000000000E+01 0. -1.
        -11    1    6    6    0    0 -0.83614981746E+01  0.42493069701E+02  0.13075354554E+02  0.45238706005E+02  0.00000000000E+00 0.  1.
         12    1    6    6    0    0 -0.48580196940E+02 -0.19901533792E+02 -0.15903994545E+02  0.54854750245E+02  0.00000000000E+00 0. -1.
         -5    1    3    3    0  503 -0.48335104906E+02 -0.71703038119E+02 -0.14753284834E+03  0.17107202980E+03  0.47000000000E+01 0.  1.
         13    1    4    4    0    0  0.79543042134E+02 -0.29531308773E+02 -0.12528066520E+03  0.15130908374E+03  0.00000000000E+00 0. -1.
        -14    1    4    4    0    0 -0.73780381072E+01  0.13231589285E+02 -0.66401060728E+02  0.68107351050E+02  0.00000000000E+00 0.  1.
</event>
<event>
12    1  0.8251070E-002  0.2552486E+03  0.7818608E-02  0.1110060E+00
         21   -1    0    0  501  502  0.00000000000E+00  0.00000000000E+00  0.55240002247E+03  0.55240002247E+03  0.00000000000E+00 0.  1.
         21   -1    0    0  502  503 -0.00000000000E+00 -0.00000000000E+00 -0.11785973533E+03  0.11785973533E+03  0.00000000000E+00 0. -1.
         -6    2    1    2    0  503 -0.15375118491E+03  0.10850451796E+03  0.21775637953E+03  0.33537599857E+03  0.17218177114E+03 0.  0.
        -24    2    3    3    0    0 -0.15720577686E+03  0.10626172149E+03  0.23757041465E+03  0.31459980235E+03  0.80796806819E+02 0.  0.
          6    2    1    2  501    0  0.15375118491E+03 -0.10850451796E+03  0.21678390761E+03  0.33488375923E+03  0.17245060835E+03 0.  0.
         24    2    5    5    0    0  0.23217939124E+02 -0.47938415184E+02  0.21059435074E+02  0.91907751753E+02  0.71877469899E+02 0.  0.
          5    1    5    5  501    0  0.13053324578E+03 -0.60566102780E+02  0.19572447254E+03  0.24297600748E+03  0.47000000000E+01 0. -1.
        -11    1    6    6    0    0 -0.69916782473E+01 -0.56591129415E+02  0.20127875473E+02  0.60469586275E+02  0.00000000000E+00 0.  1.
         12    1    6    6    0    0  0.30209617372E+02  0.86527142312E+01  0.93155960099E+00  0.31438165478E+02  0.00000000000E+00 0. -1.
         -5    1    3    3    0  503  0.34545919505E+01  0.22427964742E+01 -0.19814035120E+02  0.20776196218E+02  0.47000000000E+01 0.  1.
         11    1    4    4    0    0 -0.13514487139E+03  0.48858268629E+02  0.18032496482E+03  0.23058265246E+03  0.00000000000E+00 0. -1.
        -12    1    4    4    0    0 -0.22060905467E+02  0.57403452861E+02  0.57245449824E+02  0.84017149892E+02  0.00000000000E+00 0.  1.
</event>
<event>
12    1  0.8251070E-002  0.2497762E+03  0.7818608E-02  0.1113474E+00
         21   -1    0    0  501  502  0.00000000000E+00  0.00000000000E+00  0.55883223481E+03  0.55883223481E+03  0.00000000000E+00 0. -1.
         21   -1    0    0  502  503 -0.00000000000E+00 -0.00000000000E+00 -0.31884286937E+03  0.31884286937E+03  0.00000000000E+00 0. -1.
         -6    2    1    2    0  503 -0.16308498373E+03  0.77286304112E+02 -0.23382173860E+03  0.34214145205E+03  0.17267971233E+03 0.  0.
        -24    2    3    3    0    0 -0.13818795377E+03  0.82036480362E+02 -0.25297024984E+03  0.31002943315E+03  0.79362506514E+02 0.  0.
          6    2    1    2  501    0  0.16308498373E+03 -0.77286304112E+02  0.47381110404E+03  0.53553365213E+03  0.17242228837E+03 0.  0.
         24    2    5    5    0    0  0.12424561499E+03  0.93216330743E+01  0.23149135311E+03  0.27524461463E+03  0.81532114123E+02 0.  0.
          5    1    5    5  501    0  0.38839368743E+02 -0.86607937187E+02  0.24231975094E+03  0.26028903750E+03  0.47000000000E+01 0. -1.
        -11    1    6    6    0    0  0.35393569563E+02 -0.29669491323E+02  0.11313168239E+03  0.12219558520E+03  0.00000000000E+00 0.  1.
         12    1    6    6    0    0  0.88852045423E+02  0.38991124397E+02  0.11835967071E+03  0.15304902943E+03  0.00000000000E+00 0. -1.
         -5    1    3    3    0  503 -0.24897029961E+02 -0.47501762493E+01  0.19148511238E+02  0.32112018901E+02  0.47000000000E+01 0.  1.
         11    1    4    4    0    0 -0.11165206029E+03  0.56300494842E+02 -0.12492346234E+03  0.17675349990E+03  0.00000000000E+00 0. -1.
        -12    1    4    4    0    0 -0.26535893481E+02  0.25735985520E+02 -0.12804678750E+03  0.13327593325E+03  0.00000000000E+00 0.  1.
</event>
<event>
12    1  0.8251070E-002  0.1759835E+03  0.7818608E-02  0.1171792E+00
         21   -1    0    0  503  502  0.00000000000E+00  0.00000000000E+00  0.42894709903E+03  0.42894709903E+03  0.00000000000E+00 0. -1.
         21   -1    0    0  501  503 -0.00000000000E+00 -0.00000000000E+00 -0.18513855788E+03  0.18513855788E+03  0.00000000000E+00 0.  1.
          6    2    1    2  501    0  0.24992550209E+02 -0.27092291935E+02 -0.11800960130E+03  0.21173935389E+03  0.17189726041E+03 0.  0.
         24    2    3    3    0    0 -0.29349903469E+02  0.34892533739E+02 -0.65504677283E+02  0.11389213659E+03  0.81250540229E+02 0.  0.
         -6    2    1    2    0  502 -0.24992550209E+02  0.27092291935E+02  0.36181814246E+03  0.40234630302E+03  0.17208009617E+03 0.  0.
        -24    2    5    5    0    0 -0.49573850870E+02  0.66858206690E+02  0.31677957501E+03  0.33726073722E+03  0.80423374927E+02 0.  0.
          5    1    3    3  501    0  0.54342453679E+02 -0.61984825674E+02 -0.52504924021E+02  0.97847217294E+02  0.47000000000E+01 0. -1.
        -11    1    4    4    0    0  0.26092571530E+02  0.34798295019E+01 -0.33436249745E+02  0.42554838731E+02  0.00000000000E+00 0.  1.
         12    1    4    4    0    0 -0.55442475000E+02  0.31412704237E+02 -0.32068427539E+02  0.71337297863E+02  0.00000000000E+00 0. -1.
         -5    1    5    5    0  502  0.24581300661E+02 -0.39765914755E+02  0.45038567443E+02  0.65085565803E+02  0.47000000000E+01 0.  1.
         11    1    6    6    0    0  0.20623571730E+02  0.23228411568E+02  0.11713906346E+03  0.12118766853E+03  0.00000000000E+00 0. -1.
        -12    1    6    6    0    0 -0.70197422600E+02  0.43629795122E+02  0.19964051155E+03  0.21607306870E+03  0.00000000000E+00 0.  1.
</event>
<event>
12    1  0.8251070E-002  0.2323721E+03  0.7818608E-02  0.1125072E+00
         21   -1    0    0  503  502  0.00000000000E+00  0.00000000000E+00  0.27522683858E+03  0.27522683858E+03  0.00000000000E+00 0.  1.
         21   -1    0    0  501  503 -0.00000000000E+00 -0.00000000000E+00 -0.25329047789E+03  0.25329047789E+03  0.00000000000E+00 0.  1.
          6    2    1    2  501    0  0.89518395629E+02  0.12777178101E+03 -0.11499249380E+03  0.25880206392E+03  0.17151111765E+03 0.  0.
         24    2    3    3    0    0 -0.11956864003E+02  0.78758913735E+02 -0.90334501386E+02  0.14334819405E+03  0.77733194380E+02 0.  0.
         -6    2    1    2    0  502 -0.89518395629E+02 -0.12777178101E+03  0.13692885450E+03  0.26971525255E+03  0.17221392245E+03 0.  0.
        -24    2    5    5    0    0 -0.67197503500E+02 -0.11055960192E+02  0.10046207418E+03  0.14532585942E+03  0.79932711309E+02 0.  0.
          5    1    3    3  501    0  0.10147525963E+03  0.49012867277E+02 -0.24657992419E+02  0.11545386986E+03  0.47000000000E+01 0. -1.
        -13    1    4    4    0    0 -0.31824248839E+02  0.69058938766E+02 -0.34896274200E+02  0.83664029252E+02  0.00000000000E+00 0.  1.
         14    1    4    4    0    0  0.19867384836E+02  0.96999749692E+01 -0.55438227186E+02  0.59684164802E+02  0.00000000000E+00 0. -1.
         -5    1    5    5    0  502 -0.22320892129E+02 -0.11671582082E+03  0.36466780321E+02  0.12438939313E+03  0.47000000000E+01 0.  1.
         13    1    6    6    0    0  0.18070834740E+02 -0.18625022687E+01  0.10273465720E+02  0.20870267866E+02  0.00000000000E+00 0. -1.
        -14    1    6    6    0    0 -0.85268338240E+02 -0.91934579232E+01  0.90188608455E+02  0.12445559156E+03  0.00000000000E+00 0.  1.
</event>
<event>
12    1  0.8251070E-002  0.2391684E+03  0.7818608E-02  0.1121039E+00
         21   -1    0    0  503  502  0.00000000000E+00  0.00000000000E+00  0.89030942680E+02  0.89030942680E+02  0.00000000000E+00 0. -1.
         21   -1    0    0  501  503 -0.00000000000E+00 -0.00000000000E+00 -0.70761980732E+03  0.70761980732E+03  0.00000000000E+00 0.  1.
          6    2    1    2  501    0 -0.15327742323E+03  0.39786425064E+02 -0.43750929176E+03  0.49666521656E+03  0.17373839205E+03 0.  0.
         24    2    3    3    0    0 -0.17441242822E+03  0.30118159577E+02 -0.29534032871E+03  0.35253240334E+03  0.75672894631E+02 0.  0.
         -6    2    1    2    0  502  0.15327742323E+03 -0.39786425064E+02 -0.18107957288E+03  0.29998553344E+03  0.17923331295E+03 0.  0.
        -24    2    5    5    0    0  0.93694294631E+02  0.10547697971E+02 -0.23174503571E+02  0.12380445027E+03  0.76815424957E+02 0.  0.
          5    1    3    3  501    0  0.21135004999E+02  0.96682654867E+01 -0.14216896305E+03  0.14413281323E+03  0.47000000000E+01 0. -1.
        -11    1    4    4    0    0 -0.76056641185E+02  0.39981546281E+02 -0.18745281251E+03  0.20620788935E+03  0.00000000000E+00 0.  1.
         12    1    4    4    0    0 -0.98355787039E+02 -0.98633867042E+01 -0.10788751620E+03  0.14632451399E+03  0.00000000000E+00 0. -1.
         -5    1    5    5    0  502  0.59583128594E+02 -0.50334123035E+02 -0.15790506931E+03  0.17618108317E+03  0.47000000000E+01 0.  1.
         13    1    6    6    0    0  0.83884284137E+02 -0.87166702030E+01 -0.42828294118E+02  0.94587611460E+02  0.00000000000E+00 0. -1.
        -14    1    6    6    0    0  0.98100104944E+01  0.19264368174E+02  0.19653790547E+02  0.29216838808E+02  0.00000000000E+00 0.  1.
</event>
<event>
12    1  0.8251070E-002  0.2084722E+03  0.7818608E-02  0.1142814E+00
         21   -1    0    0  501  502  0.00000000000E+00  0.00000000000E+00  0.89358487055E+02  0.89358487055E+02  0.00000000000E+00 0. -1.
         21   -1    0    0  502  503 -0.00000000000E+00 -0.00000000000E+00 -0.49204077941E+03  0.49204077941E+03  0.00000000000E+00 0. -1.
         -6    2    1    2    0  503  0.60484067738E+02 -0.10120303954E+03 -0.23367679348E+03  0.31315413620E+03  0.17193106626E+03 0.  0.
        -24    2    3    3    0    0  0.31904972151E+02  0.16179628471E+02 -0.86335056792E+02  0.12255735547E+03  0.79289694934E+02 0.  0.
          6    2    1    2  501    0 -0.60484067738E+02  0.10120303954E+03 -0.16900549888E+03  0.26824513027E+03  0.17173297179E+03 0.  0.
         24    2    5    5    0    0 -0.23609111021E+02  0.25495621084E+02 -0.14135232932E+02  0.91898128828E+02  0.83893053672E+02 0.  0.
          5    1    5    5  501    0 -0.36874956717E+02  0.75707418461E+02 -0.15487026594E+03  0.17634700144E+03  0.47000000000E+01 0. -1.
        -13    1    6    6    0    0 -0.14944359853E+01  0.52857994821E+02  0.25913069098E+01  0.52942571027E+02  0.00000000000E+00 0.  1.
         14    1    6    6    0    0 -0.22114675036E+02 -0.27362373738E+02 -0.16726539842E+02  0.38955557801E+02  0.00000000000E+00 0. -1.
         -5    1    3    3    0  503  0.28579095588E+02 -0.11738266801E+03 -0.14734173669E+03  0.19059678073E+03  0.47000000000E+01 0.  1.
         11    1    4    4    0    0  0.29992166077E+02  0.21511786631E+02 -0.10062764360E+03  0.10718306604E+03  0.00000000000E+00 0. -1.
        -12    1    4    4    0    0  0.19128060734E+01 -0.53321581604E+01  0.14292586807E+02  0.15374289426E+02  0.00000000000E+00 0.  1.
</event>
<event>
12    1  0.8251070E-002  0.2697313E+03  0.7818608E-02  0.1101740E+00
         21   -1    0    0  501  502  0.00000000000E+00  0.00000000000E+00  0.14709398540E+03  0.14709398540E+03  0.00000000000E+00 0. -1.
         21   -1    0    0  502  503 -0.00000000000E+00 -0.00000000000E+00 -0.71047632712E+03  0.71047632712E+03  0.00000000000E+00 0.  1.
         -6    2    1    2    0  503  0.38421587495E+02  0.20399507787E+03 -0.51939272202E+03  0.58427552698E+03  0.16887534326E+03 0.  0.
        -24    2    3    3    0    0 -0.12284937904E+01  0.84446755157E+02 -0.11665339489E+03  0.16227435871E+03  0.74780942091E+02 0.  0.
          6    2    1    2  501    0 -0.38421587495E+02 -0.20399507787E+03 -0.43989619693E+02  0.27329478554E+03  0.17223455803E+03 0.  0.
         24    2    5    5    0    0 -0.72377998548E+02 -0.16911385010E+03  0.10244453805E+02  0.20026627993E+03  0.78508375829E+02 0.  0.
          5    1    5    5  501    0  0.33956411054E+02 -0.34881227774E+02 -0.54234073497E+02  0.73028505605E+02  0.47000000000E+01 0. -1.
        -13    1    6    6    0    0 -0.64883304895E+02 -0.13520551094E+03 -0.23555023312E+02  0.15180649712E+03  0.00000000000E+00 0.  1.
         14    1    6    6    0    0 -0.74946936537E+01 -0.33908339154E+02  0.33799477117E+02  0.48459782815E+02  0.00000000000E+00 0. -1.
         -5    1    3    3    0  503  0.39650081285E+02  0.11954832272E+03 -0.40273932713E+03  0.42200116828E+03  0.47000000000E+01 0.  1.
         11    1    4    4    0    0 -0.68486528754E+01  0.96724568978E+02 -0.11163760369E+03  0.14786987809E+03  0.00000000000E+00 0. -1.
        -12    1    4    4    0    0  0.56201590850E+01 -0.12277813820E+02 -0.50157912058E+01  0.14404480614E+02  0.00000000000E+00 0.  1.
</event>
<event>
12    1  0.8251070E-002  0.1734482E+03  0.7818608E-02  0.1175199E+00
         21   -1    0    0  503  502  0.00000000000E+00  0.00000000000E+00  0.20491056329E+03  0.20491056329E+03  0.00000000000E+00 0. -1.
         21   -1    0    0  501  503 -0.00000000000E+00 -0.00000000000E+00 -0.24064905786E+03  0.24064905786E+03  0.00000000000E+00 0. -1.
          6    2    1    2  501    0 -0.13989785987E+02 -0.65276399791E+01 -0.15903833608E+03  0.23275190999E+03  0.16923928347E+03 0.  0.
         24    2    3    3    0    0  0.43897650531E+01 -0.44753400084E+02 -0.16562598010E+03  0.18957201090E+03  0.80519843370E+02 0.  0.
         -6    2    1    2    0  502  0.13989785987E+02  0.65276399791E+01  0.12329984151E+03  0.21280771116E+03  0.17275979513E+03 0.  0.
        -24    2    5    5    0    0  0.11256190572E+02 -0.63586169581E+02  0.72138856076E+02  0.12584245795E+03  0.80389096760E+02 0.  0.
          5    1    3    3  501    0 -0.18379551040E+02  0.38225760105E+02  0.65876440227E+01  0.43179899094E+02  0.47000000000E+01 0. -1.
        -11    1    4    4    0    0 -0.24366466031E+02 -0.32758112813E+02 -0.30663047144E+02  0.51059191945E+02  0.00000000000E+00 0.  1.
         12    1    4    4    0    0  0.28756231084E+02 -0.11995287271E+02 -0.13496293295E+03  0.13851281895E+03  0.00000000000E+00 0. -1.
         -5    1    5    5    0  502  0.27335954145E+01  0.70113809560E+02  0.51160985438E+02  0.86965253210E+02  0.47000000000E+01 0.  1.
         13    1    6    6    0    0 -0.25521771913E+02 -0.10405952331E+00  0.35810555365E+02  0.43974623882E+02  0.00000000000E+00 0. -1.
        -14    1    6    6    0    0  0.36777962485E+02 -0.63482110058E+02  0.36328300710E+02  0.81867834065E+02  0.00000000000E+00 0.  1.
</event>
<event>
12    1  0.8251070E-002  0.1841518E+03  0.7818608E-02  0.1164325E+00
         21   -1    0    0  501  502  0.00000000000E+00  0.00000000000E+00  0.43495499078E+03  0.43495499078E+03  0.00000000000E+00 0. -1.
         21   -1    0    0  502  503 -0.00000000000E+00 -0.00000000000E+00 -0.85553973092E+02  0.85553973092E+02  0.00000000000E+00 0. -1.
         -6    2    1    2    0  503 -0.22318980310E+01 -0.66805824367E+02  0.93800801327E+02  0.20666509318E+03  0.17159216437E+03 0.  0.
        -24    2    3    3    0    0  0.69071938666E+01  0.10772384274E+02 -0.55283741631E+01  0.80212427888E+02  0.78991879815E+02 0.  0.
          6    2    1    2  501    0  0.22318980310E+01  0.66805824367E+02  0.25560021636E+03  0.31384387069E+03  0.16940633113E+03 0.  0.
         24    2    5    5    0    0 -0.39293149004E+01  0.60091877579E+02  0.27472129752E+03  0.29214724950E+03  0.79068013856E+02 0.  0.
          5    1    5    5  501    0  0.61612129314E+01  0.67139467876E+01 -0.19121081157E+02  0.21696621186E+02  0.47000000000E+01 0. -1.
        -13    1    6    6    0    0 -0.27607484460E+01 -0.15993418594E+02  0.10368394901E+03  0.10494652187E+03  0.00000000000E+00 0.  1.
         14    1    6    6    0    0 -0.11685664544E+01  0.76085296173E+02  0.17103734851E+03  0.18720072763E+03  0.00000000000E+00 0. -1.
         -5    1    3    3    0  503 -0.91390918976E+01 -0.77578208641E+02  0.99329175490E+02  0.12645266530E+03  0.47000000000E+01 0.  1.
         11    1    4    4    0    0  0.35785332718E+02 -0.16244834446E+02 -0.96059547769E+01  0.40456878910E+02  0.00000000000E+00 0. -1.
        -12    1    4    4    0    0 -0.28878138851E+02  0.27017218721E+02  0.40775806138E+01  0.39755548978E+02  0.00000000000E+00 0.  1.
</event>
<event>
12    1  0.8251070E-002  0.1944101E+03  0.7818608E-02  0.1157315E+00
         21   -1    0    0  503  502  0.00000000000E+00  0.00000000000E+00  0.28499340099E+03  0.28499340099E+03  0.00000000000E+00 0. -1.
         21   -1    0    0  501  503 -0.00000000000E+00 -0.00000000000E+00 -0.19139629817E+03  0.19139629817E+03  0.00000000000E+00 0.  1.
          6    2    1    2  501    0 -0.88731220086E+01  0.84309567107E+02 -0.93086083079E+02  0.21554651719E+03  0.17495269878E+03 0.  0.
         24    2    3    3    0    0 -0.14552965422E+02 -0.19679034975E+02 -0.15724610031E+02  0.85728269260E+02  0.80641301884E+02 0.  0.
         -6    2    1    2    0  502  0.88731220086E+01 -0.84309567107E+02  0.18668318589E+03  0.26084318196E+03  0.16125048305E+03 0.  0.
        -24    2    5    5    0    0 -0.28986670929E+01 -0.11792512430E+03  0.17093294229E+03  0.22161639421E+03  0.77337042926E+02 0.  0.
          5    1    3    3  501    0  0.56798434131E+01  0.10398860208E+03 -0.77361473048E+02  0.12981824793E+03  0.47000000000E+01 0. -1.
        -13    1    4    4    0    0 -0.27954864016E+02  0.10049697570E+01 -0.41511924060E+02  0.50057209526E+02  0.00000000000E+00 0.  1.
         14    1    4    4    0    0  0.13401898595E+02 -0.20684004732E+02  0.25787314029E+02  0.35671059734E+02  0.00000000000E+00 0. -1.
         -5    1    5    5    0  502  0.11771789101E+02  0.33615557197E+02  0.15750243605E+02  0.39226787759E+02  0.47000000000E+01 0.  1.
         11    1    6    6    0    0 -0.32363033591E+02 -0.18372044781E+02  0.46597353963E+02  0.59633978309E+02  0.00000000000E+00 0. -1.
        -12    1    6    6    0    0  0.29464366498E+02 -0.99553079522E+02  0.12433558832E+03  0.16198241590E+03  0.00000000000E+00 0.  1.
</event>
<event>
12    1  0.8251070E-002  0.1733312E+03  0.7818608E-02  0.1174708E+00
         21   -1    0    0  501  502  0.00000000000E+00  0.00000000000E+00  0.41997317198E+03  0.41997317198E+03  0.00000000000E+00 0. -1.
         21   -1    0    0  502  503 -0.00000000000E+00 -0.00000000000E+00 -0.14419310757E+03  0.14419310757E+03  0.00000000000E+00 0. -1.
         -6    2    1    2    0  503 -0.21180587497E+02  0.13548502039E+02 -0.62766080745E+02  0.18434554236E+03  0.17149786851E+03 0.  0.
        -24    2    3    3    0    0 -0.57177681964E+02  0.43787137375E+02 -0.81745229130E+02  0.13342929790E+03  0.77035669253E+02 0.  0.
          6    2    1    2  501    0  0.21180587497E+02 -0.13548502039E+02  0.33854614516E+03  0.37982073719E+03  0.17034705988E+03 0.  0.
         24    2    5    5    0    0 -0.37976804152E+02 -0.42843157612E+02  0.98787069904E+02  0.13109543089E+03  0.64415471832E+02 0.  0.
          5    1    5    5  501    0  0.59157391649E+02  0.29294655573E+02  0.23975907525E+03  0.24872530631E+03  0.47000000000E+01 0. -1.
        -13    1    6    6    0    0 -0.31714703041E+02  0.97546049349E+01  0.39756565046E+02  0.51783773237E+02  0.00000000000E+00 0.  1.
         14    1    6    6    0    0 -0.62621011108E+01 -0.52597762547E+02  0.59030504858E+02  0.79311657650E+02  0.00000000000E+00 0. -1.
         -5    1    3    3    0  503  0.35997094467E+02 -0.30238635336E+02  0.18979148385E+02  0.50916244466E+02  0.47000000000E+01 0.  1.
         13    1    4    4    0    0 -0.23663109459E+02  0.41749264468E+02 -0.87083822621E+02  0.99431061521E+02  0.00000000000E+00 0. -1.
        -14    1    4    4    0    0 -0.33514572505E+02  0.20378729077E+01  0.53385934913E+01  0.33998236375E+02  0.00000000000E+00 0.  1.
</event>
<event>
12    1  0.8251070E-002  0.2091061E+03  0.7818608E-02  0.1142310E+00
         21   -1    0    0  503  502  0.00000000000E+00  0.00000000000E+00  0.41825346815E+03  0.41825346815E+03  0.00000000000E+00 0. -1.
         21   -1    0    0  501  503 -0.00000000000E+00 -0.00000000000E+00 -0.16532264510E+03  0.16532264510E+03  0.00000000000E+00 0. -1.
          6    2    1    2  501    0  0.11592765005E+03  0.25611312614E+02 -0.50612664094E+02  0.21497876347E+03  0.17192750681E+03 0.  0.
         24    2    3    3    0    0  0.41033382622E+02  0.26458358787E+01  0.38936236013E+02  0.95908784359E+02  0.77406236865E+02 0.  0.
         -6    2    1    2    0  502 -0.11592765005E+03 -0.25611312614E+02  0.30354348715E+03  0.36859734979E+03  0.17213424500E+03 0.  0.
        -24    2    5    5    0    0 -0.92279659680E+02 -0.72340972552E+02  0.27502712253E+03  0.30877961314E+03  0.77176288234E+02 0.  0.
          5    1    3    3  501    0  0.74894267427E+02  0.22965476736E+02 -0.89548900107E+02  0.11906997911E+03  0.47000000000E+01 0. -1.
        -11    1    4    4    0    0  0.34440938699E+02 -0.21606043393E+02  0.53242076806E+02  0.66990432990E+02  0.00000000000E+00 0.  1.
         12    1    4    4    0    0  0.65924439229E+01  0.24251879272E+02 -0.14305840793E+02  0.28918351369E+02  0.00000000000E+00 0. -1.
         -5    1    5    5    0  502 -0.23647990368E+02  0.46729659938E+02  0.28516364617E+02  0.59817736645E+02  0.47000000000E+01 0.  1.
         11    1    6    6    0    0 -0.89682592701E+02 -0.35298404992E+02  0.23593946609E+03  0.25486540858E+03  0.00000000000E+00 0. -1.
        -12    1    6    6    0    0 -0.25970669795E+01 -0.37042567561E+02  0.39087656435E+02  0.53914204566E+02  0.00000000000E+00 0.  1.
</event>
<event>
12    1  0.8251070E-002  0.3403822E+03  0.7818608E-02  0.1066651E+00
         21   -1    0    0  503  502  0.00000000000E+00  0.00000000000E+00  0.20322426952E+03  0.20322426952E+03  0.00000000000E+00 0. -1.
         21   -1    0    0  501  503 -0.00000000000E+00 -0.00000000000E+00 -0.57275711955E+03  0.57275711955E+03  0.00000000000E+00 0.  1.
          6    2    1    2  501    0  0.23091325621E+03  0.18196928471E+03 -0.21257887934E+03  0.40131010695E+03  0.17154086839E+03 0.  0.
         24    2    3    3    0    0  0.20243034149E+03  0.20346677097E+03 -0.16038508172E+03  0.33790899611E+03  0.77989391396E+02 0.  0.
         -6    2    1    2    0  502 -0.23091325621E+03 -0.18196928471E+03 -0.15695397069E+03  0.37467128212E+03  0.17120241896E+03 0.  0.
        -24    2    5    5    0    0 -0.14452945672E+03 -0.12735681357E+03 -0.17435987850E+03  0.27089393177E+03  0.76639632151E+02 0.  0.
          5    1    3    3  501    0  0.28482914721E+02 -0.21497486255E+02 -0.52193797619E+02  0.63401110843E+02  0.47000000000E+01 0. -1.
        -11    1    4    4    0    0  0.13683935544E+03  0.13823150353E+03 -0.65119247822E+02  0.20511819569E+03  0.00000000000E+00 0.  1.
         12    1    4    4    0    0  0.65590986048E+02  0.65235267436E+02 -0.95265833895E+02  0.13279080042E+03  0.00000000000E+00 0. -1.
         -5    1    5    5    0  502 -0.86383799490E+02 -0.54612471141E+02  0.17405907810E+02  0.10377735035E+03  0.47000000000E+01 0.  1.
         11    1    6    6    0    0 -0.54509094364E+02 -0.10172534681E+02 -0.25122469831E+02  0.60875777782E+02  0.00000000000E+00 0. -1.
        -12    1    6    6    0    0 -0.90020362355E+02 -0.11718427889E+03 -0.14923740867E+03  0.21001815399E+03  0.00000000000E+00 0.  1.
</event>
<event>
12    1  0.8251070E-002  0.1968877E+03  0.7818608E-02  0.1153299E+00
         21   -1    0    0  503  502  0.00000000000E+00  0.00000000000E+00  0.50302501482E+02  0.50302501482E+02  0.00000000000E+00 0.  1.
         21   -1    0    0  501  503 -0.00000000000E+00 -0.00000000000E+00 -0.79900219880E+03  0.79900219880E+03  0.00000000000E+00 0. -1.
          6    2    1    2  501    0 -0.67391535956E+02 -0.55738823639E+02 -0.47843991210E+03  0.51736785729E+03  0.17639817086E+03 0.  0.
         24    2    3    3    0    0  0.30249744072E+01 -0.11046785123E+02 -0.89381854973E+02  0.11944308418E+03  0.78398676183E+02 0.  0.
         -6    2    1    2    0  502  0.67391535956E+02  0.55738823639E+02 -0.27025978522E+03  0.33193684300E+03  0.17173607849E+03 0.  0.
        -24    2    5    5    0    0  0.49188085727E+02 -0.32584857897E+02 -0.17718527122E+03  0.20225494960E+03  0.77660823826E+02 0.  0.
          5    1    3    3  501    0 -0.70416510363E+02 -0.44692038517E+02 -0.38905805713E+03  0.39792477311E+03  0.47000000000E+01 0. -1.
        -11    1    4    4    0    0 -0.21367046244E+02  0.17550953122E+01  0.42385264905E+01  0.21853972901E+02  0.00000000000E+00 0.  1.
         12    1    4    4    0    0  0.24392020651E+02 -0.12801880435E+02 -0.93620381464E+02  0.97589111275E+02  0.00000000000E+00 0. -1.
         -5    1    5    5    0  502  0.18203450228E+02  0.88323681536E+02 -0.93074513998E+02  0.12968189340E+03  0.47000000000E+01 0.  1.
         11    1    6    6    0    0  0.45231197306E+02 -0.75923960669E+01 -0.16981521690E+03  0.17589972592E+03  0.00000000000E+00 0. -1.
        -12    1    6    6    0    0  0.39568884218E+01 -0.24992461830E+02 -0.73700543172E+01  0.26355223674E+02  0.00000000000E+00 0.  1.
</event>
<event>
12    1  0.8251070E-002  0.3079096E+03  0.7818608E-02  0.1081373E+00
         21   -1    0    0  503  502  0.00000000000E+00  0.00000000000E+00  0.60727159238E+03  0.60727159238E+03  0.00000000000E+00 0.  1.
         21   -1    0    0  501  503 -0.00000000000E+00 -0.00000000000E+00 -0.20622700963E+03  0.20622700963E+03  0.00000000000E+00 0.  1.
          6    2    1    2  501    0  0.22428475254E+03 -0.12090614710E+03 -0.10314537900E+00  0.30790961405E+03  0.17287675713E+03 0.  0.
         24    2    3    3    0    0  0.19083409800E+03 -0.78191036167E+02 -0.58929435451E+02  0.22774634693E+03  0.76578254620E+02 0.  0.
         -6    2    1    2    0  502 -0.22428475254E+03  0.12090614710E+03  0.40114772812E+03  0.50558898796E+03  0.17256528719E+03 0.  0.
        -24    2    5    5    0    0 -0.75728159111E+02  0.11223068499E+03  0.18626499466E+03  0.24416786365E+03  0.81196161669E+02 0.  0.
          5    1    3    3  501    0  0.33450654533E+02 -0.42715110936E+02  0.58826290072E+02  0.80163267115E+02  0.47000000000E+01 0. -1.
        -13    1    4    4    0    0  0.82693169199E+02 -0.51849850982E+02 -0.63341731683E+02  0.11635610105E+03  0.00000000000E+00 0.  1.
         14    1    4    4    0    0  0.10814092880E+03 -0.26341185185E+02  0.44122962320E+01  0.11139024588E+03  0.00000000000E+00 0. -1.
         -5    1    5    5    0  502 -0.14855659342E+03  0.86754621103E+01  0.21488273347E+03  0.26142112431E+03  0.47000000000E+01 0.  1.
         11    1    6    6    0    0 -0.84478670647E+02  0.75228840591E+02  0.10452769322E+03  0.15401968349E+03  0.00000000000E+00 0. -1.
        -12    1    6    6    0    0  0.87505115363E+01  0.37001844402E+02  0.81737301436E+02  0.90148180167E+02  0.00000000000E+00 0.  1.
</event>
<event>
12    1  0.8251070E-002  0.1923717E+03  0.7818608E-02  0.1156582E+00
         21   -1    0    0  501  502  0.00000000000E+00  0.00000000000E+00  0.30992679605E+03  0.30992679605E+03  0.00000000000E+00 0.  1.
         21   -1    0    0  502  503 -0.00000000000E+00 -0.00000000000E+00 -0.87455728299E+03  0.87455728299E+03  0.00000000000E+00 0.  1.
         -6    2    1    2    0  503  0.68904221335E+02  0.51098334440E+02 -0.83278124563E+03  0.85446636661E+03  0.17096589454E+03 0.  0.
        -24    2    3    3    0    0  0.25459304818E+02 -0.31987633545E+02 -0.52534595340E+03  0.53301763391E+03  0.80299703625E+02 0.  0.
          6    2    1    2  501    0 -0.68904221335E+02 -0.51098334440E+02  0.26815075869E+03  0.33001771244E+03  0.17218603206E+03 0.  0.
         24    2    5    5    0    0 -0.79767573631E+02 -0.92510626087E+02  0.22148573152E+03  0.26651412921E+03  0.83980771948E+02 0.  0.
          5    1    5    5  501    0  0.10863352296E+02  0.41412291647E+02  0.46665027167E+02  0.63503583230E+02  0.47000000000E+01 0. -1.
        -11    1    6    6    0    0 -0.46209621890E+01 -0.37727853292E+01  0.93122074352E+02  0.93312956937E+02  0.00000000000E+00 0.  1.
         12    1    6    6    0    0 -0.75146611442E+02 -0.88737840758E+02  0.12836365717E+03  0.17320117227E+03  0.00000000000E+00 0. -1.
         -5    1    3    3    0  503  0.43444916516E+02  0.83085967985E+02 -0.30743529222E+03  0.32144873269E+03  0.47000000000E+01 0.  1.
         11    1    4    4    0    0  0.26264893683E+02 -0.51088315550E+02 -0.48479075208E+03  0.48818227531E+03  0.00000000000E+00 0. -1.
        -12    1    4    4    0    0 -0.80558886444E+00  0.19100682005E+02 -0.40555201323E+02  0.44835358600E+02  0.00000000000E+00 0.  1.
</event>
<event>
12    1  0.8251070E-002  0.1775168E+03  0.7818608E-02  0.1170409E+00
         21   -1    0    0  501  502  0.00000000000E+00  0.00000000000E+00  0.25594532854E+03  0.25594532854E+03  0.00000000000E+00 0. -1.
         21   -1    0    0  502  503 -0.00000000000E+00 -0.00000000000E+00 -0.13718634936E+03  0.13718634936E+03  0.00000000000E+00 0. -1.
         -6    2    1    2    0  503 -0.38709316801E+02 -0.13754464725E+02  0.12333315401E+03  0.21555600287E+03  0.17194687257E+03 0.  0.
        -24    2    3    3    0    0  0.34643437501E+02  0.29823542590E+02  0.68277630198E+02  0.11390527740E+03  0.78885778058E+02 0.  0.
          6    2    1    2  501    0  0.38709316801E+02  0.13754464725E+02 -0.45741748324E+01  0.17757567503E+03  0.17269800456E+03 0.  0.
         24    2    5    5    0    0 -0.41600956772E+02  0.13739948204E+02  0.18530187429E+02  0.93875962915E+02  0.80931469689E+02 0.  0.
          5    1    5    5  501    0  0.80310273573E+02  0.14516520923E-01 -0.23104362261E+02  0.83699712112E+02  0.47000000000E+01 0. -1.
        -13    1    6    6    0    0 -0.56044872525E+01  0.40963201771E+02  0.24950676541E+02  0.48290065610E+02  0.00000000000E+00 0.  1.
         14    1    6    6    0    0 -0.35996469519E+02 -0.27223253568E+02 -0.64204891126E+01  0.45585897305E+02  0.00000000000E+00 0. -1.
         -5    1    3    3    0  503 -0.73352754302E+02 -0.43578007315E+02  0.55055523817E+02  0.10165072547E+03  0.47000000000E+01 0.  1.
         13    1    4    4    0    0 -0.92230893522E+01 -0.22007297977E+01  0.57823785253E+02  0.58596064116E+02  0.00000000000E+00 0. -1.
        -14    1    4    4    0    0  0.43866526853E+02  0.32024272388E+02  0.10453844945E+02  0.55309213285E+02  0.00000000000E+00 0.  1.
</event>
<event>
12    1  0.8251070E-002  0.1891401E+03  0.7818608E-02  0.1159527E+00
         21   -1    0    0  503  502  0.00000000000E+00  0.00000000000E+00  0.55442138078E+03  0.55442138078E+03  0.00000000000E+00 0.  1.
         21   -1    0    0  501  503 -0.00000000000E+00 -0.00000000000E+00 -0.12321419790E+03  0.12321419790E+03  0.00000000000E+00 0.  1.
          6    2    1    2  501    0 -0.53135018128E+02  0.56374701137E+02 -0.18714393976E+02  0.19006365366E+03  0.17254717274E+03 0.  0.
         24    2    3    3    0    0 -0.63931209143E+02 -0.15869707502E+02 -0.44163654194E+02  0.11256805917E+03  0.79887999566E+02 0.  0.
         -6    2    1    2    0  502  0.53135018128E+02 -0.56374701137E+02  0.44992157685E+03  0.48757192501E+03  0.17115933998E+03 0.  0.
        -24    2    5    5    0    0 -0.20224682599E+02 -0.17244831651E+02  0.11948024596E+03  0.14679875186E+03  0.81042719404E+02 0.  0.
          5    1    3    3  501    0  0.10796191015E+02  0.72244408639E+02  0.25449260218E+02  0.77495594492E+02  0.47000000000E+01 0. -1.
        -13    1    4    4    0    0 -0.39610995336E+02 -0.48639343159E+02 -0.26141537101E+02  0.67957314665E+02  0.00000000000E+00 0.  1.
         14    1    4    4    0    0 -0.24320213807E+02  0.32769635657E+02 -0.18022117094E+02  0.44610744504E+02  0.00000000000E+00 0. -1.
         -5    1    5    5    0  502  0.73359700727E+02 -0.39129869486E+02  0.33044133089E+03  0.34077317315E+03  0.47000000000E+01 0.  1.
         11    1    6    6    0    0 -0.47745800709E+02 -0.11195695844E+02  0.10319043239E+03  0.11425090997E+03  0.00000000000E+00 0. -1.
        -12    1    6    6    0    0  0.27521118110E+02 -0.60491358071E+01  0.16289813573E+02  0.32547841899E+02  0.00000000000E+00 0.  1.
</event>
<event>
12    1  0.8251070E-002  0.2235544E+03  0.7818608E-02  0.1131330E+00
         21   -1    0    0  501  502  0.00000000000E+00  0.00000000000E+00  0.79017481110E+02  0.79017481110E+02  0.00000000000E+00 0. -1.
         21   -1    0    0  502  503 -0.00000000000E+00 -0.00000000000E+00 -0.15231286211E+04  0.15231286211E+04  0.00000000000E+00 0.  1.
         -6    2    1    2    0  503  0.13923052076E+03 -0.28780236499E+02 -0.13347444883E+04  0.13532734172E+04  0.17202515143E+03 0.  0.
        -24    2    3    3    0    0  0.90139004389E+02 -0.70730578719E+02 -0.11244692839E+04  0.11332562366E+04  0.81918693711E+02 0.  0.
          6    2    1    2  501    0 -0.13923052076E+03  0.28780236499E+02 -0.10936665176E+03  0.24887268508E+03  0.17251987984E+03 0.  0.
         24    2    5    5    0    0 -0.59871819522E+02  0.82755263488E+01 -0.12631608310E+03  0.16504178491E+03  0.87349406457E+02 0.  0.
          5    1    5    5  501    0 -0.79358701239E+02  0.20504710150E+02  0.16949431337E+02  0.83830900170E+02  0.47000000000E+01 0. -1.
        -13    1    6    6    0    0 -0.58202492627E+02 -0.16218592588E+02 -0.33608126369E+02  0.69138115765E+02  0.00000000000E+00 0.  1.
         14    1    6    6    0    0 -0.16693268946E+01  0.24494118937E+02 -0.92707956732E+02  0.95903669149E+02  0.00000000000E+00 0. -1.
         -5    1    3    3    0  503  0.49091516371E+02  0.41950342220E+02 -0.21027520434E+03  0.22001718059E+03  0.47000000000E+01 0.  1.
         11    1    4    4    0    0  0.58267828700E+02 -0.81142187412E+02 -0.65306605360E+03  0.66066214119E+03  0.00000000000E+00 0. -1.
        -12    1    4    4    0    0  0.31871175689E+02  0.10411608692E+02 -0.47140323032E+03  0.47259409539E+03  0.00000000000E+00 0.  1.
</event>
<event>
12    1  0.8251070E-002  0.2364133E+03  0.7818608E-02  0.1122532E+00
         21   -1    0    0  501  502  0.00000000000E+00  0.00000000000E+00  0.98587949683E+02  0.98587949683E+02  0.00000000000E+00 0. -1.
         21   -1    0    0  502  503 -0.00000000000E+00 -0.00000000000E+00 -0.70610050998E+03  0.70610050998E+03  0.00000000000E+00 0. -1.
         -6    2    1    2    0  503 -0.15687386121E+03  0.43387027642E+02 -0.48628069817E+03  0.54070339725E+03  0.17146254369E+03 0.  0.
        -24    2    3    3    0    0 -0.17717305856E+03  0.52714425146E+02 -0.47565949055E+03  0.51552487846E+03  0.73108454081E+02 0.  0.
          6    2    1    2  501    0  0.15687386121E+03 -0.43387027642E+02 -0.12123186213E+03  0.26398506241E+03  0.16881678319E+03 0.  0.
         24    2    5    5    0    0  0.85026090069E+02 -0.23640032400E+02 -0.13722522256E+00  0.12172457203E+03  0.83836540242E+02 0.  0.
          5    1    5    5  501    0  0.71847771136E+02 -0.19746995242E+02 -0.12109463691E+03  0.14226049039E+03  0.47000000000E+01 0. -1.
        -11    1    6    6    0    0 -0.12729029734E+02  0.91380690242E+01 -0.92876149091E+01  0.18215166597E+02  0.00000000000E+00 0.  1.
         12    1    6    6    0    0  0.97755119803E+02 -0.32778101424E+02  0.91503896865E+01  0.10350940543E+03  0.00000000000E+00 0. -1.
         -5    1    3    3    0  503  0.20299197355E+02 -0.93273975039E+01 -0.10621207621E+02  0.25178518796E+02  0.47000000000E+01 0.  1.
         13    1    4    4    0    0 -0.88470534059E+02  0.20891487193E+02 -0.32793505607E+03  0.34030117636E+03  0.00000000000E+00 0. -1.
        -14    1    4    4    0    0 -0.88702524501E+02  0.31822937953E+02 -0.14772443448E+03  0.17522370210E+03  0.00000000000E+00 0.  1.
</event>
<event>
12    1  0.8251070E-002  0.1730633E+03  0.7818608E-02  0.1174938E+00
         21   -1    0    0  501  502  0.00000000000E+00  0.00000000000E+00  0.16068350955E+03  0.16068350955E+03  0.00000000000E+00 0. -1.
         21   -1    0    0  502  503 -0.00000000000E+00 -0.00000000000E+00 -0.22132994032E+03  0.22132994032E+03  0.00000000000E+00 0. -1.
         -6    2    1    2    0  503 -0.15969800594E+02  0.38166711840E+01 -0.10725904145E+03  0.20278272384E+03  0.17130887195E+03 0.  0.
        -24    2    3    3    0    0 -0.29527738144E+02  0.41609776019E+02 -0.12178574268E+03  0.15982633326E+03  0.90052367552E+02 0.  0.
          6    2    1    2  501    0  0.15969800594E+02 -0.38166711840E+01  0.46612610673E+02  0.17923072602E+03  0.17228266357E+03 0.  0.
         24    2    5    5    0    0 -0.26804745932E+01  0.29413415075E+02  0.88522241458E+02  0.12239254739E+03  0.79192262845E+02 0.  0.
          5    1    5    5  501    0  0.18650275188E+02 -0.33230086259E+02 -0.41909630785E+02  0.56838178629E+02  0.47000000000E+01 0. -1.
        -13    1    6    6    0    0 -0.71814687932E+01 -0.81046193590E+01 -0.11304107950E+02  0.15653792049E+02  0.00000000000E+00 0.  1.
         14    1    6    6    0    0  0.45009942000E+01  0.37518034434E+02  0.99826349408E+02  0.10673875535E+03  0.00000000000E+00 0. -1.
         -5    1    3    3    0  503  0.13557937550E+02 -0.37793104835E+02  0.14526701234E+02  0.42956390589E+02  0.47000000000E+01 0.  1.
         11    1    4    4    0    0 -0.57624423190E+02  0.82435472029E+01 -0.55180590308E+02  0.80208651436E+02  0.00000000000E+00 0. -1.
        -12    1    4    4    0    0  0.28096685045E+02  0.33366228816E+02 -0.66605152371E+02  0.79617681820E+02  0.00000000000E+00 0.  1.
</event>
<event>
12    1  0.8251070E-002  0.2180834E+03  0.7818608E-02  0.1135970E+00
         21   -1    0    0  503  502  0.00000000000E+00  0.00000000000E+00  0.27925138324E+03  0.27925138324E+03  0.00000000000E+00 0. -1.
         21   -1    0    0  501  503 -0.00000000000E+00 -0.00000000000E+00 -0.20036287718E+03  0.20036287718E+03  0.00000000000E+00 0. -1.
          6    2    1    2  501    0  0.64490269973E+02 -0.11487306829E+03 -0.57182169727E+02  0.22545550893E+03  0.17379749490E+03 0.  0.
         24    2    3    3    0    0  0.32427703981E+02 -0.14331360628E+03 -0.68877455251E+02  0.18078178015E+03  0.79671842349E+02 0.  0.
         -6    2    1    2    0  502 -0.64490269973E+02  0.11487306829E+03  0.13607067579E+03  0.25415875149E+03  0.16948930766E+03 0.  0.
        -24    2    5    5    0    0 -0.32762740418E+02  0.20809826336E+02  0.53438752286E+01  0.89945122328E+02  0.80963707897E+02 0.  0.
          5    1    3    3  501    0  0.32062565992E+02  0.28440537994E+02  0.11695285524E+02  0.44673728778E+02  0.47000000000E+01 0. -1.
        -13    1    4    4    0    0  0.47931034791E+02 -0.71588944341E+02 -0.63839474091E+02  0.10722797909E+03  0.00000000000E+00 0.  1.
         14    1    4    4    0    0 -0.15503330810E+02 -0.71724661939E+02 -0.50379811604E+01  0.73553801061E+02  0.00000000000E+00 0. -1.
         -5    1    5    5    0  502 -0.31727529556E+02  0.94063241949E+02  0.13072680056E+03  0.16421362916E+03  0.47000000000E+01 0.  1.
         11    1    6    6    0    0 -0.45538447850E+02  0.41024560327E+02 -0.91657688968E+01  0.61973995369E+02  0.00000000000E+00 0. -1.
        -12    1    6    6    0    0  0.12775707432E+02 -0.20214733991E+02  0.14509644125E+02  0.27971126959E+02  0.00000000000E+00 0.  1.
</event>
<event>
12    1  0.8251070E-002  0.1979273E+03  0.7818608E-02  0.1152405E+00
         21   -1    0    0  501  502  0.00000000000E+00  0.00000000000E+00  0.26852104913E+03  0.26852104913E+03  0.00000000000E+00 0.  1.
         21   -1    0    0  502  503 -0.00000000000E+00 -0.00000000000E+00 -0.16144301311E+03  0.16144301311E+03  0.00000000000E+00 0. -1.
         -6    2    1    2    0  503 -0.97936919278E+02 -0.29459549881E+01 -0.18962878389E+02  0.19883357014E+03  0.17197348356E+03 0.  0.
        -24    2    3    3    0    0  0.52970845894E+01  0.25376593636E+02  0.15310054714E+02  0.86334013434E+02  0.80914358989E+02 0.  0.
          6    2    1    2  501    0  0.97936919278E+02  0.29459549881E+01  0.12604091441E+03  0.23113049210E+03  0.16713669096E+03 0.  0.
         24    2    5    5    0    0  0.45535885437E+02 -0.56011580856E+02  0.40349193391E+02  0.11456711693E+03  0.79289046036E+02 0.  0.
          5    1    5    5  501    0  0.52401033840E+02  0.58957535844E+02  0.85691721018E+02  0.11656337517E+03  0.47000000000E+01 0. -1.
        -13    1    6    6    0    0  0.39239887744E+02 -0.64916426290E+02  0.56846086006E+02  0.94791290141E+02  0.00000000000E+00 0.  1.
         14    1    6    6    0    0  0.62959976938E+01  0.89048454342E+01 -0.16496892615E+02  0.19775826787E+02  0.00000000000E+00 0. -1.
         -5    1    3    3    0  503 -0.10323400387E+03 -0.28322548624E+02 -0.34272933103E+02  0.11249955670E+03  0.47000000000E+01 0.  1.
         13    1    4    4    0    0  0.13858992723E+02 -0.14321399022E+01 -0.29953194627E+02  0.33035080934E+02  0.00000000000E+00 0. -1.
        -14    1    4    4    0    0 -0.85619081331E+01  0.26808733538E+02  0.45263249341E+02  0.53298932500E+02  0.00000000000E+00 0.  1.
</event>
<event>
12    1  0.8251070E-002  0.1970448E+03  0.7818608E-02  0.1153170E+00
         21   -1    0    0  503  502  0.00000000000E+00  0.00000000000E+00  0.10707426268E+03  0.10707426268E+03  0.00000000000E+00 0. -1.
         21   -1    0    0  501  503 -0.00000000000E+00 -0.00000000000E+00 -0.61029044686E+03  0.61029044686E+03  0.00000000000E+00 0.  1.
          6    2    1    2  501    0 -0.83882955039E+01 -0.86828085261E+02 -0.48204234066E+03  0.51918553939E+03  0.17198641292E+03 0.  0.
         24    2    3    3    0    0  0.44558449220E+02 -0.10000493881E+03 -0.37351903383E+03  0.39762738305E+03  0.81268837438E+02 0.  0.
         -6    2    1    2    0  502  0.83882955039E+01  0.86828085261E+02 -0.21173843518E+02  0.19817917016E+03  0.17668381913E+03 0.  0.
        -24    2    5    5    0    0 -0.47292718557E+02  0.28661182342E+02  0.33027676940E+02  0.10100068106E+03  0.77796179403E+02 0.  0.
          5    1    3    3  501    0 -0.52946744723E+02  0.13176853544E+02 -0.10852330683E+03  0.12155815633E+03  0.47000000000E+01 0. -1.
        -11    1    4    4    0    0  0.45147557268E+02 -0.11428055622E+02 -0.10470151809E+03  0.11459192935E+03  0.00000000000E+00 0.  1.
         12    1    4    4    0    0 -0.58910804799E+00 -0.88576883183E+02 -0.26881751575E+03  0.28303545371E+03  0.00000000000E+00 0. -1.
         -5    1    5    5    0  502  0.55681014061E+02  0.58166902919E+02 -0.54201520458E+02  0.97178489091E+02  0.47000000000E+01 0.  1.
         13    1    6    6    0    0  0.14273908566E+02  0.29982622183E+02  0.17299989466E+02  0.37443180077E+02  0.00000000000E+00 0. -1.
        -14    1    6    6    0    0 -0.61566627123E+02 -0.13214398409E+01  0.15727687474E+02  0.63557500988E+02  0.00000000000E+00 0.  1.
</event>
<event>
12    1  0.8251070E-002  0.2438044E+03  0.7818608E-02  0.1117391E+00
         21   -1    0    0  501  502  0.00000000000E+00  0.00000000000E+00  0.17846322077E+03  0.17846322077E+03  0.00000000000E+00 0. -1.
         21   -1    0    0  502  503 -0.00000000000E+00 -0.00000000000E+00 -0.35213970480E+03  0.35213970480E+03  0.00000000000E+00 0.  1.
         -6    2    1    2    0  503  0.15535070669E+03  0.73996037090E+02 -0.23563858039E+02  0.24429122033E+03  0.17179548699E+03 0.  0.
        -24    2    3    3    0    0  0.15301587132E+03  0.61477747663E+02  0.33292342610E+02  0.18583716505E+03  0.78953793474E+02 0.  0.
          6    2    1    2  501    0 -0.15535070669E+03 -0.73996037090E+02 -0.15011262599E+03  0.28631170525E+03  0.17271750492E+03 0.  0.
         24    2    5    5    0    0 -0.16016479594E+03 -0.55624591406E+02 -0.63770000825E+02  0.19778021711E+03  0.79394862843E+02 0.  0.
          5    1    5    5  501    0  0.48140892489E+01 -0.18371445684E+02 -0.86342625168E+02  0.88531488142E+02  0.47000000000E+01 0. -1.
        -13    1    6    6    0    0 -0.69102545326E+02  0.14019850739E+02 -0.38688359442E+02  0.80427029919E+02  0.00000000000E+00 0.  1.
         14    1    6    6    0    0 -0.91062250615E+02 -0.69644442145E+02 -0.25081641383E+02  0.11735318719E+03  0.00000000000E+00 0. -1.
         -5    1    3    3    0  503  0.23348353738E+01  0.12518289427E+02 -0.56856200648E+02  0.58454055279E+02  0.47000000000E+01 0.  1.
         11    1    4    4    0    0  0.67175500533E+02  0.64752189667E+02 -0.10901715090E+01  0.93309069293E+02  0.00000000000E+00 0. -1.
        -12    1    4    4    0    0  0.85840370785E+02 -0.32744420041E+01  0.34382514119E+02  0.92528095756E+02  0.00000000000E+00 0.  1.
</event>
<event>
12    1  0.8251070E-002  0.2262789E+03  0.7818608E-02  0.1129289E+00
         21   -1    0    0  501  502  0.00000000000E+00  0.00000000000E+00  0.34834216329E+03  0.34834216329E+03  0.00000000000E+00 0. -1.
         21   -1    0    0  502  503 -0.00000000000E+00 -0.00000000000E+00 -0.28135734479E+03  0.28135734479E+03  0.00000000000E+00 0. -1.
         -6    2    1    2    0  503  0.95690724936E+02  0.11140933000E+03 -0.18409797127E+03  0.29170908561E+03  0.17214346909E+03 0.  0.
        -24    2    3    3    0    0  0.13369660672E+03  0.10382027317E+03 -0.14020461885E+03  0.23296593945E+03  0.77216332647E+02 0.  0.
          6    2    1    2  501    0 -0.95690724936E+02 -0.11140933000E+03  0.25108278978E+03  0.33799042247E+03  0.17212264438E+03 0.  0.
         24    2    5    5    0    0 -0.95912213773E+01 -0.94025820902E+02  0.85044032732E+02  0.15009079569E+03  0.79761600562E+02 0.  0.
          5    1    5    5  501    0 -0.86099503559E+02 -0.17383509102E+02  0.16603875704E+03  0.18789962678E+03  0.47000000000E+01 0. -1.
        -13    1    6    6    0    0 -0.25274612802E+02  0.29183067127E+01  0.16291629868E+02  0.30211583377E+02  0.00000000000E+00 0.  1.
         14    1    6    6    0    0  0.15683391425E+02 -0.96944127615E+02  0.68752402864E+02  0.11987921231E+03  0.00000000000E+00 0. -1.
         -5    1    3    3    0  503 -0.38005881788E+02  0.75890568362E+01 -0.43893352416E+02  0.58743146158E+02  0.47000000000E+01 0.  1.
         11    1    4    4    0    0  0.93208258335E+02  0.47331259622E+02 -0.42006356657E+02  0.11266126912E+03  0.00000000000E+00 0. -1.
        -12    1    4    4    0    0  0.40488348390E+02  0.56489013546E+02 -0.98198262197E+02  0.12030467034E+03  0.00000000000E+00 0.  1.
</event>
<event>
12    1  0.8251070E-002  0.2684452E+03  0.7818608E-02  0.1102327E+00
         21   -1    0    0  501  502  0.00000000000E+00  0.00000000000E+00  0.80410416068E+02  0.80410416068E+02  0.00000000000E+00 0. -1.
         21   -1    0    0  502  503 -0.00000000000E+00 -0.00000000000E+00 -0.11537083509E+04  0.11537083509E+04  0.00000000000E+00 0.  1.
         -6    2    1    2    0  503 -0.12329765123E+03 -0.16385326307E+03 -0.24227329269E+03  0.36081195031E+03  0.17157713284E+03 0.  0.
        -24    2    3    3    0    0 -0.69812144260E+02 -0.15623936278E+03 -0.11052910374E+03  0.21834338445E+03  0.78566384631E+02 0.  0.
          6    2    1    2  501    0  0.12329765123E+03  0.16385326307E+03 -0.83102464218E+03  0.87330681671E+03  0.17324155844E+03 0.  0.
         24    2    5    5    0    0  0.11506732964E+03  0.19202093711E+03 -0.70953871496E+03  0.74823852909E+03  0.79392554748E+02 0.  0.
          5    1    5    5  501    0  0.82303215866E+01 -0.28167674033E+02 -0.12148592723E+03  0.12506828762E+03  0.47000000000E+01 0. -1.
        -13    1    6    6    0    0  0.79777284441E+02  0.69929384785E+02 -0.25303625869E+03  0.27437544020E+03  0.00000000000E+00 0.  1.
         14    1    6    6    0    0  0.35290045199E+02  0.12209155232E+03 -0.45650245627E+03  0.47386308889E+03  0.00000000000E+00 0. -1.
         -5    1    3    3    0  503 -0.53485506967E+02 -0.76139002954E+01 -0.13174418895E+03  0.14246856585E+03  0.47000000000E+01 0.  1.
         11    1    4    4    0    0 -0.60122852392E+02 -0.45564021926E+02 -0.59536564213E+02  0.96101196414E+02  0.00000000000E+00 0. -1.
        -12    1    4    4    0    0 -0.96892918677E+01 -0.11067534085E+03 -0.50992539525E+02  0.12224218804E+03  0.00000000000E+00 0.  1.
</event>
<event>
12    1  0.8251070E-002  0.2097032E+03  0.7818608E-02  0.1141954E+00
         21   -1    0    0  501  502  0.00000000000E+00  0.00000000000E+00  0.34706735727E+03  0.34706735727E+03  0.00000000000E+00 0. -1.
         21   -1    0    0  502  503 -0.00000000000E+00 -0.00000000000E+00 -0.19774679869E+03  0.19774679869E+03  0.00000000000E+00 0. -1.
         -6    2    1    2    0  503  0.19246544739E+02 -0.11629026121E+03 -0.89059791861E+02  0.22783126573E+03  0.17344043583E+03 0.  0.
        -24    2    3    3    0    0  0.70713557623E+02 -0.36928651551E+02 -0.35912690180E+02  0.11923189686E+03  0.81008588282E+02 0.  0.
          6    2    1    2  501    0 -0.19246544739E+02  0.11629026121E+03  0.23838035045E+03  0.31698289023E+03  0.17250828062E+03 0.  0.
         24    2    5    5    0    0  0.10540453746E+02 -0.37546992384E+01  0.71941053659E+02  0.10956498521E+03  0.81876564725E+02 0.  0.
          5    1    5    5  501    0 -0.29786998485E+02  0.12004496045E+03  0.16643929679E+03  0.20741790502E+03  0.47000000000E+01 0. -1.
        -13    1    6    6    0    0 -0.20319549596E+02 -0.31233364200E+02  0.17359961082E+02  0.41106877574E+02  0.00000000000E+00 0.  1.
         14    1    6    6    0    0  0.30860003342E+02  0.27478664962E+02  0.54581092577E+02  0.68458107637E+02  0.00000000000E+00 0. -1.
         -5    1    3    3    0  503 -0.51467012884E+02 -0.79361609656E+02 -0.53147101681E+02  0.10859936887E+03  0.47000000000E+01 0.  1.
         13    1    4    4    0    0  0.48478800932E+02 -0.64337570338E+01 -0.57714081549E+02  0.75647224526E+02  0.00000000000E+00 0. -1.
        -14    1    4    4    0    0  0.22234756691E+02 -0.30494894517E+02  0.21801391369E+02  0.43584672333E+02  0.00000000000E+00 0.  1.
</event>
<event>
12    1  0.8251070E-002  0.2152383E+03  0.7818608E-02  0.1137685E+00
         21   -1    0    0  503  502  0.00000000000E+00  0.00000000000E+00  0.34161449796E+03  0.34161449796E+03  0.00000000000E+00 0. -1.
         21   -1    0    0  501  503 -0.00000000000E+00 -0.00000000000E+00 -0.13495621830E+03  0.13495621830E+03  0.00000000000E+00 0. -1.
          6    2    1    2  501    0 -0.11448272718E+03  0.57177190007E+02  0.10407920876E+03  0.23908158755E+03  0.17306645524E+03 0.  0.
         24    2    3    3    0    0  0.44432644152E+01 -0.34450223273E+01  0.48405757204E+02  0.94374755252E+02  0.80819962392E+02 0.  0.
         -6    2    1    2    0  502  0.11448272718E+03 -0.57177190007E+02  0.10257907091E+03  0.23748912871E+03  0.17176464882E+03 0.  0.
        -24    2    5    5    0    0  0.10095714113E+03 -0.18122723513E+02  0.36482595622E+01  0.13016910138E+03  0.80061899200E+02 0.  0.
          5    1    3    3  501    0 -0.11892599160E+03  0.60622212334E+02  0.55673451552E+02  0.14470683230E+03  0.47000000000E+01 0. -1.
        -11    1    4    4    0    0  0.54302204525E+01  0.20290240369E+02 -0.15560189402E+02  0.26140019943E+02  0.00000000000E+00 0.  1.
         12    1    4    4    0    0 -0.98695603735E+00 -0.23735262697E+02  0.63965946606E+02  0.68234735309E+02  0.00000000000E+00 0. -1.
         -5    1    5    5    0  502  0.13525586049E+02 -0.39054466494E+02  0.98930811351E+02  0.10732002733E+03  0.47000000000E+01 0.  1.
         13    1    6    6    0    0  0.89254693119E+02  0.96583189214E+01  0.25043157103E+02  0.93203235383E+02  0.00000000000E+00 0. -1.
        -14    1    6    6    0    0  0.11702448014E+02 -0.27781042435E+02 -0.21394897541E+02  0.36965865999E+02  0.00000000000E+00 0.  1.
</event>
<event>
12    1  0.8251070E-002  0.2242547E+03  0.7818608E-02  0.1130842E+00
         21   -1    0    0  501  502  0.00000000000E+00  0.00000000000E+00  0.46911289423E+02  0.46911289423E+02  0.00000000000E+00 0. -1.
         21   -1    0    0  502  503 -0.00000000000E+00 -0.00000000000E+00 -0.12514346665E+04  0.12514346665E+04  0.00000000000E+00 0. -1.
         -6    2    1    2    0  503  0.48861273657E+01  0.14318267396E+03 -0.35540024558E+03  0.42023746220E+03  0.17252546975E+03 0.  0.
        -24    2    3    3    0    0  0.16107325205E+02  0.15075351373E+03 -0.19490691491E+03  0.25910573942E+03  0.78492107209E+02 0.  0.
          6    2    1    2  501    0 -0.48861273657E+01 -0.14318267396E+03 -0.84912313148E+03  0.87810849371E+03  0.17186995650E+03 0.  0.
         24    2    5    5    0    0  0.23030583068E+02 -0.16342432607E+03 -0.77097952809E+03  0.79256563923E+03  0.80702798283E+02 0.  0.
          5    1    5    5  501    0 -0.27916710434E+02  0.20241652106E+02 -0.78143603390E+02  0.85542854478E+02  0.47000000000E+01 0. -1.
        -13    1    6    6    0    0  0.90080227107E+01 -0.37650885468E+02 -0.67673042107E+02  0.77963929337E+02  0.00000000000E+00 0.  1.
         14    1    6    6    0    0  0.14022560357E+02 -0.12577344060E+03 -0.70330648598E+03  0.71460170989E+03  0.00000000000E+00 0. -1.
         -5    1    3    3    0  503 -0.11221197839E+02 -0.75708397619E+01 -0.16049333067E+03  0.16113172278E+03  0.47000000000E+01 0.  1.
         11    1    4    4    0    0 -0.30474330360E+02  0.64028804553E+02 -0.98035581703E+02  0.12099317296E+03  0.00000000000E+00 0. -1.
        -12    1    4    4    0    0  0.46581655565E+02  0.86724709172E+02 -0.96871333207E+02  0.13811256646E+03  0.00000000000E+00 0.  1.
</event>
<event>
12    1  0.8251070E-002  0.2762627E+03  0.7818608E-02  0.1097912E+00
         21   -1    0    0  501  502  0.00000000000E+00  0.00000000000E+00  0.37534695420E+03  0.37534695420E+03  0.00000000000E+00 0. -1.
         21   -1    0    0  502  503 -0.00000000000E+00 -0.00000000000E+00 -0.44161877756E+03  0.44161877756E+03  0.00000000000E+00 0. -1.
         -6    2    1    2    0  503 -0.15019559093E+03 -0.15261527778E+03 -0.33370247675E+03  0.43246575119E+03  0.17268220643E+03 0.  0.
        -24    2    3    3    0    0 -0.14788894299E+03 -0.13734942249E+03 -0.34814990238E+03  0.41080507092E+03  0.82561785672E+02 0.  0.
          6    2    1    2  501    0  0.15019559093E+03  0.15261527778E+03  0.26743065338E+03  0.38449998057E+03  0.17455927975E+03 0.  0.
         24    2    5    5    0    0  0.17362870744E+03  0.15739569144E+03  0.22111176761E+03  0.33215981929E+03  0.80742801809E+02 0.  0.
          5    1    5    5  501    0 -0.23433116509E+02 -0.47804136612E+01  0.46318885772E+02  0.52340161284E+02  0.47000000000E+01 0. -1.
        -13    1    6    6    0    0  0.52595767508E+02  0.87869395158E+02  0.58811326870E+02  0.11809368117E+03  0.00000000000E+00 0.  1.
         14    1    6    6    0    0  0.12103293993E+03  0.69526296284E+02  0.16230044074E+03  0.21406613811E+03  0.00000000000E+00 0. -1.
         -5    1    3    3    0  503 -0.23066479427E+01 -0.15265855289E+02  0.14447425629E+02  0.21660680270E+02  0.47000000000E+01 0.  1.
         13    1    4    4    0    0 -0.15399797711E+03 -0.14022333775E+03 -0.34575989217E+03  0.40364323906E+03  0.00000000000E+00 0. -1.
        -14    1    4    4    0    0  0.61090341239E+01  0.28739152606E+01 -0.23900102085E+01  0.71618318640E+01  0.00000000000E+00 0.  1.
</event>
<event>
12    1  0.8251070E-002  0.2662483E+03  0.7818608E-02  0.1103532E+00
         21   -1    0    0  501  502  0.00000000000E+00  0.00000000000E+00  0.48929849728E+03  0.48929849728E+03  0.00000000000E+00 0.  1.
         21   -1    0    0  502  503 -0.00000000000E+00 -0.00000000000E+00 -0.19000483470E+03  0.19000483470E+03  0.00000000000E+00 0. -1.
         -6    2    1    2    0  503  0.30740162304E+01  0.20345363463E+03 -0.16593314282E+02  0.26617774912E+03  0.17079937069E+03 0.  0.
        -24    2    3    3    0    0 -0.50988656599E+02  0.18250366655E+03 -0.16035203930E+02  0.20800494411E+03  0.84270383896E+02 0.  0.
          6    2    1    2  501    0 -0.30740162304E+01 -0.20345363463E+03  0.31588697686E+03  0.41312558285E+03  0.17171294079E+03 0.  0.
         24    2    5    5    0    0  0.52727699981E+02 -0.15735637654E+03  0.17058343047E+03  0.25072484601E+03  0.78886006796E+02 0.  0.
          5    1    5    5  501    0 -0.55801716212E+02 -0.46097258090E+02  0.14530354639E+03  0.16240073685E+03  0.47000000000E+01 0. -1.
        -11    1    6    6    0    0  0.28072706918E+02 -0.90200184970E+02  0.14823272666E+03  0.17577568517E+03  0.00000000000E+00 0.  1.
         12    1    6    6    0    0  0.24654993064E+02 -0.67156191571E+02  0.22350703811E+02  0.74949160837E+02  0.00000000000E+00 0. -1.
         -5    1    3    3    0  503  0.54062672829E+02  0.20949968080E+02 -0.55811035167E+00  0.58172805014E+02  0.47000000000E+01 0.  1.
         13    1    4    4    0    0  0.20166250359E+02  0.47494728849E+02  0.11661340292E+02  0.52900035722E+02  0.00000000000E+00 0. -1.
        -14    1    4    4    0    0 -0.71154906958E+02  0.13500893770E+03 -0.27696544222E+02  0.15510490839E+03  0.00000000000E+00 0.  1.
</event>
<event>
12    1  0.8251070E-002  0.2389813E+03  0.7818608E-02  0.1120514E+00
         21   -1    0    0  501  502  0.00000000000E+00  0.00000000000E+00  0.17650681126E+04  0.17650681126E+04  0.00000000000E+00 0. -1.
         21   -1    0    0  502  503 -0.00000000000E+00 -0.00000000000E+00 -0.83298393460E+02  0.83298393460E+02  0.00000000000E+00 0.  1.
         -6    2    1    2    0  503  0.13089741752E+03  0.10190180152E+03  0.11808805936E+03  0.26656489839E+03  0.17202890520E+03 0.  0.
        -24    2    3    3    0    0  0.10654500123E+03  0.11432105182E+02  0.10099838083E+03  0.17121316402E+03  0.87354131485E+02 0.  0.
          6    2    1    2  501    0 -0.13089741752E+03 -0.10190180152E+03  0.15636816598E+04  0.15818016077E+04  0.17169123978E+03 0.  0.
         24    2    5    5    0    0 -0.12048528276E+02 -0.16274297314E+02  0.28574341805E+03  0.29548696201E+03  0.72479127842E+02 0.  0.
          5    1    5    5  501    0 -0.11884888924E+03 -0.85627504208E+02  0.12779382417E+04  0.12863146456E+04  0.47000000000E+01 0. -1.
        -13    1    6    6    0    0 -0.40945177520E+02 -0.74260004397E+01  0.11998876382E+03  0.12699982869E+03  0.00000000000E+00 0.  1.
         14    1    6    6    0    0  0.28896649244E+02 -0.88482968747E+01  0.16575465423E+03  0.16848713332E+03  0.00000000000E+00 0. -1.
         -5    1    3    3    0  503  0.24352416282E+02  0.90469696340E+02  0.17089678528E+02  0.95351734367E+02  0.47000000000E+01 0.  1.
         11    1    4    4    0    0  0.35122927378E+02  0.42501618755E+02  0.65502567918E+02  0.85618888268E+02  0.00000000000E+00 0. -1.
        -12    1    4    4    0    0  0.71422073856E+02 -0.31069513573E+02  0.35495812909E+02  0.85594275753E+02  0.00000000000E+00 0.  1.
</event>
<event>
12    1  0.8251070E-002  0.2537553E+03  0.7818608E-02  0.1111042E+00
         21   -1    0    0  501  502  0.00000000000E+00  0.00000000000E+00  0.30150684621E+03  0.30150684621E+03  0.00000000000E+00 0. -1.
         21   -1    0    0  502  503 -0.00000000000E+00 -0.00000000000E+00 -0.25242168812E+03  0.25242168812E+03  0.00000000000E+00 0. -1.
         -6    2    1    2    0  503  0.17048711304E+03  0.73059752110E+02 -0.84763725366E+02  0.26753809279E+03  0.17317089497E+03 0.  0.
        -24    2    3    3    0    0  0.14743788737E+03 -0.75721608818E+01 -0.69325384523E+02  0.18213783187E+03  0.81073501259E+02 0.  0.
          6    2    1    2  501    0 -0.17048711304E+03 -0.73059752110E+02  0.13384888346E+03  0.28639044154E+03  0.17233797699E+03 0.  0.
         24    2    5    5    0    0 -0.67974166068E+02 -0.89417584990E+02  0.11802018329E+03  0.18127564362E+03  0.79473917401E+02 0.  0.
          5    1    5    5  501    0 -0.10251294697E+03  0.16357832880E+02  0.15828700166E+02  0.10511479792E+03  0.47000000000E+01 0. -1.
        -11    1    6    6    0    0  0.40506150873E+01 -0.33724680598E+02  0.23166550648E+01  0.34045975602E+02  0.00000000000E+00 0.  1.
         12    1    6    6    0    0 -0.72024781155E+02 -0.55692904392E+02  0.11570352823E+03  0.14722966802E+03  0.00000000000E+00 0. -1.
         -5    1    3    3    0  503  0.23049225667E+02  0.80631912992E+02 -0.15438340843E+02  0.85400260916E+02  0.47000000000E+01 0.  1.
         13    1    4    4    0    0  0.21109361853E+02  0.29457139631E+02 -0.90595008818E+01  0.37355090541E+02  0.00000000000E+00 0. -1.
        -14    1    4    4    0    0  0.12632852552E+03 -0.37029300513E+02 -0.60265883641E+02  0.14478274133E+03  0.00000000000E+00 0.  1.
</event>
<event>
12    1  0.8251070E-002  0.2236879E+03  0.7818608E-02  0.1131231E+00
         21   -1    0    0  501  502  0.00000000000E+00  0.00000000000E+00  0.10055892102E+03  0.10055892102E+03  0.00000000000E+00 0. -1.
         21   -1    0    0  502  503 -0.00000000000E+00 -0.00000000000E+00 -0.77081855464E+03  0.77081855464E+03  0.00000000000E+00 0.  1.
         -6    2    1    2    0  503  0.50612712717E+02  0.13302809305E+03 -0.75516372465E+02  0.23609106266E+03  0.17256345827E+03 0.  0.
        -24    2    3    3    0    0  0.56067805472E+02  0.91510992870E+01 -0.13056968922E+02  0.97171896556E+02  0.77746714492E+02 0.  0.
          6    2    1    2  501    0 -0.50612712717E+02 -0.13302809305E+03 -0.59474326116E+03  0.63528641301E+03  0.17207893429E+03 0.  0.
         24    2    5    5    0    0 -0.92274204764E+02 -0.53313203023E+02 -0.35177919895E+03  0.37616526540E+03  0.79967966079E+02 0.  0.
          5    1    5    5  501    0  0.41661492047E+02 -0.79714890023E+02 -0.24296406220E+03  0.25912114760E+03  0.47000000000E+01 0. -1.
        -11    1    6    6    0    0 -0.66437844297E+02 -0.74266659972E+02 -0.25195412656E+03  0.27094354731E+03  0.00000000000E+00 0.  1.
         12    1    6    6    0    0 -0.25836360467E+02  0.20953456949E+02 -0.99825072397E+02  0.10522171810E+03  0.00000000000E+00 0. -1.
         -5    1    3    3    0  503 -0.54550927551E+01  0.12387699376E+03 -0.62459403543E+02  0.13891916610E+03  0.47000000000E+01 0.  1.
         13    1    4    4    0    0  0.46563630802E+02  0.40021445285E+02  0.22232720084E+01  0.61439651160E+02  0.00000000000E+00 0. -1.
        -14    1    4    4    0    0  0.95041746696E+01 -0.30870345998E+02 -0.15280240930E+02  0.35732245397E+02  0.00000000000E+00 0.  1.
</event>
<event>
12    1  0.8251070E-002  0.2311528E+03  0.7818608E-02  0.1125989E+00
         21   -1    0    0  501  502  0.00000000000E+00  0.00000000000E+00  0.65693174601E+03  0.65693174601E+03  0.00000000000E+00 0.  1.
         21   -1    0    0  502  503 -0.00000000000E+00 -0.00000000000E+00 -0.81112860083E+02  0.81112860083E+02  0.00000000000E+00 0.  1.
         -6    2    1    2    0  503 -0.10883617678E+03  0.10844671260E+03  0.27477107029E+03  0.35849041313E+03  0.17149411765E+03 0.  0.
        -24    2    3    3    0    0 -0.92120979793E+01  0.97955417028E+02  0.11675099139E+03  0.17133416906E+03  0.77746234772E+02 0.  0.
          6    2    1    2  501    0  0.10883617678E+03 -0.10844671260E+03  0.30104781564E+03  0.37955419297E+03  0.17270088375E+03 0.  0.
         24    2    5    5    0    0  0.55406104279E+02 -0.40750849005E+02  0.26927474621E+03  0.28752636817E+03  0.73702478685E+02 0.  0.
          5    1    5    5  501    0  0.53430072503E+02 -0.67695863591E+02  0.31773069432E+02  0.92027824793E+02  0.47000000000E+01 0. -1.
        -13    1    6    6    0    0  0.73510558326E+02 -0.36176652560E+02  0.21179931491E+03  0.22709359782E+03  0.00000000000E+00 0.  1.
         14    1    6    6    0    0 -0.18104454047E+02 -0.45741964444E+01  0.57475431300E+02  0.60432770353E+02  0.00000000000E+00 0. -1.
         -5    1    3    3    0  503 -0.99624078803E+02  0.10491295568E+02  0.15802007889E+03  0.18715624407E+03  0.47000000000E+01 0.  1.
         13    1    4    4    0    0 -0.10418141315E+00 -0.13473094019E+02  0.15012887807E+02  0.20172305682E+02  0.00000000000E+00 0. -1.
        -14    1    4    4    0    0 -0.91079165662E+01  0.11142851105E+03  0.10173810359E+03  0.15116186338E+03  0.00000000000E+00 0.  1.
</event>
<event>
12    1  0.8251070E-002  0.1757725E+03  0.7818608E-02  0.1172463E+00
         21   -1    0    0  503  502  0.00000000000E+00  0.00000000000E+00  0.82871158209E+03  0.82871158209E+03  0.00000000000E+00 0.  1.
         21   -1    0    0  501  503 -0.00000000000E+00 -0.00000000000E+00 -0.53439569208E+02  0.53439569208E+02  0.00000000000E+00 0.  1.
          6    2    1    2  501    0 -0.28103139261E+02  0.24206576485E+01  0.14039636279E+03  0.22339243322E+03  0.17145668407E+03 0.  0.
         24    2    3    3    0    0 -0.61555500813E+01  0.65085484933E+02  0.10609987381E+03  0.14851308756E+03  0.80777118092E+02 0.  0.
         -6    2    1    2    0  502  0.28103139261E+02 -0.24206576485E+01  0.63487565009E+03  0.65875871808E+03  0.17349441362E+03 0.  0.
        -24    2    5    5    0    0  0.50377074440E+02 -0.45520881819E+02  0.25499820717E+03  0.27576691771E+03  0.80083125157E+02 0.  0.
          5    1    3    3  501    0 -0.21947589180E+02 -0.62664827285E+02  0.34296488980E+02  0.74879345656E+02  0.47000000000E+01 0. -1.
        -11    1    4    4    0    0 -0.30568410566E+02  0.59374144777E+02  0.40062306437E+02  0.77876217099E+02  0.00000000000E+00 0.  1.
         12    1    4    4    0    0  0.24412860485E+02  0.57113401557E+01  0.66037567377E+02  0.70636870461E+02  0.00000000000E+00 0. -1.
         -5    1    5    5    0  502 -0.22273935179E+02  0.43100224170E+02  0.37987744292E+03  0.38299180037E+03  0.47000000000E+01 0.  1.
         13    1    6    6    0    0  0.29000702087E+01  0.11419824251E+02  0.17764147839E+01  0.11915470726E+02  0.00000000000E+00 0. -1.
        -14    1    6    6    0    0  0.47477004232E+02 -0.56940706070E+02  0.25322179239E+03  0.26385144699E+03  0.00000000000E+00 0.  1.
</event>
<event>
12    1  0.8251070E-002  0.1853645E+03  0.7818608E-02  0.1163337E+00
         21   -1    0    0  503  502  0.00000000000E+00  0.00000000000E+00  0.95321063835E+02  0.95321063835E+02  0.00000000000E+00 0. -1.
         21   -1    0    0  501  503 -0.00000000000E+00 -0.00000000000E+00 -0.37038593266E+03  0.37038593266E+03  0.00000000000E+00 0. -1.
          6    2    1    2  501    0  0.28867799828E+01 -0.68864747600E+02 -0.89567034041E+02  0.20346768501E+03  0.16919266621E+03 0.  0.
         24    2    3    3    0    0  0.54929192172E+02 -0.77865363464E+02 -0.52499988787E+02  0.13877240237E+03  0.86146966619E+02 0.  0.
         -6    2    1    2    0  502 -0.28867799828E+01  0.68864747600E+02 -0.18549783479E+03  0.26223931148E+03  0.17207359709E+03 0.  0.
        -24    2    5    5    0    0 -0.35744372842E+02 -0.10866699200E+02 -0.45922554280E+02  0.98104994699E+02  0.78230196548E+02 0.  0.
          5    1    3    3  501    0 -0.52042412189E+02  0.90006158634E+01 -0.37067045254E+02  0.64695282642E+02  0.47000000000E+01 0. -1.
        -13    1    4    4    0    0  0.22715441283E+02  0.60338992748E+00  0.17591128696E+02  0.28736791068E+02  0.00000000000E+00 0.  1.
         14    1    4    4    0    0  0.32213750889E+02 -0.78468753391E+02 -0.70091117483E+02  0.11003561130E+03  0.00000000000E+00 0. -1.
         -5    1    5    5    0  502  0.32857592859E+02  0.79731446800E+02 -0.13957528051E+03  0.16413431678E+03  0.47000000000E+01 0.  1.
         13    1    6    6    0    0 -0.22020998447E+02  0.31784690368E+02 -0.34608985966E+02  0.51893861140E+02  0.00000000000E+00 0. -1.
        -14    1    6    6    0    0 -0.13723374394E+02 -0.42651389568E+02 -0.11313568314E+02  0.46211133560E+02  0.00000000000E+00 0.  1.
</event>
<event>
12    1  0.8251070E-002  0.1841394E+03  0.7818608E-02  0.1163883E+00
         21   -1    0    0  501  502  0.00000000000E+00  0.00000000000E+00  0.25208998629E+03  0.25208998629E+03  0.00000000000E+00 0. -1.
         21   -1    0    0  502  503 -0.00000000000E+00 -0.00000000000E+00 -0.37862932694E+03  0.37862932694E+03  0.00000000000E+00 0.  1.
         -6    2    1    2    0  503  0.54775113488E+01  0.64843563316E+02 -0.31653031398E+03  0.36613686034E+03  0.17213387231E+03 0.  0.
        -24    2    3    3    0    0  0.26795415071E+02  0.90207634211E+02 -0.13969256516E+03  0.18616056045E+03  0.79286379469E+02 0.  0.
          6    2    1    2  501    0 -0.54775113488E+01 -0.64843563316E+02  0.18999097333E+03  0.26458245290E+03  0.17225740506E+03 0.  0.
         24    2    5    5    0    0 -0.44128978688E+02 -0.45623845894E+02  0.19541891768E+03  0.22082304197E+03  0.80903401678E+02 0.  0.
          5    1    5    5  501    0  0.38651467339E+02 -0.19219717422E+02 -0.54279443413E+01  0.43759410931E+02  0.47000000000E+01 0. -1.
        -11    1    6    6    0    0 -0.52255119864E+02 -0.55102509145E+02  0.10520715495E+03  0.12975141432E+03  0.00000000000E+00 0.  1.
         12    1    6    6    0    0  0.81261411757E+01  0.94786632510E+01  0.90211762724E+02  0.91071627641E+02  0.00000000000E+00 0. -1.
         -5    1    3    3    0  503 -0.21317903722E+02 -0.25364070895E+02 -0.17683774883E+03  0.17997629989E+03  0.47000000000E+01 0.  1.
         11    1    4    4    0    0  0.18723042833E+02  0.51381940043E+02 -0.13569892777E+03  0.14630398181E+03  0.00000000000E+00 0. -1.
        -12    1    4    4    0    0  0.80723722378E+01  0.38825694168E+02 -0.39936373807E+01  0.39856578637E+02  0.00000000000E+00 0.  1.
</event>
<event>
12    1  0.8251070E-002  0.2094574E+03  0.7818608E-02  0.1141997E+00
         21   -1    0    0  503  502  0.00000000000E+00  0.00000000000E+00  0.23794200961E+03  0.23794200961E+03  0.00000000000E+00 0. -1.
         21   -1    0    0  501  503 -0.00000000000E+00 -0.00000000000E+00 -0.24235350565E+03  0.24235350565E+03  0.00000000000E+00 0. -1.
          6    2    1    2  501    0 -0.51646551917E+02 -0.10699803394E+03  0.11524748849E+03  0.23906803803E+03  0.17249810901E+03 0.  0.
         24    2    3    3    0    0 -0.77999101889E+02 -0.61984323947E+02  0.18712935570E+02  0.12924226289E+03  0.80171517688E+02 0.  0.
         -6    2    1    2    0  502  0.51646551917E+02  0.10699803394E+03 -0.11965898454E+03  0.24122747723E+03  0.17250065970E+03 0.  0.
        -24    2    5    5    0    0  0.86045506451E+02  0.97726917689E+02 -0.46157400701E+02  0.15941174221E+03  0.79543813676E+02 0.  0.
          5    1    3    3  501    0  0.26352549972E+02 -0.45013709994E+02  0.96534552922E+02  0.10982577514E+03  0.47000000000E+01 0. -1.
        -13    1    4    4    0    0 -0.68739667728E+02 -0.47786352212E+01  0.20178763834E+01  0.68935107884E+02  0.00000000000E+00 0.  1.
         14    1    4    4    0    0 -0.92594341612E+01 -0.57205688726E+02  0.16695059187E+02  0.60307155005E+02  0.00000000000E+00 0. -1.
         -5    1    5    5    0  502 -0.34398954534E+02  0.92711162524E+01 -0.73501583837E+02  0.81815735016E+02  0.47000000000E+01 0.  1.
         11    1    6    6    0    0 -0.12426785673E+02  0.19429322683E+02  0.50040875155E+01  0.23600094787E+02  0.00000000000E+00 0. -1.
        -12    1    6    6    0    0  0.98472292123E+02  0.78297595006E+02 -0.51161488217E+02  0.13581164742E+03  0.00000000000E+00 0.  1.
</event>
<event>
12    1  0.8251070E-002  0.1771684E+03  0.7818608E-02  0.1171042E+00
         21   -1    0    0  503  502  0.00000000000E+00  0.00000000000E+00  0.31152302112E+03  0.31152302112E+03  0.00000000000E+00 0. -1.
         21   -1    0    0  501  503 -0.00000000000E+00 -0.00000000000E+00 -0.39621778471E+03  0.39621778471E+03  0.00000000000E+00 0. -1.
          6    2    1    2  501    0 -0.36944485978E+02 -0.17835108978E+02 -0.34853887037E+03  0.39098336598E+03  0.17235330621E+03 0.  0.
         24    2    3    3    0    0 -0.84505852482E+01 -0.72820796581E+01 -0.59368500191E+02  0.10018298463E+03  0.79922277991E+02 0.  0.
         -6    2    1    2    0  502  0.36944485978E+02  0.17835108978E+02  0.26384410678E+03  0.31675743984E+03  0.17040709156E+03 0.  0.
        -24    2    5    5    0    0  0.72089312300E+02  0.18006456870E+02  0.25804614367E+03  0.28082841879E+03  0.82192986935E+02 0.  0.
          5    1    3    3  501    0 -0.28493900729E+02 -0.10553029320E+02 -0.28917037018E+03  0.29080038135E+03  0.47000000000E+01 0. -1.
        -13    1    4    4    0    0 -0.25764209745E+02  0.11988989605E+02  0.67178159370E+01  0.29200332643E+02  0.00000000000E+00 0.  1.
         14    1    4    4    0    0  0.17313624497E+02 -0.19271069263E+02 -0.66086316128E+02  0.70982651987E+02  0.00000000000E+00 0. -1.
         -5    1    5    5    0  502 -0.35144826322E+02 -0.17134789202E+00  0.57979631103E+01  0.35929021049E+02  0.47000000000E+01 0.  1.
         11    1    6    6    0    0  0.26174263106E+02  0.48896496612E+02  0.12958999627E+03  0.14095930818E+03  0.00000000000E+00 0. -1.
        -12    1    6    6    0    0  0.45915049194E+02 -0.30890039742E+02  0.12845614740E+03  0.13986911061E+03  0.00000000000E+00 0.  1.
</event>
<event>
12    1  0.8251070E-002  0.1824365E+03  0.7818608E-02  0.1166360E+00
         21   -1    0    0  501  502  0.00000000000E+00  0.00000000000E+00  0.52241768220E+02  0.52241768220E+02  0.00000000000E+00 0.  1.
         21   -1    0    0  502  503 -0.00000000000E+00 -0.00000000000E+00 -0.10023116711E+04  0.10023116711E+04  0.00000000000E+00 0.  1.
         -6    2    1    2    0  503 -0.41044070804E+02 -0.30636270490E+02 -0.79584138529E+03  0.81566120574E+03  0.17122060389E+03 0.  0.
        -24    2    3    3    0    0 -0.51169159307E+02  0.21619494143E+02 -0.27529155750E+03  0.29237601050E+03  0.81317922320E+02 0.  0.
          6    2    1    2  501    0  0.41044070804E+02  0.30636270490E+02 -0.15422851762E+03  0.23889223360E+03  0.17509959112E+03 0.  0.
         24    2    5    5    0    0  0.18648543639E+02 -0.31796441699E+02 -0.20863331442E+02  0.89869530394E+02  0.79262046465E+02 0.  0.
          5    1    5    5  501    0  0.22395527165E+02  0.62432712189E+02 -0.13336518617E+03  0.14902270321E+03  0.47000000000E+01 0. -1.
        -13    1    6    6    0    0 -0.15065335285E+02 -0.53834187156E+01  0.23355842860E+02  0.28309731896E+02  0.00000000000E+00 0.  1.
         14    1    6    6    0    0  0.33713878924E+02 -0.26413022983E+02 -0.44219174301E+02  0.61559798498E+02  0.00000000000E+00 0. -1.
         -5    1    3    3    0  503  0.10125088503E+02 -0.52255764633E+02 -0.52054982779E+03  0.52328519525E+03  0.47000000000E+01 0.  1.
         11    1    4    4    0    0 -0.53935493338E+02  0.38248340303E+02 -0.26383450145E+03  0.27199378142E+03  0.00000000000E+00 0. -1.
        -12    1    4    4    0    0  0.27663340311E+01 -0.16628846159E+02 -0.11457056049E+02  0.20382229070E+02  0.00000000000E+00 0.  1.
</event>
<event>
12    1  0.8251070E-002  0.1811034E+03  0.7818608E-02  0.1166943E+00
         21   -1    0    0  503  502  0.00000000000E+00  0.00000000000E+00  0.72466692508E+03  0.72466692508E+03  0.00000000000E+00 0. -1.
         21   -1    0    0  501  503 -0.00000000000E+00 -0.00000000000E+00 -0.46576278198E+02  0.46576278198E+02  0.00000000000E+00 0. -1.
          6    2    1    2  501    0  0.20820085322E+02 -0.49959610392E+02  0.26845789921E+03  0.32336215051E+03  0.17194184513E+03 0.  0.
         24    2    3    3    0    0 -0.18243817730E+02 -0.60739913997E+01  0.24777885190E+03  0.26089896876E+03  0.79398880316E+02 0.  0.
         -6    2    1    2    0  502 -0.20820085322E+02  0.49959610392E+02  0.40963274767E+03  0.44788105277E+03  0.17282653397E+03 0.  0.
        -24    2    5    5    0    0 -0.49777334553E+02  0.72529325943E+01  0.12003002479E+03  0.15368008454E+03  0.81731104640E+02 0.  0.
          5    1    3    3  501    0  0.39063903053E+02 -0.43885618992E+02  0.20679047314E+02  0.62463181746E+02  0.47000000000E+01 0. -1.
        -13    1    4    4    0    0 -0.48523872398E+02  0.29683653233E+01  0.12506256423E+03  0.13417906825E+03  0.00000000000E+00 0.  1.
         14    1    4    4    0    0  0.30280054668E+02 -0.90423567230E+01  0.12271628767E+03  0.12671990051E+03  0.00000000000E+00 0. -1.
         -5    1    5    5    0  502  0.28957249231E+02  0.42706677797E+02  0.28960272288E+03  0.29420096823E+03  0.47000000000E+01 0.  1.
         13    1    6    6    0    0 -0.22056994551E+02  0.40130031692E+02  0.90767654876E+02  0.10166463310E+03  0.00000000000E+00 0. -1.
        -14    1    6    6    0    0 -0.27720340002E+02 -0.32877099098E+02  0.29262369916E+02  0.52015451435E+02  0.00000000000E+00 0.  1.
</event>
<event>
12    1  0.8251070E-002  0.1778274E+03  0.7818608E-02  0.1170046E+00
         21   -1    0    0  501  502  0.00000000000E+00  0.00000000000E+00  0.13171807223E+03  0.13171807223E+03  0.00000000000E+00 0.  1.
         21   -1    0    0  502  503 -0.00000000000E+00 -0.00000000000E+00 -0.29880397674E+03  0.29880397674E+03  0.00000000000E+00 0.  1.
         -6    2    1    2    0  503  0.23867609971E+02  0.36312699119E+02 -0.17942779422E+03  0.25226683899E+03  0.17191843936E+03 0.  0.
        -24    2    3    3    0    0 -0.18873849270E+02 -0.35928244550E+02 -0.11384725132E+03  0.14564374634E+03  0.81264034295E+02 0.  0.
          6    2    1    2  501    0 -0.23867609971E+02 -0.36312699119E+02  0.12341889707E+02  0.17825520998E+03  0.17243643095E+03 0.  0.
         24    2    5    5    0    0  0.19060842469E+01  0.49633723439E+01 -0.53634359505E+02  0.96139725147E+02  0.79611142497E+02 0.  0.
          5    1    5    5  501    0 -0.25773694218E+02 -0.41276071463E+02  0.65976249212E+02  0.82115484832E+02  0.47000000000E+01 0. -1.
        -13    1    6    6    0    0  0.39074974129E+02 -0.71936585740E+01 -0.34421619520E+02  0.52568528772E+02  0.00000000000E+00 0.  1.
         14    1    6    6    0    0 -0.37168889882E+02  0.12157030918E+02 -0.19212739985E+02  0.43571196375E+02  0.00000000000E+00 0. -1.
         -5    1    3    3    0  503  0.42741459242E+02  0.72240943670E+02 -0.65580542898E+02  0.10662309265E+03  0.47000000000E+01 0.  1.
         11    1    4    4    0    0  0.31486856620E+02 -0.13518643550E+02 -0.31463277164E+02  0.46520035180E+02  0.00000000000E+00 0. -1.
        -12    1    4    4    0    0 -0.50360705891E+02 -0.22409601001E+02 -0.82383974160E+02  0.99123711155E+02  0.00000000000E+00 0.  1.
</event>
<event>
12    1  0.8251070E-002  0.1956010E+03  0.7818608E-02  0.1153547E+00
         21   -1    0    0  501  502  0.00000000000E+00  0.00000000000E+00  0.38433791582E+03  0.38433791582E+03  0.00000000000E+00 0.  1.
         21   -1    0    0  502  503 -0.00000000000E+00 -0.00000000000E+00 -0.11575349017E+03  0.11575349017E+03  0.00000000000E+00 0.  1.
         -6    2    1    2    0  503  0.61540510270E+02 -0.72197914095E+02  0.40388581781E+02  0.19953672996E+03  0.17083294723E+03 0.  0.
        -24    2    3    3    0    0  0.78934274357E+02 -0.66884605420E+02  0.81031442843E+02  0.15476278180E+03  0.81738936811E+02 0.  0.
          6    2    1    2  501    0 -0.61540510270E+02  0.72197914095E+02  0.22819584387E+03  0.30055467603E+03  0.17105553753E+03 0.  0.
         24    2    5    5    0    0 -0.49860992952E+02 -0.29487488267E+01  0.49737251272E+02  0.10651088884E+03  0.79849618282E+02 0.  0.
          5    1    5    5  501    0 -0.11679517317E+02  0.75146662922E+02  0.17845859260E+03  0.19404378719E+03  0.47000000000E+01 0. -1.
        -13    1    6    6    0    0 -0.71665292000E+02 -0.38222405379E+01  0.32902048291E+02  0.78949783926E+02  0.00000000000E+00 0.  1.
         14    1    6    6    0    0  0.21804299048E+02  0.87349171126E+00  0.16835202981E+02  0.27561104915E+02  0.00000000000E+00 0. -1.
         -5    1    3    3    0  503 -0.17393764087E+02 -0.53133086750E+01 -0.40642861062E+02  0.44773948156E+02  0.47000000000E+01 0.  1.
         13    1    4    4    0    0  0.29276575217E+02 -0.38174092994E+02 -0.80843831777E+01  0.48782542817E+02  0.00000000000E+00 0. -1.
        -14    1    4    4    0    0  0.49657699140E+02 -0.28710512426E+02  0.89115826021E+02  0.10598023898E+03  0.00000000000E+00 0.  1.
</event>
<event>
12    1  0.8251070E-002  0.2883031E+03  0.7818608E-02  0.1091568E+00
         21   -1    0    0  503  502  0.00000000000E+00  0.00000000000E+00  0.45565170923E+03  0.45565170923E+03  0.00000000000E+00 0. -1.
         21   -1    0    0  501  503 -0.00000000000E+00 -0.00000000000E+00 -0.21318791760E+03  0.21318791760E+03  0.00000000000E+00 0. -1.
          6    2    1    2  501    0 -0.97875091743E+02  0.20685310968E+03 -0.94712706692E+01  0.28596897288E+03  0.17123319162E+03 0.  0.
         24    2    3    3    0    0 -0.13990778210E+02  0.27133392984E+02 -0.13092622705E+02  0.87547807637E+02  0.81001475066E+02 0.  0.
         -6    2    1    2    0  502  0.97875091743E+02 -0.20685310968E+03  0.25193506231E+03  0.38287065396E+03  0.17535940088E+03 0.  0.
        -24    2    5    5    0    0  0.54060811826E+02 -0.22095748415E+03  0.22394083045E+03  0.32879301051E+03  0.78807150934E+02 0.  0.
          5    1    3    3  501    0 -0.83884313533E+02  0.17971971669E+03  0.36213520358E+01  0.19842116524E+03  0.47000000000E+01 0. -1.
        -13    1    4    4    0    0 -0.18579603360E+02 -0.19280162823E+02 -0.27845520513E+02  0.38630290604E+02  0.00000000000E+00 0.  1.
         14    1    4    4    0    0  0.45888251500E+01  0.46413555807E+02  0.14752897808E+02  0.48917517033E+02  0.00000000000E+00 0. -1.
         -5    1    5    5    0  502  0.43814279917E+02  0.14104374473E+02  0.27994231854E+02  0.54077643449E+02  0.47000000000E+01 0.  1.
         13    1    6    6    0    0  0.62836332375E+02 -0.14228396819E+03  0.11191177764E+03  0.19161779209E+03  0.00000000000E+00 0. -1.
        -14    1    6    6    0    0 -0.87755205491E+01 -0.78673515955E+02  0.11202905281E+03  0.13717521842E+03  0.00000000000E+00 0.  1.
</event>
<event>
12    1  0.8251070E-002  0.1778936E+03  0.7818608E-02  0.1170262E+00
         21   -1    0    0  501  502  0.00000000000E+00  0.00000000000E+00  0.45618299673E+02  0.45618299673E+02  0.00000000000E+00 0.  1.
         21   -1    0    0  502  503 -0.00000000000E+00 -0.00000000000E+00 -0.14974419531E+04  0.14974419531E+04  0.00000000000E+00 0.  1.
         -6    2    1    2    0  503  0.33345903641E+02 -0.25639166686E+02 -0.12949234824E+04  0.13070856688E+04  0.17284907954E+03 0.  0.
        -24    2    3    3    0    0 -0.17729628585E+00  0.43124187280E+02 -0.46511071286E+03  0.47374088651E+03  0.79010919277E+02 0.  0.
          6    2    1    2  501    0 -0.33345903641E+02  0.25639166686E+02 -0.15690017109E+03  0.23597458398E+03  0.17116373576E+03 0.  0.
         24    2    5    5    0    0 -0.71555598313E+02  0.60696159261E+02 -0.93807051692E+02  0.15417112922E+03  0.78515901183E+02 0.  0.
          5    1    5    5  501    0  0.38209694673E+02 -0.35056992575E+02 -0.63093119398E+02  0.81803454761E+02  0.47000000000E+01 0. -1.
        -11    1    6    6    0    0 -0.33612854509E+02  0.11127692359E+02  0.65269360818E+01  0.36003477888E+02  0.00000000000E+00 0.  1.
         12    1    6    6    0    0 -0.37942743805E+02  0.49568466903E+02 -0.10033398777E+03  0.11816765133E+03  0.00000000000E+00 0. -1.
         -5    1    3    3    0  503  0.33523199927E+02 -0.68763353966E+02 -0.82981276951E+03  0.83334478232E+03  0.47000000000E+01 0.  1.
         13    1    4    4    0    0 -0.23845346028E+02 -0.11532315039E+02 -0.21553678649E+03  0.21715823988E+03  0.00000000000E+00 0. -1.
        -14    1    4    4    0    0  0.23668049742E+02  0.54656502319E+02 -0.24957392637E+03  0.25658264663E+03  0.00000000000E+00 0.  1.
</event>
<event>
12    1  0.8251070E-002  0.1995300E+03  0.7818608E-02  0.1150492E+00
         21   -1    0    0  501  502  0.00000000000E+00  0.00000000000E+00  0.56269068484E+02  0.56269068484E+02  0.00000000000E+00 0.  1.
         21   -1    0    0  502  503 -0.00000000000E+00 -0.00000000000E+00 -0.71840998692E+03  0.71840998692E+03  0.00000000000E+00 0.  1.
         -6    2    1    2    0  503  0.34941503363E+02  0.94828114017E+02 -0.38895304366E+03  0.43638355182E+03  0.17009660273E+03 0.  0.
        -24    2    3    3    0    0  0.44716211648E+02 -0.54069237992E+01 -0.23747833180E+03  0.25442397922E+03  0.79415544556E+02 0.  0.
          6    2    1    2  501    0 -0.34941503363E+02 -0.94828114017E+02 -0.27318787477E+03  0.33829550358E+03  0.17204346240E+03 0.  0.
         24    2    5    5    0    0 -0.51870094161E+02 -0.72833012499E+01 -0.20311835006E+03  0.22479440349E+03  0.80820211358E+02 0.  0.
          5    1    5    5  501    0  0.16928590797E+02 -0.87544812767E+02 -0.70069524715E+02  0.11350110009E+03  0.47000000000E+01 0. -1.
        -11    1    6    6    0    0 -0.38908414331E+02 -0.10091534045E+02 -0.27561840237E+02  0.48737652820E+02  0.00000000000E+00 0.  1.
         12    1    6    6    0    0 -0.12961679830E+02  0.28082327949E+01 -0.17555650982E+03  0.17605675067E+03  0.00000000000E+00 0. -1.
         -5    1    3    3    0  503 -0.97747082844E+01  0.10023503782E+03 -0.15147471186E+03  0.18195957260E+03  0.47000000000E+01 0.  1.
         13    1    4    4    0    0 -0.10579894998E+02 -0.19934551485E+02 -0.22101354583E+02  0.31587820366E+02  0.00000000000E+00 0. -1.
        -14    1    4    4    0    0  0.55296106646E+02  0.14527627686E+02 -0.21537697722E+03  0.22283615885E+03  0.00000000000E+00 0.  1.
</event>
<event>
12    1  0.8251070E-002  0.1727669E+03  0.7818608E-02  0.1175098E+00
         21   -1    0    0  503  502  0.00000000000E+00  0.00000000000E+00  0.17432069211E+04  0.17432069211E+04  0.00000000000E+00 0. -1.
         21   -1    0    0  501  503 -0.00000000000E+00 -0.00000000000E+00 -0.45555234510E+02  0.45555234510E+02  0.00000000000E+00 0. -1.
          6    2    1    2  501    0  0.72326487695E+01 -0.17055265281E+02  0.14211901226E+03  0.22371014452E+03  0.17177084104E+03 0.  0.
         24    2    3    3    0    0  0.24788452195E+02 -0.74157677594E+02  0.10852303412E+03  0.15501027936E+03  0.78339704261E+02 0.  0.
         -6    2    1    2    0  502 -0.72326487695E+01  0.17055265281E+02  0.15555326743E+04  0.15650520111E+04  0.17135548788E+03 0.  0.
        -24    2    5    5    0    0 -0.18617031791E+02 -0.90308884296E+01  0.14983335244E+04  0.15009901320E+04  0.86832455806E+02 0.  0.
          5    1    3    3  501    0 -0.17555803425E+02  0.57102412313E+02  0.33595978136E+02  0.68699865158E+02  0.47000000000E+01 0. -1.
        -13    1    4    4    0    0  0.51330505784E+02 -0.47696424631E+02  0.87290388782E+02  0.11193472080E+03  0.00000000000E+00 0.  1.
         14    1    4    4    0    0 -0.26542053589E+02 -0.26461252963E+02  0.21232645338E+02  0.43075558559E+02  0.00000000000E+00 0. -1.
         -5    1    5    5    0  502  0.11384383022E+02  0.26086153711E+02  0.57199149932E+02  0.64061879032E+02  0.47000000000E+01 0.  1.
         11    1    6    6    0    0 -0.52411944260E+02 -0.24818769080E+01  0.72838526228E+03  0.73027273119E+03  0.00000000000E+00 0. -1.
        -12    1    6    6    0    0  0.33794912469E+02 -0.65490115216E+01  0.76994826210E+03  0.77071740085E+03  0.00000000000E+00 0.  1.
</event>
<event>
12    1  0.8251070E-002  0.2392965E+03  0.7818608E-02  0.1120761E+00
         21   -1    0    0  501  502  0.00000000000E+00  0.00000000000E+00  0.22729144591E+03  0.22729144591E+03  0.00000000000E+00 0.  1.
         21   -1    0    0  502  503 -0.00000000000E+00 -0.00000000000E+00 -0.38695143240E+03  0.38695143240E+03  0.00000000000E+00 0. -1.
         -6    2    1    2    0  503  0.14266928014E+02 -0.16084139311E+03 -0.26363797165E+03  0.35604462772E+03  0.17660492025E+03 0.  0.
        -24    2    3    3    0    0  0.79027296927E+01 -0.11229661776E+03 -0.27289011685E+03  0.30599674640E+03  0.80573006867E+02 0.  0.
          6    2    1    2  501    0 -0.14266928014E+02  0.16084139311E+03  0.10397798516E+03  0.25819825060E+03  0.17257293021E+03 0.  0.
         24    2    5    5    0    0 -0.92091922606E+01  0.18840292652E+03  0.82402174040E+02  0.22252158539E+03  0.84529673693E+02 0.  0.
          5    1    5    5  501    0 -0.50577357531E+01 -0.27561533410E+02  0.21575811118E+02  0.35676665207E+02  0.47000000000E+01 0. -1.
        -13    1    6    6    0    0 -0.36952796739E+02  0.37451642618E+02  0.28606471868E+02  0.59887101737E+02  0.00000000000E+00 0.  1.
         14    1    6    6    0    0  0.27743604479E+02  0.15095128390E+03  0.53795702172E+02  0.16263448365E+03  0.00000000000E+00 0. -1.
         -5    1    3    3    0  503  0.63641983210E+01 -0.48544775348E+02  0.92521451962E+01  0.50047881319E+02  0.47000000000E+01 0.  1.
         11    1    4    4    0    0 -0.33372477355E+02 -0.24532449414E+02 -0.84742059050E+02  0.94322743233E+02  0.00000000000E+00 0. -1.
        -12    1    4    4    0    0  0.41275207047E+02 -0.87764168349E+02 -0.18814805780E+03  0.21167400316E+03  0.00000000000E+00 0.  1.
</event>
<event>
12    1  0.8251070E-002  0.2510156E+03  0.7818608E-02  0.1112916E+00
         21   -1    0    0  503  502  0.00000000000E+00  0.00000000000E+00  0.56098659348E+03  0.56098659348E+03  0.00000000000E+00 0.  1.
         21   -1    0    0  501  503 -0.00000000000E+00 -0.00000000000E+00 -0.11738030426E+03  0.11738030426E+03  0.00000000000E+00 0.  1.
          6    2    1    2  501    0  0.34280829439E+02 -0.17899991588E+03  0.29636523884E+03  0.38735360617E+03  0.17027717483E+03 0.  0.
         24    2    3    3    0    0  0.30653847112E+02 -0.83772579884E+02  0.63533641913E+02  0.13573078715E+03  0.80179919203E+02 0.  0.
         -6    2    1    2    0  502 -0.34280829439E+02  0.17899991588E+03  0.14724105038E+03  0.29101329158E+03  0.17260551499E+03 0.  0.
        -24    2    5    5    0    0  0.44653466751E+02  0.11124334421E+03  0.39526552351E+02  0.14119313537E+03  0.63278269666E+02 0.  0.
          5    1    3    3  501    0  0.36269823268E+01 -0.95227335995E+02  0.23283159693E+03  0.25162281901E+03  0.47000000000E+01 0. -1.
        -11    1    4    4    0    0  0.37105528248E+02 -0.18442759758E+02  0.55984268855E+02  0.69650513087E+02  0.00000000000E+00 0.  1.
         12    1    4    4    0    0 -0.64516811355E+01 -0.65329820127E+02  0.75493730586E+01  0.66080274067E+02  0.00000000000E+00 0. -1.
         -5    1    5    5    0  502 -0.78934296190E+02  0.67756571668E+02  0.10771449803E+03  0.14982015620E+03  0.47000000000E+01 0.  1.
         13    1    6    6    0    0 -0.19096348119E+01  0.71531769076E+02  0.70273059781E+01  0.71901486226E+02  0.00000000000E+00 0. -1.
        -14    1    6    6    0    0  0.46563101563E+02  0.39711575136E+02  0.32499246373E+02  0.69291649149E+02  0.00000000000E+00 0.  1.
</event>
<event>
12    1  0.8251070E-002  0.2349905E+03  0.7818608E-02  0.1123490E+00
         21   -1    0    0  503  502  0.00000000000E+00  0.00000000000E+00  0.94937470663E+02  0.94937470663E+02  0.00000000000E+00 0. -1.
         21   -1    0    0  501  503 -0.00000000000E+00 -0.00000000000E+00 -0.10820978513E+04  0.10820978513E+04  0.00000000000E+00 0. -1.
          6    2    1    2  501    0 -0.13259544312E+03  0.86125727617E+02 -0.89663519894E+03  0.92691705133E+03  0.17384288184E+03 0.  0.
         24    2    3    3    0    0 -0.55802747230E+02  0.29597487410E+02 -0.20843138423E+03  0.23212273596E+03  0.80295484047E+02 0.  0.
         -6    2    1    2    0  502  0.13259544312E+03 -0.86125727617E+02 -0.90525181739E+02  0.25011827068E+03  0.17136262225E+03 0.  0.
        -24    2    5    5    0    0  0.15309948234E+03 -0.10209894596E+03 -0.59004086554E+02  0.20899371876E+03  0.79581693825E+02 0.  0.
          5    1    3    3  501    0 -0.76792695887E+02  0.56528240207E+02 -0.68820381471E+03  0.69479431537E+03  0.47000000000E+01 0. -1.
        -13    1    4    4    0    0 -0.71901602226E+02  0.40006840149E+02 -0.15740755166E+03  0.17761622950E+03  0.00000000000E+00 0.  1.
         14    1    4    4    0    0  0.16098854996E+02 -0.10409352739E+02 -0.51023832569E+02  0.54506506462E+02  0.00000000000E+00 0. -1.
         -5    1    5    5    0  502 -0.20504039225E+02  0.15973218343E+02 -0.31521095185E+02  0.41124551917E+02  0.47000000000E+01 0.  1.
         13    1    6    6    0    0  0.51846805279E+02  0.61306793967E+01 -0.12869858758E+02  0.53770900234E+02  0.00000000000E+00 0. -1.
        -14    1    6    6    0    0  0.10125267706E+03 -0.10822962536E+03 -0.46134227796E+02  0.15522281853E+03  0.00000000000E+00 0.  1.
</event>
<event>
12    1  0.8251070E-002  0.2005789E+03  0.7818608E-02  0.1149495E+00
         21   -1    0    0  503  502  0.00000000000E+00  0.00000000000E+00  0.25699521263E+03  0.25699521263E+03  0.00000000000E+00 0.  1.
         21   -1    0    0  501  503 -0.00000000000E+00 -0.00000000000E+00 -0.17217881611E+03  0.17217881611E+03  0.00000000000E+00 0.  1.
          6    2    1    2  501    0 -0.67471441165E+02 -0.74650916396E+02 -0.23973709870E+02  0.20200647460E+03  0.17351288806E+03 0.  0.
         24    2    3    3    0    0  0.40420254605E+01  0.19017853704E+02 -0.10188060090E+02  0.83262428261E+02  0.80316988627E+02 0.  0.
         -6    2    1    2    0  502  0.67471441165E+02  0.74650916396E+02  0.10879010639E+03  0.22716755415E+03  0.17217623447E+03 0.  0.
        -24    2    5    5    0    0 -0.74144294201E+00 -0.17301816071E+02  0.63176889594E+02  0.10383484108E+03  0.80563343188E+02 0.  0.
          5    1    3    3  501    0 -0.71513466625E+02 -0.93668770100E+02 -0.13785649780E+02  0.11874404634E+03  0.47000000000E+01 0. -1.
        -11    1    4    4    0    0 -0.36290740514E+02  0.92937153702E+01  0.74242285630E+01  0.38190445954E+02  0.00000000000E+00 0.  1.
         12    1    4    4    0    0  0.40332765974E+02  0.97241383338E+01 -0.17612288653E+02  0.45071982307E+02  0.00000000000E+00 0. -1.
         -5    1    5    5    0  502  0.68212884107E+02  0.91952732467E+02  0.45613216798E+02  0.12333271307E+03  0.47000000000E+01 0.  1.
         11    1    6    6    0    0 -0.70172001219E+01  0.30905575302E+02  0.13876233865E+02  0.34596900852E+02  0.00000000000E+00 0. -1.
        -12    1    6    6    0    0  0.62757571799E+01 -0.48207391373E+02  0.49300655729E+02  0.69237940225E+02  0.00000000000E+00 0.  1.
</event>
<event>
12    1  0.8251070E-002  0.3067665E+03  0.7818608E-02  0.1081949E+00
         21   -1    0    0  503  502  0.00000000000E+00  0.00000000000E+00  0.13649134824E+03  0.13649134824E+03  0.00000000000E+00 0.  1.
         21   -1    0    0  501  503 -0.00000000000E+00 -0.00000000000E+00 -0.72177928532E+03  0.72177928532E+03  0.00000000000E+00 0.  1.
          6    2    1    2  501    0  0.24836377973E+03  0.52221927258E+02 -0.38470474682E+03  0.49204003764E+03  0.17231935366E+03 0.  0.
         24    2    3    3    0    0  0.13215427007E+03 -0.30021153928E+02 -0.14428314701E+03  0.21258841357E+03  0.77525391282E+02 0.  0.
         -6    2    1    2    0  502 -0.24836377973E+03 -0.52221927258E+02 -0.20058319025E+03  0.36623059592E+03  0.17169605822E+03 0.  0.
        -24    2    5    5    0    0 -0.26111860816E+03 -0.58103167001E+02 -0.15853669470E+03  0.32165176218E+03  0.82262184518E+02 0.  0.
          5    1    3    3  501    0  0.11620950966E+03  0.82243081187E+02 -0.24042159981E+03  0.27945162407E+03  0.47000000000E+01 0. -1.
        -13    1    4    4    0    0  0.51941035589E+02 -0.19474747875E+02 -0.11293633826E+03  0.12582429607E+03  0.00000000000E+00 0.  1.
         14    1    4    4    0    0  0.80213234481E+02 -0.10546406054E+02 -0.31346808750E+02  0.86764117499E+02  0.00000000000E+00 0. -1.
         -5    1    5    5    0  502  0.12754828434E+02  0.58812397430E+01 -0.42046495555E+02  0.44578833742E+02  0.47000000000E+01 0.  1.
         13    1    6    6    0    0 -0.12029093297E+02 -0.21364081209E+02 -0.30652826416E+02  0.39251991271E+02  0.00000000000E+00 0. -1.
        -14    1    6    6    0    0 -0.24908951487E+03 -0.36739085792E+02 -0.12788386828E+03  0.28239977091E+03  0.00000000000E+00 0.  1.
</event>
<event>
12    1  0.8251070E-002  0.1948656E+03  0.7818608E-02  0.1154475E+00
         21   -1    0    0  501  502  0.00000000000E+00  0.00000000000E+00  0.18980884302E+03  0.18980884302E+03  0.00000000000E+00 0.  1.
         21   -1    0    0  502  503 -0.00000000000E+00 -0.00000000000E+00 -0.53216350335E+03  0.53216350335E+03  0.00000000000E+00 0. -1.
         -6    2    1    2    0  503  0.71789467952E+02 -0.49501613660E+02 -0.45725958925E+03  0.49705025081E+03  0.17426555141E+03 0.  0.
        -24    2    3    3    0    0  0.11777223059E+03 -0.45618931135E+02 -0.34367513708E+03  0.37435955248E+03  0.77981340770E+02 0.  0.
          6    2    1    2  501    0 -0.71789467952E+02  0.49501613660E+02  0.11490492892E+03  0.22492209556E+03  0.17257655958E+03 0.  0.
         24    2    5    5    0    0 -0.36049185462E+02  0.20494852862E+02 -0.72136531316E+01  0.94331904324E+02  0.84420901533E+02 0.  0.
          5    1    5    5  501    0 -0.35740282490E+02  0.29006760798E+02  0.12211858205E+03  0.13059019123E+03  0.47000000000E+01 0. -1.
        -13    1    6    6    0    0 -0.41457892985E+02  0.30715634788E+02  0.26987838814E+02  0.58228434248E+02  0.00000000000E+00 0.  1.
         14    1    6    6    0    0  0.54087075222E+01 -0.10220781925E+02 -0.34201491946E+02  0.36103470076E+02  0.00000000000E+00 0. -1.
         -5    1    3    3    0  503 -0.45982762634E+02 -0.38826825255E+01 -0.11358445216E+03  0.12269069833E+03  0.47000000000E+01 0.  1.
         13    1    4    4    0    0  0.11540307886E+03 -0.61944017230E+02 -0.31704328809E+03  0.34303262003E+03  0.00000000000E+00 0. -1.
        -14    1    4    4    0    0  0.23691517226E+01  0.16325086095E+02 -0.26631848995E+02  0.31326932451E+02  0.00000000000E+00 0.  1.
</event>
<event>
12    1  0.8251070E-002  0.2345392E+03  0.7818608E-02  0.1123654E+00
         21   -1    0    0  503  502  0.00000000000E+00  0.00000000000E+00  0.21069814225E+03  0.21069814225E+03  0.00000000000E+00 0. -1.
         21   -1    0    0  501  503 -0.00000000000E+00 -0.00000000000E+00 -0.10936942030E+04  0.10936942030E+04  0.00000000000E+00 0.  1.
          6    2    1    2  501    0  0.81403130921E-01  0.15895569596E+03 -0.10107038521E+04  0.10373381691E+04  0.17111773871E+03 0.  0.
         24    2    3    3    0    0 -0.11790377122E+02  0.25156027954E+02 -0.56793247635E+03  0.57461592896E+03  0.82851248585E+02 0.  0.
         -6    2    1    2    0  502 -0.81403130921E-01 -0.15895569596E+03  0.12770779136E+03  0.26705417616E+03  0.17245791697E+03 0.  0.
        -24    2    5    5    0    0 -0.66528972609E+02 -0.10424393839E+03  0.72588863533E+02  0.16473681639E+03  0.81093604416E+02 0.  0.
          5    1    3    3  501    0  0.11871780253E+02  0.13379966800E+03 -0.44277137573E+03  0.46272224011E+03  0.47000000000E+01 0. -1.
        -13    1    4    4    0    0 -0.96588576835E+01  0.47121894244E+02 -0.51534990567E+03  0.51758988758E+03  0.00000000000E+00 0.  1.
         14    1    4    4    0    0 -0.21315194382E+01 -0.21965866290E+02 -0.52582570681E+02  0.57026041388E+02  0.00000000000E+00 0. -1.
         -5    1    5    5    0  502  0.66447569478E+02 -0.54711757571E+02  0.55118927824E+02  0.10231735977E+03  0.47000000000E+01 0.  1.
         11    1    6    6    0    0 -0.19156756932E+01 -0.53064923206E+02  0.62003315871E+02  0.81633124816E+02  0.00000000000E+00 0. -1.
        -12    1    6    6    0    0 -0.64613296916E+02 -0.51179015181E+02  0.10585547662E+02  0.83103691570E+02  0.00000000000E+00 0.  1.
</event>
<event>
12    1  0.8251070E-002  0.1756458E+03  0.7818608E-02  0.1172175E+00
         21   -1    0    0  503  502  0.00000000000E+00  0.00000000000E+00  0.46395042212E+03  0.46395042212E+03  0.00000000000E+00 0. -1.
         21   -1    0    0  501  503 -0.00000000000E+00 -0.00000000000E+00 -0.66914114926E+02  0.66914114926E+02  0.00000000000E+00 0.  1.
          6    2    1    2  501    0  0.33666927326E+02 -0.11771095473E+02  0.17457256586E+03  0.24764293613E+03  0.17198669245E+03 0.  0.
         24    2    3    3    0    0  0.35518271516E+02  0.56400028657E+02  0.13745951173E+03  0.16985991467E+03  0.74261446281E+02 0.  0.
         -6    2    1    2    0  502 -0.33666927326E+02  0.11771095473E+02  0.22246374134E+03  0.28322160092E+03  0.17161683581E+03 0.  0.
        -24    2    5    5    0    0 -0.19313832081E+02 -0.51304525877E+02  0.18221806964E+03  0.20689107333E+03  0.81211531408E+02 0.  0.
          5    1    3    3  501    0 -0.18513441894E+01 -0.68171124131E+02  0.37113054131E+02  0.77783021460E+02  0.47000000000E+01 0. -1.
        -13    1    4    4    0    0 -0.10808582132E+02  0.42333161213E+02  0.33090112317E+02  0.54807641065E+02  0.00000000000E+00 0.  1.
         14    1    4    4    0    0  0.46326853647E+02  0.14066867445E+02  0.10436939942E+03  0.11505227361E+03  0.00000000000E+00 0. -1.
         -5    1    5    5    0  502 -0.14353095245E+02  0.63075621350E+02  0.40245671692E+02  0.76330527587E+02  0.47000000000E+01 0.  1.
         13    1    6    6    0    0  0.22410252458E+02 -0.42023601194E+02  0.55367782832E+02  0.73032827196E+02  0.00000000000E+00 0. -1.
        -14    1    6    6    0    0 -0.41724084539E+02 -0.92809246823E+01  0.12685028681E+03  0.13385824613E+03  0.00000000000E+00 0.  1.
</event>
<event>
12    1  0.8251070E-002  0.1845702E+03  0.7818608E-02  0.1163761E+00
         21   -1    0    0  501  502  0.00000000000E+00  0.00000000000E+00  0.26989692153E+02  0.26989692153E+02  0.00000000000E+00 0.  1.
         21   -1    0    0  502  503 -0.00000000000E+00 -0.00000000000E+00 -0.19850710184E+04  0.19850710184E+04  0.00000000000E+00 0.  1.
         -6    2    1    2    0  503 -0.38734942388E+02  0.53602081853E+02 -0.15920916881E+04  0.16027545414E+04  0.17231540237E+03 0.  0.
        -24    2    3    3    0    0 -0.46784728608E+01 -0.32318313673E+02 -0.95060541657E+03  0.95462732860E+03  0.81217713494E+02 0.  0.
          6    2    1    2  501    0  0.38734942388E+02 -0.53602081853E+02 -0.36598963813E+03  0.40930616909E+03  0.17090800417E+03 0.  0.
         24    2    5    5    0    0  0.73569167919E+02 -0.69201483142E+02 -0.19255910490E+03  0.23166325634E+03  0.79922385621E+02 0.  0.
          5    1    5    5  501    0 -0.34834225531E+02  0.15599401289E+02 -0.17343053323E+03  0.17764291274E+03  0.47000000000E+01 0. -1.
        -13    1    6    6    0    0  0.61275710746E+02 -0.72372378868E+01 -0.66841341792E+02  0.90966231714E+02  0.00000000000E+00 0.  1.
         14    1    6    6    0    0  0.12293457173E+02 -0.61964245255E+02 -0.12571776311E+03  0.14069702463E+03  0.00000000000E+00 0. -1.
         -5    1    3    3    0  503 -0.34056469527E+02  0.85920395526E+02 -0.64148627152E+03  0.64812721285E+03  0.47000000000E+01 0.  1.
         11    1    4    4    0    0 -0.16274582227E+02  0.96569909770E+01 -0.59033409876E+02  0.61992442951E+02  0.00000000000E+00 0. -1.
        -12    1    4    4    0    0  0.11596109366E+02 -0.41975304650E+02 -0.89157200669E+03  0.89263488565E+03  0.00000000000E+00 0.  1.
</event>
<event>
12    1  0.8251070E-002  0.1771939E+03  0.7818608E-02  0.1170722E+00
         21   -1    0    0  501  502  0.00000000000E+00  0.00000000000E+00  0.20746742454E+03  0.20746742454E+03  0.00000000000E+00 0. -1.
         21   -1    0    0  502  503 -0.00000000000E+00 -0.00000000000E+00 -0.23506882306E+03  0.23506882306E+03  0.00000000000E+00 0. -1.
         -6    2    1    2    0  503 -0.35782618381E+02  0.17090625968E+02 -0.14631719570E+03  0.22924977509E+03  0.17197166146E+03 0.  0.
        -24    2    3    3    0    0  0.25800311831E+02  0.36964606798E+02 -0.13617043473E+03  0.16358030603E+03  0.78638991492E+02 0.  0.
          6    2    1    2  501    0  0.35782618381E+02 -0.17090625968E+02  0.11871579718E+03  0.21328647252E+03  0.17269972086E+03 0.  0.
         24    2    5    5    0    0 -0.38737521411E+02 -0.18553441900E+02  0.10341839988E+03  0.13705333386E+03  0.79015347362E+02 0.  0.
          5    1    5    5  501    0  0.74520139792E+02  0.14628159320E+01  0.15297397304E+02  0.76233138656E+02  0.47000000000E+01 0. -1.
        -11    1    6    6    0    0 -0.41782157303E+02  0.23255607122E+02  0.50571623265E+02  0.69599288869E+02  0.00000000000E+00 0.  1.
         12    1    6    6    0    0  0.30446358919E+01 -0.41809049022E+02  0.52846776611E+02  0.67454044994E+02  0.00000000000E+00 0. -1.
         -5    1    3    3    0  503 -0.61582930212E+02 -0.19873980830E+02 -0.10146760974E+02  0.65669469053E+02  0.47000000000E+01 0.  1.
         13    1    4    4    0    0  0.53095001562E+02  0.22901666400E+02 -0.10474002965E+03  0.11964129440E+03  0.00000000000E+00 0. -1.
        -14    1    4    4    0    0 -0.27294689731E+02  0.14062940398E+02 -0.31430405074E+02  0.43939011633E+02  0.00000000000E+00 0.  1.
</event>
<event>
12    1  0.8251070E-002  0.1851810E+03  0.7818608E-02  0.1163377E+00
         21   -1    0    0  503  502  0.00000000000E+00  0.00000000000E+00  0.88487811108E+02  0.88487811108E+02  0.00000000000E+00 0.  1.
         21   -1    0    0  501  503 -0.00000000000E+00 -0.00000000000E+00 -0.39543380141E+03  0.39543380141E+03  0.00000000000E+00 0. -1.
          6    2    1    2  501    0 -0.45567576523E+02 -0.50672397206E+02 -0.19702708083E+03  0.27039169019E+03  0.17218565466E+03 0.  0.
         24    2    3    3    0    0 -0.76956984203E+02 -0.83570841048E+02 -0.13442988298E+03  0.19287974465E+03  0.78897018752E+02 0.  0.
         -6    2    1    2    0  502  0.45567576523E+02  0.50672397206E+02 -0.10991890947E+03  0.21352992233E+03  0.16990810811E+03 0.  0.
        -24    2    5    5    0    0 -0.32100009242E+01  0.22157043286E+02 -0.12939597707E+03  0.15358141415E+03  0.79641027220E+02 0.  0.
          5    1    3    3  501    0  0.31389407680E+02  0.32898443841E+02 -0.62597197854E+02  0.77511945536E+02  0.47000000000E+01 0. -1.
        -11    1    4    4    0    0 -0.19920683640E+02 -0.41565463405E+02 -0.63647132751E+01  0.46529893185E+02  0.00000000000E+00 0.  1.
         12    1    4    4    0    0 -0.57036300563E+02 -0.42005377643E+02 -0.12806516971E+03  0.14634985147E+03  0.00000000000E+00 0. -1.
         -5    1    5    5    0  502  0.48777577447E+02  0.28515353920E+02  0.19477067602E+02  0.59948508182E+02  0.47000000000E+01 0.  1.
         13    1    6    6    0    0  0.35320897330E+02  0.22681589549E+01 -0.35363555562E+02  0.50032903126E+02  0.00000000000E+00 0. -1.
        -14    1    6    6    0    0 -0.38530898254E+02  0.19888884331E+02 -0.94032421508E+02  0.10354851102E+03  0.00000000000E+00 0.  1.
</event>
<event>
12    1  0.8251070E-002  0.2001206E+03  0.7818608E-02  0.1149678E+00
         21   -1    0    0  501  502  0.00000000000E+00  0.00000000000E+00  0.39133616521E+03  0.39133616521E+03  0.00000000000E+00 0.  1.
         21   -1    0    0  502  503 -0.00000000000E+00 -0.00000000000E+00 -0.19681904702E+03  0.19681904702E+03  0.00000000000E+00 0.  1.
         -6    2    1    2    0  503 -0.24758467070E+02  0.97969290830E+02 -0.10662476246E+03  0.22658267098E+03  0.17251058861E+03 0.  0.
        -24    2    3    3    0    0  0.14124476456E+02 -0.18696234788E+02 -0.74109314970E+02  0.99295309114E+02  0.61792538517E+02 0.  0.
          6    2    1    2  501    0  0.24758467070E+02 -0.97969290830E+02  0.30114188065E+03  0.36157254126E+03  0.17273478709E+03 0.  0.
         24    2    5    5    0    0  0.56016165664E+02 -0.11235352168E+03  0.28900593400E+03  0.32478502952E+03  0.78738560199E+02 0.  0.
          5    1    5    5  501    0 -0.31257698594E+02  0.14384230854E+02  0.12135946650E+02  0.36787511736E+02  0.47000000000E+01 0. -1.
        -11    1    6    6    0    0  0.19899270119E+02 -0.10142375956E+03  0.16089777263E+03  0.19123507312E+03  0.00000000000E+00 0.  1.
         12    1    6    6    0    0  0.36116895545E+02 -0.10929762122E+02  0.12810816137E+03  0.13354995640E+03  0.00000000000E+00 0. -1.
         -5    1    3    3    0  503 -0.38882943526E+02  0.11666552562E+03 -0.32515447489E+02  0.12728736186E+03  0.47000000000E+01 0.  1.
         13    1    4    4    0    0 -0.23630231548E+02  0.62487334684E+00 -0.24958725330E+02  0.34376100416E+02  0.00000000000E+00 0. -1.
        -14    1    4    4    0    0  0.37754708004E+02 -0.19321108135E+02 -0.49150589640E+02  0.64919208698E+02  0.00000000000E+00 0.  1.
</event>
<event>
12    1  0.8251070E-002  0.2128075E+03  0.7818608E-02  0.1139646E+00
         21   -1    0    0  501  502  0.00000000000E+00  0.00000000000E+00  0.66890972599E+02  0.66890972599E+02  0.00000000000E+00 0. -1.
         21   -1    0    0  502  503 -0.00000000000E+00 -0.00000000000E+00 -0.68728603624E+03  0.68728603624E+03  0.00000000000E+00 0. -1.
         -6    2    1    2    0  503 -0.10098232516E+03  0.71523973747E+02 -0.36465149448E+03  0.42147323892E+03  0.17133554765E+03 0.  0.
        -24    2    3    3    0    0 -0.93714802154E+00  0.55956062943E+02 -0.24814843788E+03  0.26705028237E+03  0.81278821731E+02 0.  0.
          6    2    1    2  501    0  0.10098232516E+03 -0.71523973747E+02 -0.25574356916E+03  0.33270376992E+03  0.17312976790E+03 0.  0.
         24    2    5    5    0    0  0.10883032467E+03  0.56767160331E+01 -0.16465433120E+03  0.21295036967E+03  0.79753034333E+02 0.  0.
          5    1    5    5  501    0 -0.78479995152E+01 -0.77200689780E+02 -0.91089237959E+02  0.11975340025E+03  0.47000000000E+01 0. -1.
        -11    1    6    6    0    0  0.24539845078E+01  0.22639685350E+02 -0.10978208425E+02  0.25280396614E+02  0.00000000000E+00 0.  1.
         12    1    6    6    0    0  0.10637634016E+03 -0.16962969317E+02 -0.15367612278E+03  0.18766997306E+03  0.00000000000E+00 0. -1.
         -5    1    3    3    0  503 -0.10004517714E+03  0.15567910804E+02 -0.11650305659E+03  0.15442295655E+03  0.47000000000E+01 0.  1.
         13    1    4    4    0    0 -0.21613699576E+02  0.50930333584E+02 -0.23630966904E+03  0.24270004238E+03  0.00000000000E+00 0. -1.
        -14    1    4    4    0    0  0.20676551555E+02  0.50257293589E+01 -0.11838768841E+02  0.24350239988E+02  0.00000000000E+00 0.  1.
</event>
<event>
12    1  0.8251070E-002  0.2260523E+03  0.7818608E-02  0.1129642E+00
         21   -1    0    0  501  502  0.00000000000E+00  0.00000000000E+00  0.48200510045E+03  0.48200510045E+03  0.00000000000E+00 0.  1.
         21   -1    0    0  502  503 -0.00000000000E+00 -0.00000000000E+00 -0.14878969246E+03  0.14878969246E+03  0.00000000000E+00 0.  1.
         -6    2    1    2    0  503  0.14444920224E+03  0.19690016906E+02 -0.37617113115E+01  0.22501997248E+03  0.17136676675E+03 0.  0.
        -24    2    3    3    0    0  0.71755444897E+02  0.52526178703E+02  0.48928719195E+02  0.12930703006E+03  0.80115199186E+02 0.  0.
          6    2    1    2  501    0 -0.14444920224E+03 -0.19690016906E+02  0.33697711930E+03  0.40577482043E+03  0.17276098276E+03 0.  0.
         24    2    5    5    0    0 -0.60516649150E+02  0.19409359915E+02  0.71738139416E+02  0.12479930337E+03  0.79934456883E+02 0.  0.
          5    1    5    5  501    0 -0.83932553090E+02 -0.39099376821E+02  0.26523897989E+03  0.28097551706E+03  0.47000000000E+01 0. -1.
        -13    1    6    6    0    0 -0.72325654292E+02  0.14265277103E+02  0.27430023239E+02  0.78656878748E+02  0.00000000000E+00 0.  1.
         14    1    6    6    0    0  0.11809005142E+02  0.51440828122E+01  0.44308116177E+02  0.46142424618E+02  0.00000000000E+00 0. -1.
         -5    1    3    3    0  503  0.72693757343E+02 -0.32836161796E+02 -0.52690430507E+02  0.95712942412E+02  0.47000000000E+01 0.  1.
         13    1    4    4    0    0  0.74629817301E+01  0.43452679404E+02  0.46865858586E+02  0.64344697876E+02  0.00000000000E+00 0. -1.
        -14    1    4    4    0    0  0.64292463167E+02  0.90734992988E+01  0.20628606094E+01  0.64962332189E+02  0.00000000000E+00 0.  1.
</event>
<event>
12    1  0.8251070E-002  0.1853900E+03  0.7818608E-02  0.1162971E+00
         21   -1    0    0  501  502  0.00000000000E+00  0.00000000000E+00  0.96573567017E+02  0.96573567017E+02  0.00000000000E+00 0. -1.
         21   -1    0    0  502  503 -0.00000000000E+00 -0.00000000000E+00 -0.51229935023E+03  0.51229935023E+03  0.00000000000E+00 0. -1.
         -6    2    1    2    0  503  0.64897323079E+02  0.27598362757E+02 -0.37685585580E+03  0.41945187335E+03  0.17013584526E+03 0.  0.
        -24    2    3    3    0    0  0.55421133775E+02  0.19090821656E+02 -0.38859352302E+03  0.40150642125E+03  0.82258851378E+02 0.  0.
          6    2    1    2  501    0 -0.64897323079E+02 -0.27598362757E+02 -0.38869927413E+02  0.18942104389E+03  0.17145299193E+03 0.  0.
         24    2    5    5    0    0 -0.38065046795E+02 -0.75198367235E+02 -0.58948091648E+02  0.13101766937E+03  0.81160396468E+02 0.  0.
          5    1    5    5  501    0 -0.26832276285E+02  0.47600004478E+02  0.20078164235E+02  0.58403374525E+02  0.47000000000E+01 0. -1.
        -11    1    6    6    0    0 -0.30385910244E+02 -0.38007634437E+02 -0.75313569049E+02  0.89666144669E+02  0.00000000000E+00 0.  1.
         12    1    6    6    0    0 -0.76791365503E+01 -0.37190732798E+02  0.16365477401E+02  0.41351524697E+02  0.00000000000E+00 0. -1.
         -5    1    3    3    0  503  0.94761893039E+01  0.85075411016E+01  0.11737667224E+02  0.17945452103E+02  0.47000000000E+01 0.  1.
         11    1    4    4    0    0  0.55796404183E+02  0.40769397142E+02 -0.19858884646E+03  0.21026866719E+03  0.00000000000E+00 0. -1.
        -12    1    4    4    0    0 -0.37527040775E+00 -0.21678575486E+02 -0.19000467656E+03  0.19123775406E+03  0.00000000000E+00 0.  1.
</event>
<event>
12    1  0.8251070E-002  0.2364318E+03  0.7818608E-02  0.1122231E+00
         21   -1    0    0  501  502  0.00000000000E+00  0.00000000000E+00  0.10973106093E+03  0.10973106093E+03  0.00000000000E+00 0.  1.
         21   -1    0    0  502  503 -0.00000000000E+00 -0.00000000000E+00 -0.55336464764E+03  0.55336464764E+03  0.00000000000E+00 0. -1.
         -6    2    1    2    0  503  0.13199486028E+03  0.97221357750E+02 -0.31584337296E+03  0.39453393665E+03  0.17036829338E+03 0.  0.
        -24    2    3    3    0    0  0.15155597447E+03  0.41206758118E+02 -0.24725337832E+03  0.30372121769E+03  0.80281596109E+02 0.  0.
          6    2    1    2  501    0 -0.13199486028E+03 -0.97221357750E+02 -0.12779021375E+03  0.26856177192E+03  0.17006013955E+03 0.  0.
         24    2    5    5    0    0 -0.85622056941E+02 -0.13126708512E+03 -0.80848050953E+02  0.19416281299E+03  0.81244115692E+02 0.  0.
          5    1    5    5  501    0 -0.46372803338E+02  0.34045727369E+02 -0.46942162797E+02  0.74398958928E+02  0.47000000000E+01 0. -1.
        -13    1    6    6    0    0 -0.25502406871E+02 -0.75040103321E+02 -0.78887281131E+02  0.11182393745E+03  0.00000000000E+00 0.  1.
         14    1    6    6    0    0 -0.60119650070E+02 -0.56226981798E+02 -0.19607698214E+01  0.82338875539E+02  0.00000000000E+00 0. -1.
         -5    1    3    3    0  503 -0.19561114195E+02  0.56014599632E+02 -0.68589994638E+02  0.90812718960E+02  0.47000000000E+01 0.  1.
         13    1    4    4    0    0  0.14352397673E+03  0.10670966349E+02 -0.19020843648E+03  0.23852096496E+03  0.00000000000E+00 0. -1.
        -14    1    4    4    0    0  0.80319977461E+01  0.30535791769E+02 -0.57044941839E+02  0.65200252731E+02  0.00000000000E+00 0.  1.
</event>
<event>
12    1  0.8251070E-002  0.2111081E+03  0.7818608E-02  0.1140947E+00
         21   -1    0    0  503  502  0.00000000000E+00  0.00000000000E+00  0.21492942139E+03  0.21492942139E+03  0.00000000000E+00 0. -1.
         21   -1    0    0  501  503 -0.00000000000E+00 -0.00000000000E+00 -0.24894478248E+03  0.24894478248E+03  0.00000000000E+00 0. -1.
          6    2    1    2  501    0 -0.66512680923E+02 -0.10093625696E+03 -0.11329032944E+03  0.23958573315E+03  0.17307385733E+03 0.  0.
         24    2    3    3    0    0  0.19771857285E+02 -0.58147103473E+02 -0.14553474162E+02  0.10157490103E+03  0.79584200235E+02 0.  0.
         -6    2    1    2    0  502  0.66512680923E+02  0.10093625696E+03  0.79274968354E+02  0.22428847072E+03  0.17148974546E+03 0.  0.
        -24    2    5    5    0    0  0.67123057770E+02  0.28222644073E+02  0.99895332412E+02  0.14855914038E+03  0.82393678340E+02 0.  0.
          5    1    3    3  501    0 -0.86284538209E+02 -0.42789153491E+02 -0.98736855279E+02  0.13801083211E+03  0.47000000000E+01 0. -1.
        -13    1    4    4    0    0 -0.32071652557E+01 -0.51157442249E+02  0.23648149311E+02  0.56450020127E+02  0.00000000000E+00 0.  1.
         14    1    4    4    0    0  0.22979022541E+02 -0.69896612239E+01 -0.38201623473E+02  0.45124880907E+02  0.00000000000E+00 0. -1.
         -5    1    5    5    0  502 -0.61037684662E+00  0.72713612891E+02 -0.20620364059E+02  0.75729330339E+02  0.47000000000E+01 0.  1.
         11    1    6    6    0    0  0.50208047814E+02  0.26571300917E+02  0.10757142727E+02  0.57815207492E+02  0.00000000000E+00 0. -1.
        -12    1    6    6    0    0  0.16915009956E+02  0.16513431567E+01  0.89138189685E+02  0.90743932890E+02  0.00000000000E+00 0.  1.
</event>
<event>
12    1  0.8251070E-002  0.1888936E+03  0.7818608E-02  0.1159641E+00
         21   -1    0    0  503  502  0.00000000000E+00  0.00000000000E+00  0.10528744683E+03  0.10528744683E+03  0.00000000000E+00 0.  1.
         21   -1    0    0  501  503 -0.00000000000E+00 -0.00000000000E+00 -0.41164326592E+03  0.41164326592E+03  0.00000000000E+00 0.  1.
          6    2    1    2  501    0  0.75346153456E+02 -0.14389586769E+02 -0.26314156557E+03  0.32392014867E+03  0.17261713743E+03 0.  0.
         24    2    3    3    0    0  0.43656655171E+02 -0.62426499694E+02 -0.94095967995E+02  0.14528568009E+03  0.80317533835E+02 0.  0.
         -6    2    1    2    0  502 -0.75346153456E+02  0.14389586769E+02 -0.43214253513E+02  0.19301056408E+03  0.17176001598E+03 0.  0.
        -24    2    5    5    0    0 -0.10579260656E+03 -0.25791094384E+02 -0.19683236877E+02  0.13717802528E+03  0.81074808999E+02 0.  0.
          5    1    3    3  501    0  0.31689498285E+02  0.48036912925E+02 -0.16904559758E+03  0.17863446858E+03  0.47000000000E+01 0. -1.
        -13    1    4    4    0    0  0.11098157712E+02 -0.72931268618E+02 -0.78383487375E+02  0.10763879477E+03  0.00000000000E+00 0.  1.
         14    1    4    4    0    0  0.32558497458E+02  0.10504768924E+02 -0.15712480621E+02  0.37646885318E+02  0.00000000000E+00 0. -1.
         -5    1    5    5    0  502  0.30446453104E+02  0.40180681152E+02 -0.23531016636E+02  0.55832538796E+02  0.47000000000E+01 0.  1.
         11    1    6    6    0    0 -0.72568413826E+02 -0.71116167906E+01 -0.50053619837E+02  0.88442719527E+02  0.00000000000E+00 0. -1.
        -12    1    6    6    0    0 -0.33224192734E+02 -0.18679477593E+02  0.30370382960E+02  0.48735305756E+02  0.00000000000E+00 0.  1.
</event>
<event>
12    1  0.8251070E-002  0.2092173E+03  0.7818608E-02  0.1142901E+00
         21   -1    0    0  503  502  0.00000000000E+00  0.00000000000E+00  0.10992049064E+03  0.10992049064E+03  0.00000000000E+00 0.  1.
         21   -1    0    0  501  503 -0.00000000000E+00 -0.00000000000E+00 -0.97360148711E+03  0.97360148711E+03  0.00000000000E+00 0.  1.
          6    2    1    2  501    0 -0.11036413586E+03  0.30126481136E+02 -0.85223761188E+03  0.87754248621E+03  0.17516854925E+03 0.  0.
         24    2    3    3    0    0 -0.92845895010E+02  0.86623696749E+02 -0.61058080856E+03  0.62870735057E+03  0.79624015386E+02 0.  0.
         -6    2    1    2    0  502  0.11036413586E+03 -0.30126481136E+02 -0.11443384593E+02  0.20597949154E+03  0.17090568315E+03 0.  0.
        -24    2    5    5    0    0  0.63977623592E+02 -0.75112909714E+02  0.29358588208E+02  0.12941332237E+03  0.78427009247E+02 0.  0.
          5    1    3    3  501    0 -0.17518240849E+02 -0.56497215612E+02 -0.24165680333E+03  0.24883513564E+03  0.47000000000E+01 0. -1.
        -11    1    4    4    0    0 -0.55560409050E+02  0.53664901538E+02 -0.51679819116E+03  0.52253923402E+03  0.00000000000E+00 0.  1.
         12    1    4    4    0    0 -0.37285485960E+02  0.32958795210E+02 -0.93782617401E+02  0.10616811655E+03  0.00000000000E+00 0. -1.
         -5    1    5    5    0  502  0.46386512268E+02  0.44986428578E+02 -0.40801972801E+02  0.76566169168E+02  0.47000000000E+01 0.  1.
         13    1    6    6    0    0  0.26471064869E+02  0.17607252279E+01 -0.17598932194E+02  0.31836140516E+02  0.00000000000E+00 0. -1.
        -14    1    6    6    0    0  0.37506558723E+02 -0.76873634942E+02  0.46957520402E+02  0.97577181855E+02  0.00000000000E+00 0.  1.
</event>
<event>
12    1  0.8251070E-002  0.1813797E+03  0.7818608E-02  0.1166530E+00
         21   -1    0    0  501  502  0.00000000000E+00  0.00000000000E+00  0.55406156570E+03  0.55406156570E+03  0.00000000000E+00 0. -1.
         21   -1    0    0  502  503 -0.00000000000E+00 -0.00000000000E+00 -0.69092628876E+03  0.69092628876E+03  0.00000000000E+00 0. -1.
         -6    2    1    2    0  503 -0.40262714455E+02  0.40012365735E+02 -0.66360924093E+03  0.68788967636E+03  0.17202588933E+03 0.  0.
        -24    2    3    3    0    0 -0.66047397884E+01 -0.42833591889E+01 -0.58890609470E+03  0.59462864182E+03  0.81919860518E+02 0.  0.
          6    2    1    2  501    0  0.40262714455E+02 -0.40012365735E+02  0.52674451788E+03  0.55709817811E+03  0.17226873583E+03 0.  0.
         24    2    5    5    0    0 -0.21865457872E+02  0.29259526919E+02  0.25457280365E+03  0.26942121182E+03  0.80288597276E+02 0.  0.
          5    1    5    5  501    0  0.62128172327E+02 -0.69271892654E+02  0.27217171423E+03  0.28767696629E+03  0.47000000000E+01 0. -1.
        -13    1    6    6    0    0 -0.45360733164E+02 -0.55748176717E+01  0.14670682593E+03  0.15366055928E+03  0.00000000000E+00 0.  1.
         14    1    6    6    0    0  0.23495275292E+02  0.34834344591E+02  0.10786597773E+03  0.11576065253E+03  0.00000000000E+00 0. -1.
         -5    1    3    3    0  503 -0.33657974666E+02  0.44295724924E+02 -0.74703146233E+02  0.93261034533E+02  0.47000000000E+01 0.  1.
         11    1    4    4    0    0 -0.16806477427E+02 -0.27967381326E+02 -0.10312940128E+03  0.10816795047E+03  0.00000000000E+00 0. -1.
        -12    1    4    4    0    0  0.10201737639E+02  0.23684022137E+02 -0.48577669342E+03  0.48646069135E+03  0.00000000000E+00 0.  1.
</event>
<event>
12    1  0.8251070E-002  0.2064720E+03  0.7818608E-02  0.1144662E+00
         21   -1    0    0  503  502  0.00000000000E+00  0.00000000000E+00  0.30906933296E+02  0.30906933296E+02  0.00000000000E+00 0.  1.
         21   -1    0    0  501  503 -0.00000000000E+00 -0.00000000000E+00 -0.13878961842E+04  0.13878961842E+04  0.00000000000E+00 0.  1.
          6    2    1    2  501    0  0.10049222330E+03 -0.54332749938E+02 -0.59665990537E+03  0.63093802661E+03  0.17037903652E+03 0.  0.
         24    2    3    3    0    0  0.64669104419E+02  0.31887624406E+02 -0.35139525027E+03  0.36846118984E+03  0.84179052325E+02 0.  0.
         -6    2    1    2    0  502 -0.10049222330E+03  0.54332749938E+02 -0.76032934556E+03  0.78786509092E+03  0.17198823535E+03 0.  0.
        -24    2    5    5    0    0 -0.14741597843E+02 -0.12368557259E+02 -0.18679451748E+03  0.20411298328E+03  0.79997639127E+02 0.  0.
          5    1    3    3  501    0  0.35823118884E+02 -0.86220374343E+02 -0.24526465510E+03  0.26247683677E+03  0.47000000000E+01 0. -1.
        -11    1    4    4    0    0  0.46924762857E+02 -0.23486486583E+02 -0.17819965440E+03  0.18576508082E+03  0.00000000000E+00 0.  1.
         12    1    4    4    0    0  0.17744341562E+02  0.55374110989E+02 -0.17319559586E+03  0.18269610902E+03  0.00000000000E+00 0. -1.
         -5    1    5    5    0  502 -0.85750625459E+02  0.66701307196E+02 -0.57353482808E+03  0.58375210764E+03  0.47000000000E+01 0.  1.
         13    1    6    6    0    0 -0.71386967911E+01  0.27996099719E+02 -0.28526020533E+02  0.40601433950E+02  0.00000000000E+00 0. -1.
        -14    1    6    6    0    0 -0.76029010523E+01 -0.40364656977E+02 -0.15826849695E+03  0.16351154933E+03  0.00000000000E+00 0.  1.
</event>
<event>
12    1  0.8251070E-002  0.1868964E+03  0.7818608E-02  0.1162206E+00
         21   -1    0    0  501  502  0.00000000000E+00  0.00000000000E+00  0.30529690108E+03  0.30529690108E+03  0.00000000000E+00 0.  1.
         21   -1    0    0  502  503 -0.00000000000E+00 -0.00000000000E+00 -0.12420102939E+03  0.12420102939E+03  0.00000000000E+00 0.  1.
         -6    2    1    2    0  503 -0.18964896472E+02 -0.59846553688E+02  0.22437329608E+02  0.18433920677E+03  0.17186108374E+03 0.  0.
        -24    2    3    3    0    0  0.49549546406E+02 -0.26776048262E+02 -0.18761351927E+02  0.97694480604E+02  0.77589360772E+02 0.  0.
          6    2    1    2  501    0  0.18964896472E+02  0.59846553688E+02  0.15865854208E+03  0.24515872371E+03  0.17603689825E+03 0.  0.
         24    2    5    5    0    0 -0.12190378135E+02 -0.26995194838E+02  0.11585558058E+03  0.14334357780E+03  0.79041254294E+02 0.  0.
          5    1    5    5  501    0  0.31155274608E+02  0.86841748526E+02  0.42802961500E+02  0.10181514591E+03  0.47000000000E+01 0. -1.
        -13    1    6    6    0    0  0.22928522904E+02  0.16679580308E+02  0.37772570393E+02  0.47230208933E+02  0.00000000000E+00 0.  1.
         14    1    6    6    0    0 -0.35118901039E+02 -0.43674775146E+02  0.78083010190E+02  0.96113368865E+02  0.00000000000E+00 0. -1.
         -5    1    3    3    0  503 -0.68514442878E+02 -0.33070505426E+02  0.41198681534E+02  0.86644726165E+02  0.47000000000E+01 0.  1.
         13    1    4    4    0    0  0.31361412601E+02  0.15944066417E+02  0.17013944887E+02  0.39079736115E+02  0.00000000000E+00 0. -1.
        -14    1    4    4    0    0  0.18188133805E+02 -0.42720114678E+02 -0.35775296814E+02  0.58614744489E+02  0.00000000000E+00 0.  1.
</event>
<event>
12    1  0.8251070E-002  0.4020381E+03  0.7818608E-02  0.1043120E+00
         21   -1    0    0  501  502  0.00000000000E+00  0.00000000000E+00  0.18625580391E+03  0.18625580391E+03  0.00000000000E+00 0.  1.
         21   -1    0    0  502  503 -0.00000000000E+00 -0.00000000000E+00 -0.14276749752E+04  0.14276749752E+04  0.00000000000E+00 0. -1.
         -6    2    1    2    0  503 -0.54299435747E+02  0.35967863016E+03 -0.11267760115E+04  0.11963522820E+04  0.17122341215E+03 0.  0.
        -24    2    3    3    0    0 -0.58574674829E+02  0.18475803762E+03 -0.43812400183E+03  0.48580378136E+03  0.80536625229E+02 0.  0.
          6    2    1    2  501    0  0.54299435747E+02 -0.35967863016E+03 -0.11464315978E+03  0.41757849708E+03  0.17003411843E+03 0.  0.
         24    2    5    5    0    0  0.63151895008E+02 -0.36826755116E+03 -0.94641461984E+02  0.39361407526E+03  0.79786482784E+02 0.  0.
          5    1    5    5  501    0 -0.88524592605E+01  0.85889209994E+01 -0.20001697796E+02  0.23964421829E+02  0.47000000000E+01 0. -1.
        -13    1    6    6    0    0  0.32568532210E+02 -0.18555777223E+03 -0.66108419842E+01  0.18851021022E+03  0.00000000000E+00 0.  1.
         14    1    6    6    0    0  0.30583362798E+02 -0.18270977893E+03 -0.88030620000E+02  0.20510386504E+03  0.00000000000E+00 0. -1.
         -5    1    3    3    0  503  0.42752390823E+01  0.17492059254E+03 -0.68865200963E+03  0.71054850062E+03  0.47000000000E+01 0.  1.
         11    1    4    4    0    0 -0.61021402034E+02  0.13359272874E+03 -0.38473719643E+03  0.41181711838E+03  0.00000000000E+00 0. -1.
        -12    1    4    4    0    0  0.24467272048E+01  0.51165308880E+02 -0.53386805405E+02  0.73986662975E+02  0.00000000000E+00 0.  1.
</event>
<event>
12    1  0.8251070E-002  0.1955920E+03  0.7818608E-02  0.1153752E+00
         21   -1    0    0  503  502  0.00000000000E+00  0.00000000000E+00  0.22207864819E+02  0.22207864819E+02  0.00000000000E+00 0. -1.
         21   -1    0    0  501  503 -0.00000000000E+00 -0.00000000000E+00 -0.17743008056E+04  0.17743008056E+04  0.00000000000E+00 0. -1.
          6    2    1    2  501    0  0.35209692207E+02 -0.84552592160E+02 -0.10454547762E+04  0.10635938674E+04  0.17282176473E+03 0.  0.
         24    2    3    3    0    0  0.27299506143E+02 -0.11426527567E+03 -0.57900834980E+03  0.59611148983E+03  0.79350002625E+02 0.  0.
         -6    2    1    2    0  502 -0.35209692207E+02  0.84552592160E+02 -0.70663816458E+03  0.73291480305E+03  0.17157432680E+03 0.  0.
        -24    2    5    5    0    0 -0.35929162969E+01  0.28076444805E+02 -0.14945106759E+03  0.17196139430E+03  0.80211618382E+02 0.  0.
          5    1    3    3  501    0  0.79101860639E+01  0.29712683507E+02 -0.46644642641E+03  0.46748237755E+03  0.47000000000E+01 0. -1.
        -13    1    4    4    0    0  0.22702366490E+02 -0.18425857286E+02 -0.45788729993E+02  0.54327869969E+02  0.00000000000E+00 0.  1.
         14    1    4    4    0    0  0.45971396526E+01 -0.95839418382E+02 -0.53321961980E+03  0.54178361986E+03  0.00000000000E+00 0. -1.
         -5    1    5    5    0  502 -0.31616775910E+02  0.56476147356E+02 -0.55718709699E+03  0.56095340875E+03  0.47000000000E+01 0.  1.
         13    1    6    6    0    0 -0.22653786415E+02  0.49415552058E+02 -0.11482850305E+03  0.12704595994E+03  0.00000000000E+00 0. -1.
        -14    1    6    6    0    0  0.19060870118E+02 -0.21339107253E+02 -0.34622564542E+02  0.44915434357E+02  0.00000000000E+00 0.  1.
</event>
<event>
12    1  0.8251070E-002  0.2147439E+03  0.7818608E-02  0.1138188E+00
         21   -1    0    0  503  502  0.00000000000E+00  0.00000000000E+00  0.77883518698E+03  0.77883518698E+03  0.00000000000E+00 0. -1.
         21   -1    0    0  501  503 -0.00000000000E+00 -0.00000000000E+00 -0.11968463012E+03  0.11968463012E+03  0.00000000000E+00 0.  1.
          6    2    1    2  501    0  0.39010783569E+02 -0.12197966867E+03  0.83728098459E+01  0.21322672226E+03  0.17027815579E+03 0.  0.
         24    2    3    3    0    0  0.32200257436E+02 -0.43193009620E+02 -0.54553197783E+02  0.11205610723E+03  0.81719196767E+02 0.  0.
         -6    2    1    2    0  502 -0.39010783569E+02  0.12197966867E+03  0.65077774702E+03  0.68529309484E+03  0.17237769293E+03 0.  0.
        -24    2    5    5    0    0 -0.77589481631E+02  0.67057494143E+02  0.54073513663E+03  0.55631159500E+03  0.81063355283E+02 0.  0.
          5    1    3    3  501    0  0.68105261334E+01 -0.78786659048E+02  0.62926007629E+02  0.10117061503E+03  0.47000000000E+01 0. -1.
        -11    1    4    4    0    0  0.16068989492E+02 -0.28359377752E+02  0.17323363662E+02  0.36912947029E+02  0.00000000000E+00 0.  1.
         12    1    4    4    0    0  0.16131267944E+02 -0.14833631868E+02 -0.71876561446E+02  0.75143160202E+02  0.00000000000E+00 0. -1.
         -5    1    5    5    0  502  0.38578698062E+02  0.54922174525E+02  0.11004261039E+03  0.12898149983E+03  0.47000000000E+01 0.  1.
         11    1    6    6    0    0  0.79009122297E+01  0.16601885467E+02  0.24571539546E+02  0.30688883505E+02  0.00000000000E+00 0. -1.
        -12    1    6    6    0    0 -0.85490393861E+02  0.50455608675E+02  0.51616359708E+03  0.52562271150E+03  0.00000000000E+00 0.  1.
</event>
<event>
12    1  0.8251070E-002  0.1746781E+03  0.7818608E-02  0.1173070E+00
         21   -1    0    0  503  502  0.00000000000E+00  0.00000000000E+00  0.21831930378E+03  0.21831930378E+03  0.00000000000E+00 0.  1.
         21   -1    0    0  501  503 -0.00000000000E+00 -0.00000000000E+00 -0.17203461283E+03  0.17203461283E+03  0.00000000000E+00 0.  1.
          6    2    1    2  501    0  0.20277267137E+02 -0.15289707596E+02 -0.61452487702E+02  0.18517247236E+03  0.17282214428E+03 0.  0.
         24    2    3    3    0    0  0.60049588818E+02  0.36957055136E+02 -0.32873861398E+02  0.11340625698E+03  0.82513703823E+02 0.  0.
         -6    2    1    2    0  502 -0.20277267137E+02  0.15289707596E+02  0.10773717865E+03  0.20518144425E+03  0.17276337193E+03 0.  0.
        -24    2    5    5    0    0  0.27155816407E+02  0.41298000613E+02  0.12127582824E+03  0.14921972740E+03  0.71524382619E+02 0.  0.
          5    1    3    3  501    0 -0.39772321681E+02 -0.52246762732E+02 -0.28578626304E+02  0.71766215376E+02  0.47000000000E+01 0. -1.
        -13    1    4    4    0    0  0.46858846080E+02 -0.80959166539E+01  0.11375176036E+02  0.48894682249E+02  0.00000000000E+00 0.  1.
         14    1    4    4    0    0  0.13190742738E+02  0.45052971790E+02 -0.44249037434E+02  0.64511574736E+02  0.00000000000E+00 0. -1.
         -5    1    5    5    0  502 -0.47433083544E+02 -0.26008293017E+02 -0.13538649594E+02  0.55961716852E+02  0.47000000000E+01 0.  1.
         13    1    6    6    0    0  0.41394222055E+02  0.32172440124E+01  0.36844374835E+02  0.55509821073E+02  0.00000000000E+00 0. -1.
        -14    1    6    6    0    0 -0.14238405648E+02  0.38080756601E+02  0.84431453407E+02  0.93709906323E+02  0.00000000000E+00 0.  1.
</event>
<event>
12    1  0.8251070E-002  0.2149806E+03  0.7818608E-02  0.1138692E+00
         21   -1    0    0  501  502  0.00000000000E+00  0.00000000000E+00  0.38134166700E+03  0.38134166700E+03  0.00000000000E+00 0. -1.
         21   -1    0    0  502  503 -0.00000000000E+00 -0.00000000000E+00 -0.14207308099E+03  0.14207308099E+03  0.00000000000E+00 0. -1.
         -6    2    1    2    0  503 -0.15978438023E+02  0.11977285185E+03  0.13768585429E+02  0.21542110005E+03  0.17780840779E+03 0.  0.
        -24    2    3    3    0    0  0.27327064728E+02  0.21782396538E+02  0.52077912446E+02  0.10154752789E+03  0.79865826173E+02 0.  0.
          6    2    1    2  501    0  0.15978438023E+02 -0.11977285185E+03  0.22550000058E+03  0.30799364794E+03  0.17149049650E+03 0.  0.
         24    2    5    5    0    0 -0.24409127074E+01 -0.33733307240E+02  0.19715293923E+03  0.21543166004E+03  0.79985152545E+02 0.  0.
          5    1    5    5  501    0  0.18419350731E+02 -0.86039544610E+02  0.28347061353E+02  0.92561987907E+02  0.47000000000E+01 0. -1.
        -13    1    6    6    0    0  0.34365877070E+02 -0.34566990041E+02  0.13018457187E+03  0.13901047824E+03  0.00000000000E+00 0.  1.
         14    1    6    6    0    0 -0.36806789778E+02  0.83368280100E+00  0.66968367360E+02  0.76421181799E+02  0.00000000000E+00 0. -1.
         -5    1    3    3    0  503 -0.43305502751E+02  0.97990455312E+02 -0.38309327017E+02  0.11387357216E+03  0.47000000000E+01 0.  1.
         11    1    4    4    0    0  0.20747619981E+02 -0.26023277609E+02  0.41583896319E+01  0.33540526483E+02  0.00000000000E+00 0. -1.
        -12    1    4    4    0    0  0.65794447468E+01  0.47805674147E+02  0.47919522814E+02  0.68007001408E+02  0.00000000000E+00 0.  1.
</event>
<event>
12    1  0.8251070E-002  0.2375739E+03  0.7818608E-02  0.1122289E+00
         21   -1    0    0  503  502  0.00000000000E+00  0.00000000000E+00  0.31424287277E+03  0.31424287277E+03  0.00000000000E+00 0.  1.
         21   -1    0    0  501  503 -0.00000000000E+00 -0.00000000000E+00 -0.34217581273E+03  0.34217581273E+03  0.00000000000E+00 0.  1.
          6    2    1    2  501    0 -0.12511533695E+03  0.95093064201E+02 -0.24275487157E+03  0.33612220027E+03  0.17132328343E+03 0.  0.
         24    2    3    3    0    0 -0.87142631282E+02  0.86089783011E+02 -0.25587768715E+03  0.29468207797E+03  0.79742381253E+02 0.  0.
         -6    2    1    2    0  502  0.12511533695E+03 -0.95093064201E+02  0.21482193161E+03  0.32029648523E+03  0.17817081060E+03 0.  0.
        -24    2    5    5    0    0  0.73977558431E+02 -0.13353738480E+03  0.14016124153E+03  0.22186200539E+03  0.79200148463E+02 0.  0.
          5    1    3    3  501    0 -0.37972705664E+02  0.90032811892E+01  0.13122815581E+02  0.41440122302E+02  0.47000000000E+01 0. -1.
        -11    1    4    4    0    0 -0.54496054309E+02  0.31362729052E+02 -0.53659172290E+02  0.82660434790E+02  0.00000000000E+00 0.  1.
         12    1    4    4    0    0 -0.32646576973E+02  0.54727053959E+02 -0.20221851486E+03  0.21202164318E+03  0.00000000000E+00 0. -1.
         -5    1    5    5    0  502  0.51137778515E+02  0.38444320603E+02  0.74660690076E+02  0.98434479837E+02  0.47000000000E+01 0.  1.
         11    1    6    6    0    0  0.11600266797E+02  0.73338981300E+01  0.21473992247E+00  0.13725828382E+02  0.00000000000E+00 0. -1.
        -12    1    6    6    0    0  0.62377291634E+02 -0.14087128293E+03  0.13994650161E+03  0.20813617701E+03  0.00000000000E+00 0.  1.
</event>
<event>
12    1  0.8251070E-002  0.3212730E+03  0.7818608E-02  0.1075171E+00
         21   -1    0    0  501  502  0.00000000000E+00  0.00000000000E+00  0.38597126684E+03  0.38597126684E+03  0.00000000000E+00 0.  1.
         21   -1    0    0  502  503 -0.00000000000E+00 -0.00000000000E+00 -0.30743034835E+03  0.30743034835E+03  0.00000000000E+00 0. -1.
         -6    2    1    2    0  503  0.32082600748E+02  0.26871747051E+03 -0.87045029130E+02  0.33196692156E+03  0.17142586643E+03 0.  0.
        -24    2    3    3    0    0  0.59127992378E+02  0.84883779028E+02 -0.55884506034E+02  0.14350114871E+03  0.82268622467E+02 0.  0.
          6    2    1    2  501    0 -0.32082600748E+02 -0.26871747051E+03  0.16558594762E+03  0.36143469363E+03  0.17314144357E+03 0.  0.
         24    2    5    5    0    0 -0.41729165832E+01 -0.80911777268E+02  0.12168098837E+03  0.16649966771E+03  0.79697851188E+02 0.  0.
          5    1    5    5  501    0 -0.27909684165E+02 -0.18780569324E+03  0.43904959256E+02  0.19493502593E+03  0.47000000000E+01 0. -1.
        -11    1    6    6    0    0 -0.31409887655E+02 -0.59757742312E+02  0.41572802489E+02  0.79283458019E+02  0.00000000000E+00 0.  1.
         12    1    6    6    0    0  0.27236971072E+02 -0.21154034956E+02  0.80108185877E+02  0.87216209690E+02  0.00000000000E+00 0. -1.
         -5    1    3    3    0  503 -0.27045391630E+02  0.18383369148E+03 -0.31160523096E+02  0.18846577284E+03  0.47000000000E+01 0.  1.
         11    1    4    4    0    0 -0.14870590132E+02  0.72281993327E+01 -0.28248205579E+02  0.32731367752E+02  0.00000000000E+00 0. -1.
        -12    1    4    4    0    0  0.73998582511E+02  0.77655579695E+02 -0.27636300455E+02  0.11076978096E+03  0.00000000000E+00 0.  1.
</event>
<event>
12    1  0.8251070E-002  0.1814591E+03  0.7818608E-02  0.1166546E+00
         21   -1    0    0  501  502  0.00000000000E+00  0.00000000000E+00  0.10830851145E+04  0.10830851145E+04  0.00000000000E+00 0. -1.
         21   -1    0    0  502  503 -0.00000000000E+00 -0.00000000000E+00 -0.76648566971E+02  0.76648566971E+02  0.00000000000E+00 0. -1.
         -6    2    1    2    0  503  0.32175798264E+02  0.47298613491E+02  0.51959888440E+02  0.18816120272E+03  0.17155864119E+03 0.  0.
        -24    2    3    3    0    0  0.40691631213E+02  0.93326543579E+02  0.57617396934E+02  0.14077779675E+03  0.78313287761E+02 0.  0.
          6    2    1    2  501    0 -0.32175798264E+02 -0.47298613491E+02  0.95447665909E+03  0.97157247875E+03  0.17220612038E+03 0.  0.
         24    2    5    5    0    0  0.43522854009E+02 -0.39530222513E+01  0.58156557861E+03  0.58856609476E+03  0.79256926971E+02 0.  0.
          5    1    5    5  501    0 -0.75698652272E+02 -0.43345591240E+02  0.37291108048E+03  0.38300638399E+03  0.47000000000E+01 0. -1.
        -11    1    6    6    0    0  0.21953389117E+02 -0.66544323637E+01  0.36782995510E+02  0.43349988726E+02  0.00000000000E+00 0.  1.
         12    1    6    6    0    0  0.21569464892E+02  0.27014101124E+01  0.54478258310E+03  0.54521610603E+03  0.00000000000E+00 0. -1.
         -5    1    3    3    0  503 -0.85158329493E+01 -0.46027930087E+02 -0.56575084948E+01  0.47383405970E+02  0.47000000000E+01 0.  1.
         11    1    4    4    0    0 -0.77594518059E+01  0.43540717687E+02 -0.83142010615E+01  0.45001434736E+02  0.00000000000E+00 0. -1.
        -12    1    4    4    0    0  0.48451083019E+02  0.49785825891E+02  0.65931597996E+02  0.95776362009E+02  0.00000000000E+00 0.  1.
</event>
<event>
12    1  0.8251070E-002  0.2308235E+03  0.7818608E-02  0.1126153E+00
         21   -1    0    0  503  502  0.00000000000E+00  0.00000000000E+00  0.83720862749E+03  0.83720862749E+03  0.00000000000E+00 0.  1.
         21   -1    0    0  501  503 -0.00000000000E+00 -0.00000000000E+00 -0.64432409886E+02  0.64432409886E+02  0.00000000000E+00 0.  1.
          6    2    1    2  501    0  0.14749339825E+03 -0.45336700562E+02  0.44119659838E+03  0.49792962250E+03  0.17166756127E+03 0.  0.
         24    2    3    3    0    0  0.18826060950E+02  0.17357620772E+02  0.11451574230E+03  0.14123881333E+03  0.78605595133E+02 0.  0.
         -6    2    1    2    0  502 -0.14749339825E+03  0.45336700562E+02  0.33157961923E+03  0.40371141488E+03  0.17096240427E+03 0.  0.
        -24    2    5    5    0    0 -0.77668186906E+02 -0.10838952615E+01  0.28907648780E+03  0.30958895191E+03  0.79035316527E+02 0.  0.
          5    1    3    3  501    0  0.12866733730E+03 -0.62694321334E+02  0.32668085608E+03  0.35669080917E+03  0.47000000000E+01 0. -1.
        -13    1    4    4    0    0  0.46510681878E+02  0.11514654359E+02  0.96373492893E+02  0.10762751008E+03  0.00000000000E+00 0.  1.
         14    1    4    4    0    0 -0.27684620928E+02  0.58429664128E+01  0.18142249405E+02  0.33611303246E+02  0.00000000000E+00 0. -1.
         -5    1    5    5    0  502 -0.69825211342E+02  0.46420595823E+02  0.42503131429E+02  0.94122462977E+02  0.47000000000E+01 0.  1.
         13    1    6    6    0    0 -0.28569675073E+02  0.31849063465E+02  0.64797198358E+02  0.77648348935E+02  0.00000000000E+00 0. -1.
        -14    1    6    6    0    0 -0.49098511833E+02 -0.32932958726E+02  0.22427928944E+03  0.23194060297E+03  0.00000000000E+00 0.  1.
</event>
<event>
12    1  0.8251070E-002  0.2936516E+03  0.7818608E-02  0.1088516E+00
         21   -1    0    0  501  502  0.00000000000E+00  0.00000000000E+00  0.18144270424E+04  0.18144270424E+04  0.00000000000E+00 0. -1.
         21   -1    0    0  502  503 -0.00000000000E+00 -0.00000000000E+00 -0.47507288195E+02  0.47507288195E+02  0.00000000000E+00 0. -1.
         -6    2    1    2    0  503  0.18678436495E+03 -0.14740864681E+03  0.85124203713E+03  0.90032268646E+03  0.17131907609E+03 0.  0.
        -24    2    3    3    0    0  0.12429342121E+03 -0.15942572739E+03  0.52238925730E+03  0.56533646424E+03  0.76481138496E+02 0.  0.
          6    2    1    2  501    0 -0.18678436495E+03  0.14740864681E+03  0.91567771709E+03  0.96161164415E+03  0.17208592169E+03 0.  0.
         24    2    5    5    0    0 -0.66037216908E+02  0.79693284962E+00  0.31656016974E+03  0.33309052758E+03  0.79858683805E+02 0.  0.
          5    1    5    5  501    0 -0.12074714805E+03  0.14661171396E+03  0.59911754735E+03  0.62852111657E+03  0.47000000000E+01 0. -1.
        -13    1    6    6    0    0 -0.14183888026E+02 -0.10405842495E+02  0.23586068257E+03  0.23651580459E+03  0.00000000000E+00 0.  1.
         14    1    6    6    0    0 -0.51853328882E+02  0.11202775345E+02  0.80699487172E+02  0.96574722994E+02  0.00000000000E+00 0. -1.
         -5    1    3    3    0  503  0.62490943741E+02  0.12017080583E+02  0.32885277983E+03  0.33498622222E+03  0.47000000000E+01 0.  1.
         13    1    4    4    0    0  0.76669896961E+02 -0.69205374972E+02  0.35101574649E+03  0.36589576563E+03  0.00000000000E+00 0. -1.
        -14    1    4    4    0    0  0.47623524252E+02 -0.90220352422E+02  0.17137351081E+03  0.19944069861E+03  0.00000000000E+00 0.  1.
</event>
