<event>
12    1  0.8563264E-002  0.3690457E+03  0.7818608E-02  0.1055078E+00
         21   -1    0    0  501  502  0.00000000000E+00  0.00000000000E+00  0.24687188994E+03  0.24687188994E+03  0.00000000000E+00 0. -1.
         21   -1    0    0  502  503 -0.00000000000E+00 -0.00000000000E+00 -0.58463913525E+03  0.58463913525E+03  0.00000000000E+00 0.  1.
         -6    2    1    2    0  503 -0.12104946569E+03 -0.30281692152E+03 -0.26801531864E+03  0.45593137585E+03  0.17230829159E+03 0.  0.
        -24    2    3    3    0    0 -0.13140233366E+03 -0.14744245645E+03 -0.15797918386E+03  0.26520002753E+03  0.79798376010E+02 0.  0.
          6    2    1    2  501    0  0.12104946569E+03  0.30281692152E+03 -0.69751926671E+02  0.37557964935E+03  0.17275323622E+03 0.  0.
         24    2    5    5    0    0  0.99027728024E+02  0.26400607374E+03 -0.11202560237E+03  0.31393232586E+03  0.80610618076E+02 0.  0.
          5    1    5    5  501    0  0.22021737667E+02  0.38810847782E+02  0.42273675698E+02  0.61647323482E+02  0.47000000000E+01 0. -1.
        -13    1    6    6    0    0  0.23880729655E+00  0.31085923162E+02 -0.40417397486E+02  0.50989780028E+02  0.00000000000E+00 0.  1.
         14    1    6    6    0    0  0.98788920727E+02  0.23292015058E+03 -0.71608204883E+02  0.26294254584E+03  0.00000000000E+00 0. -1.
         -5    1    3    3    0  503  0.10352867971E+02 -0.15537446507E+03 -0.11003613478E+03  0.19073134831E+03  0.47000000000E+01 0.  1.
         13    1    4    4    0    0 -0.87618800588E+02 -0.49185584956E+02 -0.47988650850E+02  0.11135163490E+03  0.00000000000E+00 0. -1.
        -14    1    4    4    0    0 -0.43783533073E+02 -0.98256871493E+02 -0.10999053301E+03  0.15384839263E+03  0.00000000000E+00 0.  1.
</event>
<event>
12    1  0.8563264E-002  0.3195529E+03  0.7818608E-02  0.1075888E+00
         21   -1    0    0  503  502  0.00000000000E+00  0.00000000000E+00  0.18317369866E+04  0.18317369866E+04  0.00000000000E+00 0. -1.
         21   -1    0    0  501  503 -0.00000000000E+00 -0.00000000000E+00 -0.71033633826E+02  0.71033633826E+02  0.00000000000E+00 0.  1.
          6    2    1    2  501    0  0.26951017485E+03  0.61880759928E+01  0.43859354209E+03  0.54265862379E+03  0.17158106010E+03 0.  0.
         24    2    3    3    0    0  0.27413753170E+03 -0.25796925302E+02  0.38876707405E+03  0.48308329622E+03  0.80079745105E+02 0.  0.
         -6    2    1    2    0  502 -0.26951017485E+03 -0.61880759928E+01  0.13221098107E+04  0.13601119966E+04  0.17104462934E+03 0.  0.
        -24    2    5    5    0    0 -0.10699612240E+03 -0.30967205817E+02  0.83251873362E+03  0.84363708411E+03  0.78923696127E+02 0.  0.
          5    1    3    3  501    0 -0.46273568466E+01  0.31985001295E+02  0.49826468030E+02  0.59575327574E+02  0.47000000000E+01 0. -1.
        -13    1    4    4    0    0  0.15246335235E+03 -0.14315316698E+02  0.14744924118E+03  0.21258240949E+03  0.00000000000E+00 0.  1.
         14    1    4    4    0    0  0.12167417935E+03 -0.11481608604E+02  0.24131783287E+03  0.27050088673E+03  0.00000000000E+00 0. -1.
         -5    1    5    5    0  502 -0.16251405245E+03  0.24779129824E+02  0.48959107706E+03  0.51647491251E+03  0.47000000000E+01 0.  1.
         11    1    6    6    0    0 -0.69849266890E+02 -0.26878323264E+02  0.27917917649E+03  0.28903698195E+03  0.00000000000E+00 0. -1.
        -12    1    6    6    0    0 -0.37146855512E+02 -0.40888825529E+01  0.55333955713E+03  0.55460010216E+03  0.00000000000E+00 0.  1.
</event>
<event>
12    1  0.8563264E-002  0.1755435E+03  0.7818608E-02  0.1172271E+00
         21   -1    0    0  503  502  0.00000000000E+00  0.00000000000E+00  0.99714228350E+02  0.99714228350E+02  0.00000000000E+00 0. -1.
         21   -1    0    0  501  503 -0.00000000000E+00 -0.00000000000E+00 -0.42129329185E+03  0.42129329185E+03  0.00000000000E+00 0.  1.
          6    2    1    2  501    0  0.14445219058E+02 -0.31580639968E+02 -0.26078404460E+02  0.17746999096E+03  0.17207415070E+03 0.  0.
         24    2    3    3    0    0  0.46233125183E+02 -0.72848753252E+02 -0.38692723817E+02  0.12366721034E+03  0.79699493862E+02 0.  0.
         -6    2    1    2    0  502 -0.14445219058E+02  0.31580639968E+02 -0.29550065904E+03  0.34353752924E+03  0.17173058355E+03 0.  0.
        -24    2    5    5    0    0  0.44532236324E+02  0.62080660463E+02 -0.19855817778E+03  0.22594277524E+03  0.76076666905E+02 0.  0.
          5    1    3    3  501    0 -0.31787906126E+02  0.41268113284E+02  0.12614319357E+02  0.53802780622E+02  0.47000000000E+01 0. -1.
        -11    1    4    4    0    0 -0.12885548136E+02 -0.94772652619E+01  0.14824862749E+02  0.21808999590E+02  0.00000000000E+00 0.  1.
         12    1    4    4    0    0  0.59118673319E+02 -0.63371487990E+02 -0.53517586565E+02  0.10185821075E+03  0.00000000000E+00 0. -1.
         -5    1    5    5    0  502 -0.58977455382E+02 -0.30500020495E+02 -0.96942481259E+02  0.11759475399E+03  0.47000000000E+01 0.  1.
         13    1    6    6    0    0  0.10577478087E+02  0.71713753042E+02 -0.13085859185E+03  0.14959517532E+03  0.00000000000E+00 0. -1.
        -14    1    6    6    0    0  0.33954758237E+02 -0.96330925782E+01 -0.67699585927E+02  0.76347599924E+02  0.00000000000E+00 0.  1.
</event>
<event>
12    1  0.8563264E-002  0.2603866E+03  0.7818608E-02  0.1106970E+00
         21   -1    0    0  501  502  0.00000000000E+00  0.00000000000E+00  0.38330178712E+03  0.38330178712E+03  0.00000000000E+00 0.  1.
         21   -1    0    0  502  503 -0.00000000000E+00 -0.00000000000E+00 -0.36177585678E+03  0.36177585678E+03  0.00000000000E+00 0.  1.
         -6    2    1    2    0  503 -0.18269490789E+03 -0.68608795300E+02 -0.25574540103E+03  0.36497518584E+03  0.17238497605E+03 0.  0.
        -24    2    3    3    0    0 -0.38429535697E+02 -0.39117785646E+02 -0.39547701465E+02  0.10335379420E+03  0.78172602084E+02 0.  0.
          6    2    1    2  501    0  0.18269490789E+03  0.68608795300E+02  0.27727133137E+03  0.38010245807E+03  0.17179607466E+03 0.  0.
         24    2    5    5    0    0  0.86335281215E+02  0.21253787780E+02  0.60507571704E+02  0.13815971299E+03  0.86726211629E+02 0.  0.
          5    1    5    5  501    0  0.96359626673E+02  0.47355007520E+02  0.21676375966E+03  0.24194274507E+03  0.47000000000E+01 0. -1.
        -13    1    6    6    0    0  0.92344412145E+02  0.39611633449E+02  0.35516828885E+02  0.10657399820E+03  0.00000000000E+00 0.  1.
         14    1    6    6    0    0 -0.60091309301E+01 -0.18357845670E+02  0.24990742819E+02  0.31585714790E+02  0.00000000000E+00 0. -1.
         -5    1    3    3    0  503 -0.14426537219E+03 -0.29491009654E+02 -0.21619769957E+03  0.26162139164E+03  0.47000000000E+01 0.  1.
         11    1    4    4    0    0  0.23532074955E+02 -0.39071179567E+01 -0.13919950819E+02  0.27618637787E+02  0.00000000000E+00 0. -1.
        -12    1    4    4    0    0 -0.61961610651E+02 -0.35210667689E+02 -0.25627750646E+02  0.75735156412E+02  0.00000000000E+00 0.  1.
</event>
<event>
12    1  0.8563264E-002  0.2024297E+03  0.7818608E-02  0.1148073E+00
         21   -1    0    0  501  502  0.00000000000E+00  0.00000000000E+00  0.29861587765E+02  0.29861587765E+02  0.00000000000E+00 0. -1.
         21   -1    0    0  502  503 -0.00000000000E+00 -0.00000000000E+00 -0.13608642592E+04  0.13608642592E+04  0.00000000000E+00 0.  1.
         -6    2    1    2    0  503 -0.45317325801E+02  0.94818820488E+02 -0.67638257637E+03  0.70552130153E+03  0.17094633241E+03 0.  0.
        -24    2    3    3    0    0  0.15960156063E+02  0.79429925395E+02 -0.25570544938E+03  0.28010023594E+03  0.80666137279E+02 0.  0.
          6    2    1    2  501    0  0.45317325801E+02 -0.94818820488E+02 -0.65462009507E+03  0.68520454544E+03  0.17301309626E+03 0.  0.
         24    2    5    5    0    0 -0.17691095274E+02 -0.31760858656E+02 -0.48513414381E+03  0.49364790798E+03  0.83734058624E+02 0.  0.
          5    1    5    5  501    0  0.63008421075E+02 -0.63057961832E+02 -0.16948595127E+03  0.19155663746E+03  0.47000000000E+01 0. -1.
        -13    1    6    6    0    0 -0.11422800190E+02 -0.60586720129E+02 -0.31545390829E+03  0.32142246231E+03  0.00000000000E+00 0.  1.
         14    1    6    6    0    0 -0.62682950834E+01  0.28825861473E+02 -0.16968023552E+03  0.17222544568E+03  0.00000000000E+00 0. -1.
         -5    1    3    3    0  503 -0.61277481864E+02  0.15388895092E+02 -0.42067712699E+03  0.42542106559E+03  0.47000000000E+01 0.  1.
         11    1    4    4    0    0  0.33028076222E+02  0.10219270343E+02 -0.39738098358E+02  0.52672609261E+02  0.00000000000E+00 0. -1.
        -12    1    4    4    0    0 -0.17067920159E+02  0.69210655052E+02 -0.21596735102E+03  0.22742762668E+03  0.00000000000E+00 0.  1.
</event>
<event>
12    1  0.8563264E-002  0.2985298E+03  0.7818608E-02  0.1086099E+00
         21   -1    0    0  503  502  0.00000000000E+00  0.00000000000E+00  0.32753094239E+03  0.32753094239E+03  0.00000000000E+00 0. -1.
         21   -1    0    0  501  503 -0.00000000000E+00 -0.00000000000E+00 -0.32719401795E+03  0.32719401795E+03  0.00000000000E+00 0. -1.
          6    2    1    2  501    0 -0.99684688491E+02 -0.22199828032E+03  0.13557028593E+03  0.32787091314E+03  0.17291546974E+03 0.  0.
         24    2    3    3    0    0 -0.13516111167E+03 -0.15858243517E+03  0.84897865721E+02  0.23915828615E+03  0.81068633765E+02 0.  0.
         -6    2    1    2    0  502  0.99684688491E+02  0.22199828032E+03 -0.13523336149E+03  0.32685404720E+03  0.17124611682E+03 0.  0.
        -24    2    5    5    0    0 -0.66552830292E+01  0.15383819360E+03 -0.72427757134E+02  0.18571361747E+03  0.74386054539E+02 0.  0.
          5    1    3    3  501    0  0.35476423179E+02 -0.63415845153E+02  0.50672420204E+02  0.88712626990E+02  0.47000000000E+01 0. -1.
        -13    1    4    4    0    0 -0.19307317561E+02 -0.16232438233E+02 -0.15847693963E+02  0.29789494227E+02  0.00000000000E+00 0.  1.
         14    1    4    4    0    0 -0.11585379411E+03 -0.14234999694E+03  0.10074555968E+03  0.20936879193E+03  0.00000000000E+00 0. -1.
         -5    1    5    5    0  502  0.10633997152E+03  0.68160086724E+02 -0.62805604352E+02  0.14114042973E+03  0.47000000000E+01 0.  1.
         13    1    6    6    0    0 -0.10187064014E+02  0.89567797502E+02 -0.80481090560E+02  0.12084441468E+03  0.00000000000E+00 0. -1.
        -14    1    6    6    0    0  0.35317809846E+01  0.64270396096E+02  0.80533334260E+01  0.64869202789E+02  0.00000000000E+00 0.  1.
</event>
<event>
12    1  0.8563264E-002  0.2368825E+03  0.7818608E-02  0.1122168E+00
         21   -1    0    0  503  502  0.00000000000E+00  0.00000000000E+00  0.85989192168E+02  0.85989192168E+02  0.00000000000E+00 0. -1.
         21   -1    0    0  501  503 -0.00000000000E+00 -0.00000000000E+00 -0.66133533646E+03  0.66133533646E+03  0.00000000000E+00 0.  1.
          6    2    1    2  501    0 -0.16256236661E+03  0.84701338814E+00 -0.34166980943E+03  0.41575421731E+03  0.17229645981E+03 0.  0.
         24    2    3    3    0    0 -0.18087941765E+03  0.16875910278E+02 -0.22983217199E+03  0.30120210234E+03  0.69983705941E+02 0.  0.
         -6    2    1    2    0  502  0.16256236661E+03 -0.84701338814E+00 -0.23367633486E+03  0.33157031132E+03  0.17002059112E+03 0.  0.
        -24    2    5    5    0    0  0.15410951570E+03  0.51042666517E+02 -0.19773289658E+03  0.26771101031E+03  0.78840281709E+02 0.  0.
          5    1    3    3  501    0  0.18317051040E+02 -0.16028896890E+02 -0.11183763745E+03  0.11455211497E+03  0.47000000000E+01 0. -1.
        -13    1    4    4    0    0 -0.20123449376E+02 -0.21433864479E+02 -0.33141537180E+02  0.44302655089E+02  0.00000000000E+00 0.  1.
         14    1    4    4    0    0 -0.16075596828E+03  0.38309774757E+02 -0.19669063481E+03  0.25689944725E+03  0.00000000000E+00 0. -1.
         -5    1    5    5    0  502  0.84528509169E+01 -0.51889679906E+02 -0.35943438276E+02  0.63859301002E+02  0.47000000000E+01 0.  1.
         13    1    6    6    0    0  0.75749239749E+02  0.65833574830E+02 -0.11865531792E+03  0.15540621406E+03  0.00000000000E+00 0. -1.
        -14    1    6    6    0    0  0.78360275946E+02 -0.14790908312E+02 -0.79077578666E+02  0.11230479626E+03  0.00000000000E+00 0.  1.
</event>
<event>
12    1  0.8563264E-002  0.2212377E+03  0.7818608E-02  0.1133085E+00
         21   -1    0    0  503  502  0.00000000000E+00  0.00000000000E+00  0.21300600397E+04  0.21300600397E+04  0.00000000000E+00 0. -1.
         21   -1    0    0  501  503 -0.00000000000E+00 -0.00000000000E+00 -0.27161223360E+02  0.27161223360E+02  0.00000000000E+00 0.  1.
          6    2    1    2  501    0  0.11084292024E+03  0.82774831618E+02  0.62608092689E+03  0.66402066389E+03  0.17265077274E+03 0.  0.
         24    2    3    3    0    0  0.13204923155E+03  0.35533265267E+02  0.55128010422E+03  0.57292331868E+03  0.75045075023E+02 0.  0.
         -6    2    1    2    0  502 -0.11084292024E+03 -0.82774831618E+02  0.14768178894E+04  0.14932005991E+04  0.17181130658E+03 0.  0.
        -24    2    5    5    0    0 -0.68040719257E+02 -0.10729548804E+03  0.13268751487E+04  0.13352822453E+04  0.78988309448E+02 0.  0.
          5    1    3    3  501    0 -0.21206311309E+02  0.47241566350E+02  0.74800822673E+02  0.91097345203E+02  0.47000000000E+01 0. -1.
        -11    1    4    4    0    0  0.44577822677E+02 -0.22895105572E+02  0.20374973664E+03  0.20982212304E+03  0.00000000000E+00 0.  1.
         12    1    4    4    0    0  0.87471408876E+02  0.58428370839E+02  0.34753036758E+03  0.36310119565E+03  0.00000000000E+00 0. -1.
         -5    1    5    5    0  502 -0.42802200987E+02  0.24520656426E+02  0.14994274071E+03  0.15791835388E+03  0.47000000000E+01 0.  1.
         11    1    6    6    0    0 -0.52197510769E+02 -0.20510687209E+02  0.69801348731E+03  0.70026287699E+03  0.00000000000E+00 0. -1.
        -12    1    6    6    0    0 -0.15843208489E+02 -0.86784800835E+02  0.62886166139E+03  0.63501936827E+03  0.00000000000E+00 0.  1.
</event>
<event>
12    1  0.8563264E-002  0.2465658E+03  0.7818608E-02  0.1115716E+00
         21   -1    0    0  503  502  0.00000000000E+00  0.00000000000E+00  0.35110859151E+03  0.35110859151E+03  0.00000000000E+00 0. -1.
         21   -1    0    0  501  503 -0.00000000000E+00 -0.00000000000E+00 -0.17824033496E+03  0.17824033496E+03  0.00000000000E+00 0. -1.
          6    2    1    2  501    0 -0.56592958152E+02 -0.16587795780E+03  0.13497738206E+03  0.27988872219E+03  0.17146586641E+03 0.  0.
         24    2    3    3    0    0 -0.42444892061E+01 -0.78852447658E+02  0.84213250361E+00  0.11157901721E+03  0.78825400122E+02 0.  0.
         -6    2    1    2    0  502  0.56592958152E+02  0.16587795780E+03  0.37890874495E+02  0.24946020428E+03  0.17342553258E+03 0.  0.
        -24    2    5    5    0    0  0.51220241734E+01  0.16640764322E+03  0.58423039755E+02  0.19384368316E+03  0.80276914940E+02 0.  0.
          5    1    3    3  501    0 -0.52348468946E+02 -0.87025510144E+02  0.13413524956E+03  0.16830970498E+03  0.47000000000E+01 0. -1.
        -13    1    4    4    0    0 -0.16946934312E+02  0.92430448393E+01  0.10628137113E+02  0.22036101265E+02  0.00000000000E+00 0.  1.
         14    1    4    4    0    0  0.12702445106E+02 -0.88095492497E+02 -0.97860046094E+01  0.89542915947E+02  0.00000000000E+00 0. -1.
         -5    1    5    5    0  502  0.51470933978E+02 -0.52968541710E+00 -0.20532165260E+02  0.55616521120E+02  0.47000000000E+01 0.  1.
         11    1    6    6    0    0  0.35106939451E+02  0.78463553539E+02  0.37602575796E+01  0.86041652521E+02  0.00000000000E+00 0. -1.
        -12    1    6    6    0    0 -0.29984915278E+02  0.87944089681E+02  0.54662782175E+02  0.10780203064E+03  0.00000000000E+00 0.  1.
</event>
<event>
12    1  0.8563264E-002  0.1767960E+03  0.7818608E-02  0.1171840E+00
         21   -1    0    0  501  502  0.00000000000E+00  0.00000000000E+00  0.33213434504E+03  0.33213434504E+03  0.00000000000E+00 0.  1.
         21   -1    0    0  502  503 -0.00000000000E+00 -0.00000000000E+00 -0.32462501365E+03  0.32462501365E+03  0.00000000000E+00 0.  1.
         -6    2    1    2    0  503  0.12467022445E+02  0.25453693472E+02 -0.27410908156E+03  0.32424503902E+03  0.17086760834E+03 0.  0.
        -24    2    3    3    0    0  0.31467857857E+02  0.22042590649E+02 -0.57246699493E+02  0.10647440252E+03  0.81138843398E+02 0.  0.
          6    2    1    2  501    0 -0.12467022445E+02 -0.25453693472E+02  0.28161841295E+03  0.33251431966E+03  0.17450938401E+03 0.  0.
         24    2    5    5    0    0 -0.64157593639E+02  0.21772990504E+02  0.19297264811E+03  0.21945488195E+03  0.79572246164E+02 0.  0.
          5    1    5    5  501    0  0.51690571194E+02 -0.47226683976E+02  0.88645764843E+02  0.11305943771E+03  0.47000000000E+01 0. -1.
        -11    1    6    6    0    0 -0.64629479634E+01 -0.16333835625E+02  0.37043902103E+01  0.17952336601E+02  0.00000000000E+00 0.  1.
         12    1    6    6    0    0 -0.57694645675E+02  0.38106826128E+02  0.18926825789E+03  0.20150254535E+03  0.00000000000E+00 0. -1.
         -5    1    3    3    0  503 -0.19000835413E+02  0.34111028235E+01 -0.21686238207E+03  0.21777063651E+03  0.47000000000E+01 0.  1.
         11    1    4    4    0    0 -0.14209777288E+02  0.15494001539E+02  0.11280814830E+02  0.23858722461E+02  0.00000000000E+00 0. -1.
        -12    1    4    4    0    0  0.45677635145E+02  0.65485891102E+01 -0.68527514323E+02  0.82615680056E+02  0.00000000000E+00 0.  1.
</event>
<event>
12    1  0.8563264E-002  0.2324574E+03  0.7818608E-02  0.1124997E+00
         21   -1    0    0  503  502  0.00000000000E+00  0.00000000000E+00  0.17089081700E+03  0.17089081700E+03  0.00000000000E+00 0. -1.
         21   -1    0    0  501  503 -0.00000000000E+00 -0.00000000000E+00 -0.31757218885E+03  0.31757218885E+03  0.00000000000E+00 0.  1.
          6    2    1    2  501    0  0.12324714808E+03  0.96943355243E+02 -0.54103762893E+02  0.23824899452E+03  0.17101898314E+03 0.  0.
         24    2    3    3    0    0  0.12372863526E+03  0.11358349018E+03 -0.81018224380E+02  0.20625518015E+03  0.88132072671E+02 0.  0.
         -6    2    1    2    0  502 -0.12324714808E+03 -0.96943355243E+02 -0.92577608957E+02  0.25021401133E+03  0.17160583949E+03 0.  0.
        -24    2    5    5    0    0 -0.11612789788E+03 -0.13435809468E+03 -0.78368091748E+02  0.20929278420E+03  0.78256791671E+02 0.  0.
          5    1    3    3  501    0 -0.48148717455E+00 -0.16640134940E+02  0.26914461487E+02  0.31993814368E+02  0.47000000000E+01 0. -1.
        -13    1    4    4    0    0  0.51211134549E+02 -0.38010816728E+01 -0.27586770787E+02  0.58292867884E+02  0.00000000000E+00 0.  1.
         14    1    4    4    0    0  0.72517500707E+02  0.11738457186E+03 -0.53431453593E+02  0.14796231227E+03  0.00000000000E+00 0. -1.
         -5    1    5    5    0  502 -0.71192501990E+01  0.37414739433E+02 -0.14209517209E+02  0.40921227126E+02  0.47000000000E+01 0.  1.
         13    1    6    6    0    0 -0.78597803757E+02 -0.97463638287E+02 -0.91468331163E+02  0.15505879901E+03  0.00000000000E+00 0. -1.
        -14    1    6    6    0    0 -0.37530094125E+02 -0.36894456389E+02  0.13100239415E+02  0.54233985194E+02  0.00000000000E+00 0.  1.
</event>
<event>
12    1  0.8563264E-002  0.2501146E+03  0.7818608E-02  0.1113401E+00
         21   -1    0    0  501  502  0.00000000000E+00  0.00000000000E+00  0.70841236170E+03  0.70841236170E+03  0.00000000000E+00 0.  1.
         21   -1    0    0  502  503 -0.00000000000E+00 -0.00000000000E+00 -0.18306522140E+03  0.18306522140E+03  0.00000000000E+00 0. -1.
         -6    2    1    2    0  503  0.18019541135E+03  0.12962686981E+02 -0.58383875363E+02  0.25683848740E+03  0.17297084778E+03 0.  0.
        -24    2    3    3    0    0  0.92792018483E+02  0.23812187925E+02 -0.10018530882E+03  0.15923462173E+03  0.78365742935E+02 0.  0.
          6    2    1    2  501    0 -0.18019541135E+03 -0.12962686981E+02  0.58373101567E+03  0.63463909570E+03  0.17142481039E+03 0.  0.
         24    2    5    5    0    0 -0.98813199094E+02  0.54572556833E+02  0.27417870550E+03  0.30748653747E+03  0.81435839171E+02 0.  0.
          5    1    5    5  501    0 -0.81382212261E+02 -0.67535243815E+02  0.30955231016E+03  0.32715255823E+03  0.47000000000E+01 0. -1.
        -11    1    6    6    0    0 -0.85137774574E+00 -0.92160153294E+01  0.82183117804E+02  0.82702627737E+02  0.00000000000E+00 0.  1.
         12    1    6    6    0    0 -0.97961821348E+02  0.63788572163E+02  0.19199558770E+03  0.22478390973E+03  0.00000000000E+00 0. -1.
         -5    1    3    3    0  503  0.87403392872E+02 -0.10849500943E+02  0.41801433454E+02  0.97603865676E+02  0.47000000000E+01 0.  1.
         13    1    4    4    0    0 -0.30977989928E+00 -0.53295982978E+01 -0.48575792340E+02  0.48868273788E+02  0.00000000000E+00 0. -1.
        -14    1    4    4    0    0  0.93101798383E+02  0.29141786222E+02 -0.51609516478E+02  0.11036634794E+03  0.00000000000E+00 0.  1.
</event>
<event>
12    1  0.8563264E-002  0.2136727E+03  0.7818608E-02  0.1138824E+00
         21   -1    0    0  501  502  0.00000000000E+00  0.00000000000E+00  0.29298396940E+03  0.29298396940E+03  0.00000000000E+00 0. -1.
         21   -1    0    0  502  503 -0.00000000000E+00 -0.00000000000E+00 -0.16023415114E+03  0.16023415114E+03  0.00000000000E+00 0.  1.
         -6    2    1    2    0  503  0.10673187268E+03  0.67699006816E+02  0.10591882997E+03  0.23786744521E+03  0.17142717048E+03 0.  0.
        -24    2    3    3    0    0  0.54933309058E+02 -0.31078492239E+02  0.57001537531E+02  0.11598603969E+03  0.78867261891E+02 0.  0.
          6    2    1    2  501    0 -0.10673187268E+03 -0.67699006816E+02  0.26830988285E+02  0.21535067533E+03  0.17228221981E+03 0.  0.
         24    2    5    5    0    0  0.21601507127E+01 -0.67993252732E+02  0.14324689221E+02  0.10564171100E+03  0.79543860306E+02 0.  0.
          5    1    5    5  501    0 -0.10889202339E+03  0.29424591685E+00  0.12506299064E+02  0.10970896433E+03  0.47000000000E+01 0. -1.
        -11    1    6    6    0    0 -0.33769361364E+02 -0.29910405143E+02  0.25904487124E+02  0.52019655476E+02  0.00000000000E+00 0.  1.
         12    1    6    6    0    0  0.35929512076E+02 -0.38082847589E+02 -0.11579797903E+02  0.53622055519E+02  0.00000000000E+00 0. -1.
         -5    1    3    3    0  503  0.51798563620E+02  0.98777499054E+02  0.48917292441E+02  0.12188140552E+03  0.47000000000E+01 0.  1.
         11    1    4    4    0    0 -0.98728506977E+01  0.17320855705E+02  0.14180066423E+02  0.24465475818E+02  0.00000000000E+00 0. -1.
        -12    1    4    4    0    0  0.64806159756E+02 -0.48399347943E+02  0.42821471108E+02  0.91520563872E+02  0.00000000000E+00 0.  1.
</event>
<event>
12    1  0.8563264E-002  0.1865074E+03  0.7818608E-02  0.1162600E+00
         21   -1    0    0  503  502  0.00000000000E+00  0.00000000000E+00  0.17185352629E+03  0.17185352629E+03  0.00000000000E+00 0. -1.
         21   -1    0    0  501  503 -0.00000000000E+00 -0.00000000000E+00 -0.20495753793E+03  0.20495753793E+03  0.00000000000E+00 0.  1.
          6    2    1    2  501    0  0.32369984323E+02  0.12117383657E+02 -0.51033448033E+02  0.18944379646E+03  0.17913651869E+03 0.  0.
         24    2    3    3    0    0 -0.50424336243E+02  0.22568326215E+02 -0.11513638374E+02  0.96988255398E+02  0.78881016619E+02 0.  0.
         -6    2    1    2    0  502 -0.32369984323E+02 -0.12117383657E+02  0.17929436401E+02  0.18736726776E+03  0.18327678921E+03 0.  0.
        -24    2    5    5    0    0 -0.83121081038E+02 -0.37608956695E+02  0.38101367354E+02  0.12691488226E+03  0.79574653050E+02 0.  0.
          5    1    3    3  501    0  0.82794320565E+02 -0.10450942558E+02 -0.39519809659E+02  0.92455541066E+02  0.47000000000E+01 0. -1.
        -11    1    4    4    0    0 -0.50507501699E+02  0.17811788501E+02 -0.40794447453E+02  0.67323506151E+02  0.00000000000E+00 0.  1.
         12    1    4    4    0    0  0.83165456555E-01  0.47565377139E+01  0.29280809080E+02  0.29664749247E+02  0.00000000000E+00 0. -1.
         -5    1    5    5    0  502  0.50751096715E+02  0.25491573038E+02 -0.20171930954E+02  0.60452385496E+02  0.47000000000E+01 0.  1.
         11    1    6    6    0    0 -0.63502830023E+02 -0.38246221948E+02  0.61537722411E+02  0.96344559752E+02  0.00000000000E+00 0. -1.
        -12    1    6    6    0    0 -0.19618251015E+02  0.63726525295E+00 -0.23436355057E+02  0.30570322508E+02  0.00000000000E+00 0.  1.
</event>
<event>
12    1  0.8563264E-002  0.1921763E+03  0.7818608E-02  0.1156786E+00
         21   -1    0    0  503  502  0.00000000000E+00  0.00000000000E+00  0.28648953944E+03  0.28648953944E+03  0.00000000000E+00 0. -1.
         21   -1    0    0  501  503 -0.00000000000E+00 -0.00000000000E+00 -0.15158828682E+03  0.15158828682E+03  0.00000000000E+00 0. -1.
          6    2    1    2  501    0 -0.82011686370E+02 -0.23435652351E+01 -0.18604525376E+02  0.19307473074E+03  0.17378237623E+03 0.  0.
         24    2    3    3    0    0 -0.29673672565E+02  0.56832449377E+02  0.87189413548E+01  0.10935059904E+03  0.88153726109E+02 0.  0.
         -6    2    1    2    0  502  0.82011686370E+02  0.23435652351E+01  0.15350577799E+03  0.24500309552E+03  0.17242703947E+03 0.  0.
        -24    2    5    5    0    0  0.56900990381E+02  0.61347571221E+02  0.13186768062E+03  0.17716271645E+03  0.83643862328E+02 0.  0.
          5    1    3    3  501    0 -0.52338013805E+02 -0.59176014612E+02 -0.27323466731E+02  0.83724131698E+02  0.47000000000E+01 0. -1.
        -11    1    4    4    0    0 -0.54823620341E+02  0.20767178871E+02  0.23214849688E+02  0.63054217238E+02  0.00000000000E+00 0.  1.
         12    1    4    4    0    0  0.25149947776E+02  0.36065270505E+02 -0.14495908333E+02  0.46296381804E+02  0.00000000000E+00 0. -1.
         -5    1    5    5    0  502  0.25110695989E+02 -0.59004005986E+02  0.21638097370E+02  0.67840379076E+02  0.47000000000E+01 0.  1.
         11    1    6    6    0    0 -0.80499560722E+01 -0.14565650382E+02  0.31042028481E+02  0.35221690704E+02  0.00000000000E+00 0. -1.
        -12    1    6    6    0    0  0.64950946453E+02  0.75913221603E+02  0.10082565214E+03  0.14194102574E+03  0.00000000000E+00 0.  1.
</event>
<event>
12    1  0.8563264E-002  0.1751425E+03  0.7818608E-02  0.1172760E+00
         21   -1    0    0  501  502  0.00000000000E+00  0.00000000000E+00  0.26730100971E+03  0.26730100971E+03  0.00000000000E+00 0. -1.
         21   -1    0    0  502  503 -0.00000000000E+00 -0.00000000000E+00 -0.17255491756E+03  0.17255491756E+03  0.00000000000E+00 0.  1.
         -6    2    1    2    0  503  0.13294984077E+02  0.26705001811E+02  0.17508393500E+03  0.24716692455E+03  0.17189296255E+03 0.  0.
        -24    2    3    3    0    0 -0.38591009944E+02  0.38612287898E+02  0.16695099380E+03  0.19310978284E+03  0.80240756925E+02 0.  0.
          6    2    1    2  501    0 -0.13294984077E+02 -0.26705001811E+02 -0.80337842852E+02  0.19268900272E+03  0.17258322355E+03 0.  0.
         24    2    5    5    0    0  0.55731674622E+02  0.63042595483E+01 -0.29377627191E+02  0.10063833989E+03  0.78225745330E+02 0.  0.
          5    1    5    5  501    0 -0.69026658699E+02 -0.33009261360E+02 -0.50960215662E+02  0.92050662828E+02  0.47000000000E+01 0. -1.
        -13    1    6    6    0    0  0.63355096343E+01 -0.31794296062E+02 -0.19055537587E+01  0.32475330322E+02  0.00000000000E+00 0.  1.
         14    1    6    6    0    0  0.49396164988E+02  0.38098555610E+02 -0.27472073432E+02  0.68163009571E+02  0.00000000000E+00 0. -1.
         -5    1    3    3    0  503  0.51885994021E+02 -0.11907286086E+02  0.81329411964E+01  0.54057141711E+02  0.47000000000E+01 0.  1.
         11    1    4    4    0    0 -0.57470830862E+02  0.31120117281E+02  0.77485500269E+02  0.10136745460E+03  0.00000000000E+00 0. -1.
        -12    1    4    4    0    0  0.18879820918E+02  0.74921706169E+01  0.89465493531E+02  0.91742328241E+02  0.00000000000E+00 0.  1.
</event>
<event>
12    1  0.8563264E-002  0.1931946E+03  0.7818608E-02  0.1155739E+00
         21   -1    0    0  501  502  0.00000000000E+00  0.00000000000E+00  0.42273596129E+03  0.42273596129E+03  0.00000000000E+00 0.  1.
         21   -1    0    0  502  503 -0.00000000000E+00 -0.00000000000E+00 -0.98241384826E+02  0.98241384826E+02  0.00000000000E+00 0.  1.
         -6    2    1    2    0  503 -0.87339799899E+02  0.11345630046E+02  0.24601702370E+03  0.31245187450E+03  0.17130333902E+03 0.  0.
        -24    2    3    3    0    0 -0.50568503524E+01 -0.44993515967E+02  0.10055086476E+03  0.13602320178E+03  0.79635713118E+02 0.  0.
          6    2    1    2  501    0  0.87339799899E+02 -0.11345630046E+02  0.78477552759E+02  0.20852547162E+03  0.17195110368E+03 0.  0.
         24    2    5    5    0    0  0.64233216316E+02  0.18556647488E+02  0.11535668309E+03  0.15551395720E+03  0.80044808123E+02 0.  0.
          5    1    5    5  501    0  0.23106583583E+02 -0.29902277534E+02 -0.36879130329E+02  0.53011514413E+02  0.47000000000E+01 0. -1.
        -13    1    6    6    0    0  0.49354715053E+02 -0.26457920245E+02  0.72467674248E+02  0.91583149392E+02  0.00000000000E+00 0.  1.
         14    1    6    6    0    0  0.14878501263E+02  0.45014567733E+02  0.42889008840E+02  0.63930807810E+02  0.00000000000E+00 0. -1.
         -5    1    3    3    0  503 -0.82282949547E+02  0.56339146013E+02  0.14546615895E+03  0.17642867272E+03  0.47000000000E+01 0.  1.
         11    1    4    4    0    0  0.36484662703E+02 -0.23236830076E+02  0.60382497265E+02  0.74277364388E+02  0.00000000000E+00 0. -1.
        -12    1    4    4    0    0 -0.41541513055E+02 -0.21756685891E+02  0.40168367493E+02  0.61745837389E+02  0.00000000000E+00 0.  1.
</event>
<event>
12    1  0.8563264E-002  0.3187699E+03  0.7818608E-02  0.1076317E+00
         21   -1    0    0  501  502  0.00000000000E+00  0.00000000000E+00  0.22165330815E+04  0.22165330815E+04  0.00000000000E+00 0.  1.
         21   -1    0    0  502  503 -0.00000000000E+00 -0.00000000000E+00 -0.47442314477E+02  0.47442314477E+02  0.00000000000E+00 0. -1.
         -6    2    1    2    0  503 -0.45069631973E+02 -0.26440167605E+03  0.87023102616E+03  0.92677737096E+03  0.17226357247E+03 0.  0.
        -24    2    3    3    0    0 -0.13070196893E+02 -0.27231180375E+03  0.75119749665E+03  0.80317476130E+03  0.80420580126E+02 0.  0.
          6    2    1    2  501    0  0.45069631973E+02  0.26440167605E+03  0.12988597409E+04  0.13371980250E+04  0.17065290405E+03 0.  0.
         24    2    5    5    0    0  0.58326508585E+02  0.90354109438E+02  0.72738703221E+03  0.73964346939E+03  0.80091950201E+02 0.  0.
          5    1    5    5  501    0 -0.13256876611E+02  0.17404756661E+03  0.57147270865E+03  0.59755455562E+03  0.47000000000E+01 0. -1.
        -13    1    6    6    0    0  0.19445947012E+02 -0.77843879752E+01  0.24230892339E+03  0.24321257349E+03  0.00000000000E+00 0.  1.
         14    1    6    6    0    0  0.38880561573E+02  0.98138497413E+02  0.48507810882E+03  0.49643089590E+03  0.00000000000E+00 0. -1.
         -5    1    3    3    0  503 -0.31999435080E+02  0.79101277015E+01  0.11903352952E+03  0.12360260966E+03  0.47000000000E+01 0.  1.
         13    1    4    4    0    0  0.11683890845E+02 -0.15698605174E+03  0.32756746966E+03  0.36343029720E+03  0.00000000000E+00 0. -1.
        -14    1    4    4    0    0 -0.24754087739E+02 -0.11532575202E+03  0.42363002699E+03  0.43974446410E+03  0.00000000000E+00 0.  1.
</event>
<event>
12    1  0.8563264E-002  0.1891977E+03  0.7818608E-02  0.1159336E+00
         21   -1    0    0  501  502  0.00000000000E+00  0.00000000000E+00  0.12597823465E+04  0.12597823465E+04  0.00000000000E+00 0.  1.
         21   -1    0    0  502  503 -0.00000000000E+00 -0.00000000000E+00 -0.29104008610E+02  0.29104008610E+02  0.00000000000E+00 0. -1.
         -6    2    1    2    0  503 -0.56936141700E+02 -0.50340676225E+02  0.51031650455E+03  0.54425977906E+03  0.17326241480E+03 0.  0.
        -24    2    3    3    0    0 -0.71423084195E+02 -0.14734696667E+02  0.48732870677E+03  0.49922439154E+03  0.80108404206E+02 0.  0.
          6    2    1    2  501    0  0.56936141700E+02  0.50340676225E+02  0.72036183332E+03  0.74462657602E+03  0.17254465769E+03 0.  0.
         24    2    5    5    0    0  0.74244577234E+02 -0.90804207110E+01  0.29489859661E+03  0.31465971161E+03  0.80317124809E+02 0.  0.
          5    1    5    5  501    0 -0.17308435534E+02  0.59421096936E+02  0.42546323671E+03  0.42996686441E+03  0.47000000000E+01 0. -1.
        -13    1    6    6    0    0  0.50268525579E+01 -0.21793243672E+02  0.16860367749E+03  0.17008061259E+03  0.00000000000E+00 0.  1.
         14    1    6    6    0    0  0.69217724676E+02  0.12712822961E+02  0.12629491913E+03  0.14457909902E+03  0.00000000000E+00 0. -1.
         -5    1    3    3    0  503  0.14486942495E+02 -0.35605979558E+02  0.22987797780E+02  0.45035387529E+02  0.47000000000E+01 0.  1.
         13    1    4    4    0    0 -0.41890858008E+02  0.30322752800E+02  0.29474945409E+03  0.29925165665E+03  0.00000000000E+00 0. -1.
        -14    1    4    4    0    0 -0.29532226187E+02 -0.45057449468E+02  0.19257925268E+03  0.19997273489E+03  0.00000000000E+00 0.  1.
</event>
<event>
12    1  0.8563264E-002  0.1922742E+03  0.7818608E-02  0.1157708E+00
         21   -1    0    0  501  502  0.00000000000E+00  0.00000000000E+00  0.21351536712E+03  0.21351536712E+03  0.00000000000E+00 0. -1.
         21   -1    0    0  502  503 -0.00000000000E+00 -0.00000000000E+00 -0.17684152687E+03  0.17684152687E+03  0.00000000000E+00 0.  1.
         -6    2    1    2    0  503 -0.76308080084E+02 -0.33825578111E+02 -0.25391882509E+02  0.18831356085E+03  0.16688366211E+03 0.  0.
        -24    2    3    3    0    0  0.13868269582E+02  0.11079447398E+02 -0.24547220804E+02  0.87461992646E+02  0.82048467704E+02 0.  0.
          6    2    1    2  501    0  0.76308080084E+02  0.33825578111E+02  0.62065722756E+02  0.20204333314E+03  0.17321160962E+03 0.  0.
         24    2    5    5    0    0  0.81417668327E+02  0.46800188613E+02  0.10132699193E+03  0.16011499348E+03  0.80935514286E+02 0.  0.
          5    1    5    5  501    0 -0.51095882421E+01 -0.12974610502E+02 -0.39261269176E+02  0.41928339664E+02  0.47000000000E+01 0. -1.
        -11    1    6    6    0    0  0.20504437487E+02  0.52662068394E+02  0.23733819867E+02  0.61294531645E+02  0.00000000000E+00 0.  1.
         12    1    6    6    0    0  0.60913230840E+02 -0.58618797807E+01  0.77593172064E+02  0.98820461833E+02  0.00000000000E+00 0. -1.
         -5    1    3    3    0  503 -0.90176349666E+02 -0.44905025509E+02 -0.84466170475E+00  0.10085156820E+03  0.47000000000E+01 0.  1.
         11    1    4    4    0    0 -0.51204593227E+01  0.22666275210E+02  0.24401449834E+02  0.33695843803E+02  0.00000000000E+00 0. -1.
        -12    1    4    4    0    0  0.18988728905E+02 -0.11586827813E+02 -0.48948670638E+02  0.53766148843E+02  0.00000000000E+00 0.  1.
</event>
<event>
12    1  0.8563264E-002  0.2694444E+03  0.7818608E-02  0.1101647E+00
         21   -1    0    0  501  502  0.00000000000E+00  0.00000000000E+00  0.22615407104E+02  0.22615407104E+02  0.00000000000E+00 0.  1.
         21   -1    0    0  502  503 -0.00000000000E+00 -0.00000000000E+00 -0.32140844365E+04  0.32140844365E+04  0.00000000000E+00 0.  1.
         -6    2    1    2    0  503  0.19646071934E+03 -0.67950608254E+02 -0.16752503248E+04  0.16967260012E+04  0.17088409213E+03 0.  0.
        -24    2    3    3    0    0  0.11612281917E+03 -0.10296712901E+03 -0.12532986636E+04  0.12657438330E+04  0.85224243775E+02 0.  0.
          6    2    1    2  501    0 -0.19646071934E+03  0.67950608254E+02 -0.15162187046E+04  0.15399738425E+04  0.17142396498E+03 0.  0.
         24    2    5    5    0    0 -0.15437454253E+03  0.10165651250E+03 -0.95119054111E+03  0.97235931672E+03  0.80954613164E+02 0.  0.
          5    1    5    5  501    0 -0.42086176814E+02 -0.33705904244E+02 -0.56502816352E+03  0.56761452574E+03  0.47000000000E+01 0. -1.
        -13    1    6    6    0    0 -0.77079639388E+02  0.85661397455E+02 -0.42772190847E+03  0.44297311071E+03  0.00000000000E+00 0.  1.
         14    1    6    6    0    0 -0.77294903139E+02  0.15995115043E+02 -0.52346863264E+03  0.52938620601E+03  0.00000000000E+00 0. -1.
         -5    1    3    3    0  503  0.80337900174E+02  0.35016520759E+02 -0.42195166119E+03  0.43098216821E+03  0.47000000000E+01 0.  1.
         13    1    4    4    0    0 -0.13144863584E+02 -0.16899109600E+02 -0.17976231378E+03  0.18103275063E+03  0.00000000000E+00 0. -1.
        -14    1    4    4    0    0  0.12926768275E+03 -0.86068019412E+02 -0.10735363498E+04  0.10847110823E+04  0.00000000000E+00 0.  1.
</event>
<event>
12    1  0.8563264E-002  0.2139913E+03  0.7818608E-02  0.1138796E+00
         21   -1    0    0  503  502  0.00000000000E+00  0.00000000000E+00  0.46436715140E+02  0.46436715140E+02  0.00000000000E+00 0. -1.
         21   -1    0    0  501  503 -0.00000000000E+00 -0.00000000000E+00 -0.16332208627E+04  0.16332208627E+04  0.00000000000E+00 0.  1.
          6    2    1    2  501    0 -0.10458268080E+03  0.72155005191E+02 -0.13274412101E+04  0.13445789130E+04  0.17218712241E+03 0.  0.
         24    2    3    3    0    0 -0.11199313454E+03  0.85326108725E+02 -0.76382330254E+03  0.78073883948E+03  0.79398305710E+02 0.  0.
         -6    2    1    2    0  502  0.10458268080E+03 -0.72155005191E+02 -0.25934293754E+03  0.33507866492E+03  0.16992666222E+03 0.  0.
        -24    2    5    5    0    0  0.58178494382E+02 -0.10656582480E+03 -0.13500227148E+03  0.19789213402E+03  0.78706233411E+02 0.  0.
          5    1    3    3  501    0  0.74104537388E+01 -0.13171103534E+02 -0.56361790751E+03  0.56384007347E+03  0.47000000000E+01 0. -1.
        -13    1    4    4    0    0 -0.21434508381E+02  0.63949699111E+02 -0.27605236779E+03  0.28417232787E+03  0.00000000000E+00 0.  1.
         14    1    4    4    0    0 -0.90558626158E+02  0.21376409614E+02 -0.48777093476E+03  0.49656651161E+03  0.00000000000E+00 0. -1.
         -5    1    5    5    0  502  0.46404186418E+02  0.34410819610E+02 -0.12434066606E+03  0.13718653090E+03  0.47000000000E+01 0.  1.
         13    1    6    6    0    0  0.76338264230E+02 -0.72752246443E+02 -0.89078854129E+02  0.13804152347E+03  0.00000000000E+00 0. -1.
        -14    1    6    6    0    0 -0.18159769847E+02 -0.33813578358E+02 -0.45923417350E+02  0.59850610552E+02  0.00000000000E+00 0.  1.
</event>
<event>
12    1  0.8563264E-002  0.2030417E+03  0.7818608E-02  0.1147327E+00
         21   -1    0    0  501  502  0.00000000000E+00  0.00000000000E+00  0.59767698033E+03  0.59767698033E+03  0.00000000000E+00 0.  1.
         21   -1    0    0  502  503 -0.00000000000E+00 -0.00000000000E+00 -0.86704683342E+02  0.86704683342E+02  0.00000000000E+00 0. -1.
         -6    2    1    2    0  503  0.62571957236E+02 -0.87792253672E+02  0.10014836207E+03  0.22639708522E+03  0.17205585178E+03 0.  0.
        -24    2    3    3    0    0 -0.22849810543E+02 -0.82653070638E+02  0.51691457341E+02  0.12794175916E+03  0.79645734649E+02 0.  0.
          6    2    1    2  501    0 -0.62571957236E+02  0.87792253672E+02  0.41082393491E+03  0.45798457845E+03  0.17132086553E+03 0.  0.
         24    2    5    5    0    0 -0.90700219309E+02  0.11193870271E+03  0.33090561633E+03  0.36976169155E+03  0.80426231245E+02 0.  0.
          5    1    5    5  501    0  0.28128262073E+02 -0.24146449034E+02  0.79918318579E+02  0.88222886898E+02  0.47000000000E+01 0. -1.
        -13    1    6    6    0    0  0.24480194272E+01  0.31886337430E+02  0.13341574461E+03  0.13719508819E+03  0.00000000000E+00 0.  1.
         14    1    6    6    0    0 -0.93148238736E+02  0.80052365276E+02  0.19748987173E+03  0.23256660336E+03  0.00000000000E+00 0. -1.
         -5    1    3    3    0  503  0.85421767779E+02 -0.51391830337E+01  0.48456904734E+02  0.98455326058E+02  0.47000000000E+01 0.  1.
         11    1    4    4    0    0 -0.44361075830E+02 -0.59623881563E+02  0.89709552552E+01  0.74855796967E+02  0.00000000000E+00 0. -1.
        -12    1    4    4    0    0  0.21511265287E+02 -0.23029189076E+02  0.42720502086E+02  0.53085962195E+02  0.00000000000E+00 0.  1.
</event>
<event>
12    1  0.8563264E-002  0.2018575E+03  0.7818608E-02  0.1148284E+00
         21   -1    0    0  501  502  0.00000000000E+00  0.00000000000E+00  0.82018655123E+03  0.82018655123E+03  0.00000000000E+00 0.  1.
         21   -1    0    0  502  503 -0.00000000000E+00 -0.00000000000E+00 -0.56316666708E+02  0.56316666708E+02  0.00000000000E+00 0. -1.
         -6    2    1    2    0  503 -0.10073363840E+03 -0.30401938191E+02  0.22971419905E+03  0.30547890973E+03  0.17168927542E+03 0.  0.
        -24    2    3    3    0    0  0.28349100191E+02 -0.36423919258E+02  0.75281741556E+02  0.10405872309E+03  0.55050012388E+02 0.  0.
          6    2    1    2  501    0  0.10073363840E+03  0.30401938191E+02  0.53415568547E+03  0.57102430821E+03  0.17226410099E+03 0.  0.
         24    2    5    5    0    0  0.81054166946E+02 -0.26044346710E+02  0.46594629305E+03  0.48020539007E+03  0.79013813200E+02 0.  0.
          5    1    5    5  501    0  0.19679471458E+02  0.56446284901E+02  0.68209392426E+02  0.90818918135E+02  0.47000000000E+01 0. -1.
        -11    1    6    6    0    0 -0.12491697083E+02  0.24203315087E+01  0.12102764653E+03  0.12169466597E+03  0.00000000000E+00 0.  1.
         12    1    6    6    0    0  0.93545864029E+02 -0.28464678219E+02  0.34491864651E+03  0.35851072410E+03  0.00000000000E+00 0. -1.
         -5    1    3    3    0  503 -0.12908273859E+03  0.60219810667E+01  0.15443245750E+03  0.20142018664E+03  0.47000000000E+01 0.  1.
         11    1    4    4    0    0  0.61565403763E+01 -0.55372201000E+01 -0.86117184809E+01  0.11946777433E+02  0.00000000000E+00 0. -1.
        -12    1    4    4    0    0  0.22192559814E+02 -0.30886699158E+02  0.83893460036E+02  0.92111945658E+02  0.00000000000E+00 0.  1.
</event>
<event>
12    1  0.8563264E-002  0.2034602E+03  0.7818608E-02  0.1147597E+00
         21   -1    0    0  503  502  0.00000000000E+00  0.00000000000E+00  0.11319293364E+03  0.11319293364E+03  0.00000000000E+00 0.  1.
         21   -1    0    0  501  503 -0.00000000000E+00 -0.00000000000E+00 -0.35940335894E+03  0.35940335894E+03  0.00000000000E+00 0. -1.
          6    2    1    2  501    0  0.80894478226E+02  0.60917216940E+02 -0.12043061109E+03  0.23643089333E+03  0.17646872614E+03 0.  0.
         24    2    3    3    0    0  0.47173464896E+02  0.21446693419E+02  0.12867276260E+02  0.93303517401E+02  0.76515901041E+02 0.  0.
         -6    2    1    2    0  502 -0.80894478226E+02 -0.60917216940E+02 -0.12577981421E+03  0.23616539925E+03  0.17233313731E+03 0.  0.
        -24    2    5    5    0    0 -0.50469525107E+02  0.14094628326E+02 -0.11389023036E+02  0.95951998296E+02  0.79569118501E+02 0.  0.
          5    1    3    3  501    0  0.33721013330E+02  0.39470523521E+02 -0.13329788735E+03  0.14312737593E+03  0.47000000000E+01 0. -1.
        -11    1    4    4    0    0  0.16244064258E+02  0.43887200333E+02  0.25199190321E+02  0.53150307332E+02  0.00000000000E+00 0.  1.
         12    1    4    4    0    0  0.30929400638E+02 -0.22440506914E+02 -0.12331914062E+02  0.40153210069E+02  0.00000000000E+00 0. -1.
         -5    1    5    5    0  502 -0.30424953118E+02 -0.75011845266E+02 -0.11439079117E+03  0.14021340095E+03  0.47000000000E+01 0.  1.
         11    1    6    6    0    0 -0.20593125858E+02 -0.18205046276E+02 -0.36190269792E+02  0.45444869569E+02  0.00000000000E+00 0. -1.
        -12    1    6    6    0    0 -0.29876399250E+02  0.32299674603E+02  0.24801246756E+02  0.50507128727E+02  0.00000000000E+00 0.  1.
</event>
<event>
12    1  0.8563264E-002  0.2010587E+03  0.7818608E-02  0.1149204E+00
         21   -1    0    0  503  502  0.00000000000E+00  0.00000000000E+00  0.35892542642E+03  0.35892542642E+03  0.00000000000E+00 0.  1.
         21   -1    0    0  501  503 -0.00000000000E+00 -0.00000000000E+00 -0.12275010084E+03  0.12275010084E+03  0.00000000000E+00 0. -1.
          6    2    1    2  501    0 -0.57365449915E+02  0.83598138875E+02  0.18995021491E+03  0.27537146947E+03  0.17166513445E+03 0.  0.
         24    2    3    3    0    0 -0.86791727099E+02  0.32440024975E+02  0.66127197704E+02  0.13812246948E+03  0.78229477733E+02 0.  0.
         -6    2    1    2    0  502  0.57365449915E+02 -0.83598138875E+02  0.46225110669E+02  0.20630405778E+03  0.17362361514E+03 0.  0.
        -24    2    5    5    0    0 -0.27068942023E+02 -0.10371381101E+02 -0.14895230961E+01  0.84689499151E+02  0.79560036572E+02 0.  0.
          5    1    3    3  501    0  0.29426277184E+02  0.51158113900E+02  0.12382301721E+03  0.13724899998E+03  0.47000000000E+01 0. -1.
        -11    1    4    4    0    0 -0.12136986899E+02  0.40960420169E+02  0.40129649180E+02  0.58612722294E+02  0.00000000000E+00 0.  1.
         12    1    4    4    0    0 -0.74654740200E+02 -0.85203951943E+01  0.25997548524E+02  0.79509747188E+02  0.00000000000E+00 0. -1.
         -5    1    5    5    0  502  0.84434391937E+02 -0.73226757774E+02  0.47714633765E+02  0.12161455863E+03  0.47000000000E+01 0.  1.
         11    1    6    6    0    0  0.22624350555E+02 -0.14501595109E+02 -0.17790278765E+02  0.32228116875E+02  0.00000000000E+00 0. -1.
        -12    1    6    6    0    0 -0.49693292578E+02  0.41302140075E+01  0.16300755669E+02  0.52461382277E+02  0.00000000000E+00 0.  1.
</event>
<event>
12    1  0.8563264E-002  0.1960661E+03  0.7818608E-02  0.1153939E+00
         21   -1    0    0  501  502  0.00000000000E+00  0.00000000000E+00  0.60222574293E+03  0.60222574293E+03  0.00000000000E+00 0. -1.
         21   -1    0    0  502  503 -0.00000000000E+00 -0.00000000000E+00 -0.82351909249E+02  0.82351909249E+02  0.00000000000E+00 0. -1.
         -6    2    1    2    0  503 -0.82994063421E+02 -0.20692029739E+02  0.94226235404E+02  0.21753274860E+03  0.17642488095E+03 0.  0.
        -24    2    3    3    0    0  0.24056499141E+02 -0.16981700307E+02  0.22253690890E+02  0.88398219321E+02  0.80323876430E+02 0.  0.
          6    2    1    2  501    0  0.82994063421E+02  0.20692029739E+02  0.42564759828E+03  0.46704490358E+03  0.17215948820E+03 0.  0.
         24    2    5    5    0    0 -0.18547360287E+02  0.51522961098E+00  0.13323355337E+03  0.15680978685E+03  0.80584486550E+02 0.  0.
          5    1    5    5  501    0  0.10154142371E+03  0.20176800128E+02  0.29241404491E+03  0.31023511673E+03  0.47000000000E+01 0. -1.
        -13    1    6    6    0    0 -0.46159073130E+02 -0.29409276111E+01  0.11387924144E+03  0.12291375317E+03  0.00000000000E+00 0.  1.
         14    1    6    6    0    0  0.27611712843E+02  0.34561572221E+01  0.19354311933E+02  0.33896033680E+02  0.00000000000E+00 0. -1.
         -5    1    3    3    0  503 -0.10705056256E+03 -0.37103294323E+01  0.71972544514E+02  0.12913452928E+03  0.47000000000E+01 0.  1.
         13    1    4    4    0    0 -0.17610287655E+02 -0.26039444415E+02 -0.12056908809E+02  0.33668144391E+02  0.00000000000E+00 0. -1.
        -14    1    4    4    0    0  0.41666786795E+02  0.90577441076E+01  0.34310599699E+02  0.54730074930E+02  0.00000000000E+00 0.  1.
</event>
<event>
12    1  0.8563264E-002  0.1747537E+03  0.7818608E-02  0.1174906E+00
         21   -1    0    0  501  502  0.00000000000E+00  0.00000000000E+00  0.12837652487E+03  0.12837652487E+03  0.00000000000E+00 0. -1.
         21   -1    0    0  502  503 -0.00000000000E+00 -0.00000000000E+00 -0.45839472865E+03  0.45839472865E+03  0.00000000000E+00 0. -1.
         -6    2    1    2    0  503 -0.35671618088E+02  0.50769955342E+01 -0.37127312187E+03  0.40721397682E+03  0.16334396737E+03 0.  0.
        -24    2    3    3    0    0 -0.14423641726E+01  0.60315335993E+02 -0.24878751155E+03  0.26847778538E+03  0.80901638862E+02 0.  0.
          6    2    1    2  501    0  0.35671618088E+02 -0.50769955342E+01  0.41254918083E+02  0.17955727670E+03  0.17099885125E+03 0.  0.
         24    2    5    5    0    0  0.78476644111E+02 -0.39195470979E+02  0.10242430694E+02  0.11646841085E+03  0.75928352566E+02 0.  0.
          5    1    5    5  501    0 -0.42805026023E+02  0.34118475445E+02  0.31012487389E+02  0.63088865845E+02  0.47000000000E+01 0. -1.
        -13    1    6    6    0    0  0.89790053518E+01  0.17448384500E+02  0.17799330868E+02  0.26493109257E+02  0.00000000000E+00 0.  1.
         14    1    6    6    0    0  0.69497638759E+02 -0.56643855479E+02 -0.75569001743E+01  0.89975301593E+02  0.00000000000E+00 0. -1.
         -5    1    3    3    0  503 -0.34229253915E+02 -0.55238340459E+02 -0.12248561032E+03  0.13873619144E+03  0.47000000000E+01 0.  1.
         11    1    4    4    0    0 -0.32505062890E+02  0.59011033722E+02 -0.14053472706E+03  0.15584893559E+03  0.00000000000E+00 0. -1.
        -12    1    4    4    0    0  0.31062698718E+02  0.13043022709E+01 -0.10825278449E+03  0.11262884979E+03  0.00000000000E+00 0.  1.
</event>
<event>
12    1  0.8563264E-002  0.1767120E+03  0.7818608E-02  0.1171078E+00
         21   -1    0    0  501  502  0.00000000000E+00  0.00000000000E+00  0.13380626876E+04  0.13380626876E+04  0.00000000000E+00 0. -1.
         21   -1    0    0  502  503 -0.00000000000E+00 -0.00000000000E+00 -0.23631783036E+02  0.23631783036E+02  0.00000000000E+00 0. -1.
         -6    2    1    2    0  503  0.13073518533E+02  0.40936152675E+02  0.57798616098E+03  0.60439649770E+03  0.17140723049E+03 0.  0.
        -24    2    3    3    0    0  0.34746539725E+01  0.18455025686E+02  0.57318585519E+03  0.57904551730E+03  0.79993908059E+02 0.  0.
          6    2    1    2  501    0 -0.13073518533E+02 -0.40936152675E+02  0.73644474359E+03  0.75729797294E+03  0.17118023828E+03 0.  0.
         24    2    5    5    0    0 -0.30863298254E+02  0.42690520328E+02  0.36934848507E+03  0.38034751238E+03  0.73965553086E+02 0.  0.
          5    1    5    5  501    0  0.17789779721E+02 -0.83626673002E+02  0.36709625852E+03  0.37695046056E+03  0.47000000000E+01 0. -1.
        -13    1    6    6    0    0 -0.17744728539E+02  0.38921735867E+02  0.36261220560E+03  0.36512653775E+03  0.00000000000E+00 0.  1.
         14    1    6    6    0    0 -0.13118569715E+02  0.37687844608E+01  0.67362794669E+01  0.15220974632E+02  0.00000000000E+00 0. -1.
         -5    1    3    3    0  503  0.95988645607E+01  0.22481126988E+02  0.48003057939E+01  0.25350980400E+02  0.47000000000E+01 0.  1.
         13    1    4    4    0    0 -0.46619769123E+01  0.48929716050E+02  0.29356370373E+03  0.29764996101E+03  0.00000000000E+00 0. -1.
        -14    1    4    4    0    0  0.81366308849E+01 -0.30474690364E+02  0.27962215145E+03  0.28139555629E+03  0.00000000000E+00 0.  1.
</event>
<event>
12    1  0.8563264E-002  0.2256471E+03  0.7818608E-02  0.1130678E+00
         21   -1    0    0  501  502  0.00000000000E+00  0.00000000000E+00  0.28718654786E+03  0.28718654786E+03  0.00000000000E+00 0. -1.
         21   -1    0    0  502  503 -0.00000000000E+00 -0.00000000000E+00 -0.25734921137E+03  0.25734921137E+03  0.00000000000E+00 0.  1.
         -6    2    1    2    0  503 -0.14354893586E+03  0.86498965608E+01 -0.14079607324E+03  0.26163583031E+03  0.16717851466E+03 0.  0.
        -24    2    3    3    0    0 -0.12876764298E+03 -0.23574215827E+02 -0.47037914549E+02  0.16128862128E+03  0.81637028492E+02 0.  0.
          6    2    1    2  501    0  0.14354893586E+03 -0.86498965608E+01  0.17063340973E+03  0.28289992892E+03  0.17388355750E+03 0.  0.
         24    2    5    5    0    0  0.11197382294E+03  0.20600727326E+02  0.40081993787E+02  0.14535593974E+03  0.80989233867E+02 0.  0.
          5    1    5    5  501    0  0.31575112920E+02 -0.29250623887E+02  0.13055141594E+03  0.13754398918E+03  0.47000000000E+01 0. -1.
        -11    1    6    6    0    0  0.24885446630E+02  0.30887366806E+02 -0.14305426224E+02  0.42165864176E+02  0.00000000000E+00 0.  1.
         12    1    6    6    0    0  0.87088376310E+02 -0.10286639480E+02  0.54387420012E+02  0.10319007557E+03  0.00000000000E+00 0. -1.
         -5    1    3    3    0  503 -0.14781292885E+02  0.32224112388E+02 -0.93758158690E+02  0.10034720903E+03  0.47000000000E+01 0.  1.
         13    1    4    4    0    0 -0.13791069253E+02 -0.12174103330E+01  0.21505815230E+02  0.25576860007E+02  0.00000000000E+00 0. -1.
        -14    1    4    4    0    0 -0.11497657372E+03 -0.22356805494E+02 -0.68543729779E+02  0.13571176128E+03  0.00000000000E+00 0.  1.
</event>
<event>
12    1  0.8563264E-002  0.2040629E+03  0.7818608E-02  0.1146756E+00
         21   -1    0    0  501  502  0.00000000000E+00  0.00000000000E+00  0.49046368015E+03  0.49046368015E+03  0.00000000000E+00 0.  1.
         21   -1    0    0  502  503 -0.00000000000E+00 -0.00000000000E+00 -0.35507020420E+03  0.35507020420E+03  0.00000000000E+00 0.  1.
         -6    2    1    2    0  503  0.86645964680E+02 -0.66044575519E+02 -0.30154889331E+03  0.36410629643E+03  0.17254637316E+03 0.  0.
        -24    2    3    3    0    0 -0.10287265136E+02  0.11450805938E+02 -0.12199268214E+03  0.14578518393E+03  0.78320856603E+02 0.  0.
          6    2    1    2  501    0 -0.86645964680E+02  0.66044575519E+02  0.43694236926E+03  0.48142758792E+03  0.17024828693E+03 0.  0.
         24    2    5    5    0    0 -0.10274980460E+03  0.21364043592E+02  0.19846471991E+03  0.23822116770E+03  0.79668908543E+02 0.  0.
          5    1    5    5  501    0  0.16103839922E+02  0.44680531927E+02  0.23847764935E+03  0.24320642022E+03  0.47000000000E+01 0. -1.
        -11    1    6    6    0    0 -0.45012255452E+02 -0.20511450896E+02  0.13106639616E+03  0.14009005304E+03  0.00000000000E+00 0.  1.
         12    1    6    6    0    0 -0.57737549150E+02  0.41875494488E+02  0.67398323752E+02  0.98131114663E+02  0.00000000000E+00 0. -1.
         -5    1    3    3    0  503  0.96933229816E+02 -0.77495381457E+02 -0.17955621117E+03  0.21832111249E+03  0.47000000000E+01 0.  1.
         13    1    4    4    0    0  0.49995682523E+01 -0.28917064131E+02 -0.21393673688E+02  0.36316408888E+02  0.00000000000E+00 0. -1.
        -14    1    4    4    0    0 -0.15286833389E+02  0.40367870069E+02 -0.10059900845E+03  0.10946877505E+03  0.00000000000E+00 0.  1.
</event>
<event>
12    1  0.8563264E-002  0.1840673E+03  0.7818608E-02  0.1164026E+00
         21   -1    0    0  501  502  0.00000000000E+00  0.00000000000E+00  0.15468925832E+03  0.15468925832E+03  0.00000000000E+00 0.  1.
         21   -1    0    0  502  503 -0.00000000000E+00 -0.00000000000E+00 -0.37936681792E+03  0.37936681792E+03  0.00000000000E+00 0.  1.
         -6    2    1    2    0  503 -0.39909462204E+02  0.51611825229E+02 -0.28629457257E+03  0.34036061078E+03  0.17211687137E+03 0.  0.
        -24    2    3    3    0    0 -0.73308380692E+02  0.62642530933E+02 -0.27675316320E+03  0.30361428147E+03  0.79316538084E+02 0.  0.
          6    2    1    2  501    0  0.39909462204E+02 -0.51611825229E+02  0.61617012966E+02  0.19369546546E+03  0.17165293873E+03 0.  0.
         24    2    5    5    0    0  0.55183991862E+01  0.31313116144E+01  0.92124403955E+02  0.12205506379E+03  0.79814002215E+02 0.  0.
          5    1    5    5  501    0  0.34391063018E+02 -0.54743136843E+02 -0.30507390989E+02  0.71640401673E+02  0.47000000000E+01 0. -1.
        -11    1    6    6    0    0  0.21487013177E+02 -0.32349415853E+02  0.60611820052E+02  0.71985895641E+02  0.00000000000E+00 0.  1.
         12    1    6    6    0    0 -0.15968613990E+02  0.35480727468E+02  0.31512583903E+02  0.50069168144E+02  0.00000000000E+00 0. -1.
         -5    1    3    3    0  503  0.33398918489E+02 -0.11030705704E+02 -0.95414093727E+01  0.36746329305E+02  0.47000000000E+01 0.  1.
         11    1    4    4    0    0 -0.55012575065E+02 -0.30454460685E+01 -0.14793185196E+03  0.15785908583E+03  0.00000000000E+00 0. -1.
        -12    1    4    4    0    0 -0.18295805627E+02  0.65687977002E+02 -0.12882131124E+03  0.14575519564E+03  0.00000000000E+00 0.  1.
</event>
<event>
12    1  0.8563264E-002  0.3394471E+03  0.7818608E-02  0.1067305E+00
         21   -1    0    0  501  502  0.00000000000E+00  0.00000000000E+00  0.16076029075E+04  0.16076029075E+04  0.00000000000E+00 0.  1.
         21   -1    0    0  502  503 -0.00000000000E+00 -0.00000000000E+00 -0.12981023033E+03  0.12981023033E+03  0.00000000000E+00 0.  1.
         -6    2    1    2    0  503 -0.16892236791E+03 -0.23789388983E+03  0.15334282309E+03  0.37015611880E+03  0.16844364545E+03 0.  0.
        -24    2    3    3    0    0 -0.16575015355E+03 -0.12400100875E+03  0.88388839746E+02  0.23892060052E+03  0.80131783901E+02 0.  0.
          6    2    1    2  501    0  0.16892236791E+03  0.23789388983E+03  0.13244498541E+04  0.13672570190E+04  0.17348219197E+03 0.  0.
         24    2    5    5    0    0  0.12856605569E+03  0.21353999152E+03  0.12622322900E+04  0.12890594514E+04  0.79469218938E+02 0.  0.
          5    1    5    5  501    0  0.40356312221E+02  0.24353898302E+02  0.62217564083E+02  0.78197567603E+02  0.47000000000E+01 0. -1.
        -11    1    6    6    0    0  0.13933302323E+03  0.19555413889E+03  0.11813195917E+04  0.12054754623E+04  0.00000000000E+00 0.  1.
         12    1    6    6    0    0 -0.10766967535E+02  0.17985852634E+02  0.80912698337E+02  0.83583989119E+02  0.00000000000E+00 0. -1.
         -5    1    3    3    0  503 -0.31722143633E+01 -0.11389288108E+03  0.64953983339E+02  0.13123551827E+03  0.47000000000E+01 0.  1.
         13    1    4    4    0    0 -0.29847465462E+01 -0.19513030564E+02  0.31740534755E+02  0.37378183748E+02  0.00000000000E+00 0. -1.
        -14    1    4    4    0    0 -0.16276540700E+03 -0.10448797818E+03  0.56648304991E+02  0.20154241678E+03  0.00000000000E+00 0.  1.
</event>
<event>
12    1  0.8563264E-002  0.1875192E+03  0.7818608E-02  0.1161079E+00
         21   -1    0    0  501  502  0.00000000000E+00  0.00000000000E+00  0.25733078894E+03  0.25733078894E+03  0.00000000000E+00 0.  1.
         21   -1    0    0  502  503 -0.00000000000E+00 -0.00000000000E+00 -0.13927291768E+03  0.13927291768E+03  0.00000000000E+00 0.  1.
         -6    2    1    2    0  503 -0.46940523332E+02 -0.57540191485E+02  0.26659576462E+02  0.18940479480E+03  0.17218930545E+03 0.  0.
        -24    2    3    3    0    0 -0.44007841693E+02  0.16168233793E+02  0.19617939192E+02  0.11515382017E+03  0.10333168365E+03 0.  0.
          6    2    1    2  501    0  0.46940523332E+02  0.57540191485E+02  0.91398294798E+02  0.20719891182E+03  0.17048007040E+03 0.  0.
         24    2    5    5    0    0  0.25452779529E+02  0.91176836993E+02  0.10648883537E+03  0.16426918472E+03  0.81752268474E+02 0.  0.
          5    1    5    5  501    0  0.21487743802E+02 -0.33636645507E+02 -0.15090540569E+02  0.42929727106E+02  0.47000000000E+01 0. -1.
        -13    1    6    6    0    0  0.20674666221E+02 -0.10200640097E+02  0.25901811674E+02  0.34675621548E+02  0.00000000000E+00 0.  1.
         14    1    6    6    0    0  0.47781133086E+01  0.10137747709E+03  0.80587023693E+02  0.12959356317E+03  0.00000000000E+00 0. -1.
         -5    1    3    3    0  503 -0.29326816390E+01 -0.73708425278E+02  0.70416372700E+01  0.74250974633E+02  0.47000000000E+01 0.  1.
         11    1    4    4    0    0 -0.18561981433E+02 -0.39482709534E+02  0.30189294475E+02  0.53054924445E+02  0.00000000000E+00 0. -1.
        -12    1    4    4    0    0 -0.25445860259E+02  0.55650943327E+02 -0.10571355283E+02  0.62098895723E+02  0.00000000000E+00 0.  1.
</event>
<event>
12    1  0.8563264E-002  0.2709480E+03  0.7818608E-02  0.1100907E+00
         21   -1    0    0  503  502  0.00000000000E+00  0.00000000000E+00  0.10797981374E+03  0.10797981374E+03  0.00000000000E+00 0.  1.
         21   -1    0    0  501  503 -0.00000000000E+00 -0.00000000000E+00 -0.69192133850E+03  0.69192133850E+03  0.00000000000E+00 0.  1.
          6    2    1    2  501    0 -0.19619773795E+03 -0.72457840476E+02 -0.35151309082E+03  0.44381786494E+03  0.17224736048E+03 0.  0.
         24    2    3    3    0    0 -0.62688264183E+02  0.18890319085E+02 -0.90338456368E+02  0.13656626523E+03  0.78756875749E+02 0.  0.
         -6    2    1    2    0  502  0.19619773795E+03  0.72457840476E+02 -0.23242843393E+03  0.35608328731E+03  0.17037793160E+03 0.  0.
        -24    2    5    5    0    0  0.11563163239E+03  0.11131927326E+03 -0.13986658316E+03  0.22727764091E+03  0.79560102862E+02 0.  0.
          5    1    3    3  501    0 -0.13350947377E+03 -0.91348159561E+02 -0.26117463446E+03  0.30725159971E+03  0.47000000000E+01 0. -1.
        -13    1    4    4    0    0 -0.48501341938E+02 -0.23293502623E+02 -0.30042606923E+02  0.61624067254E+02  0.00000000000E+00 0.  1.
         14    1    4    4    0    0 -0.14186922244E+02  0.42183821708E+02 -0.60295849445E+02  0.74942197973E+02  0.00000000000E+00 0. -1.
         -5    1    5    5    0  502  0.80566105567E+02 -0.38861432784E+02 -0.92561850770E+02  0.12880564639E+03  0.47000000000E+01 0.  1.
         13    1    6    6    0    0 -0.75100138024E+01  0.11460727266E+02 -0.33949473275E+02  0.36610317022E+02  0.00000000000E+00 0. -1.
        -14    1    6    6    0    0  0.12314164619E+03  0.99858545994E+02 -0.10591710988E+03  0.19066732389E+03  0.00000000000E+00 0.  1.
</event>
<event>
12    1  0.8563264E-002  0.2659212E+03  0.7818608E-02  0.1103842E+00
         21   -1    0    0  503  502  0.00000000000E+00  0.00000000000E+00  0.22722135226E+03  0.22722135226E+03  0.00000000000E+00 0. -1.
         21   -1    0    0  501  503 -0.00000000000E+00 -0.00000000000E+00 -0.61801465795E+03  0.61801465795E+03  0.00000000000E+00 0.  1.
          6    2    1    2  501    0 -0.19515776687E+03 -0.51102003395E+02 -0.49421700042E+03  0.56121701608E+03  0.17325162888E+03 0.  0.
         24    2    3    3    0    0 -0.19178571647E+03 -0.72018887884E+02 -0.32878241286E+03  0.39436504713E+03  0.73874448477E+02 0.  0.
         -6    2    1    2    0  502  0.19515776687E+03  0.51102003395E+02  0.10342369472E+03  0.28401899413E+03  0.17109167038E+03 0.  0.
        -24    2    5    5    0    0  0.20723825616E+03  0.77141203652E+02  0.97884951476E+02  0.25440909970E+03  0.79019403742E+02 0.  0.
          5    1    3    3  501    0 -0.33720504027E+01  0.20916884490E+02 -0.16543458756E+03  0.16685196895E+03  0.47000000000E+01 0. -1.
        -11    1    4    4    0    0 -0.13829888974E+03 -0.52518852056E+02 -0.28977582755E+03  0.32535341239E+03  0.00000000000E+00 0.  1.
         12    1    4    4    0    0 -0.53486826735E+02 -0.19500035829E+02 -0.39006585307E+02  0.69011634735E+02  0.00000000000E+00 0. -1.
         -5    1    5    5    0  502 -0.12080489285E+02 -0.26039200257E+02  0.55387432475E+01  0.29609894430E+02  0.47000000000E+01 0.  1.
         13    1    6    6    0    0  0.51886433441E+02 -0.15222787960E+02  0.21310354748E+02  0.58121136156E+02  0.00000000000E+00 0. -1.
        -14    1    6    6    0    0  0.15535182272E+03  0.92363991612E+02  0.76574596728E+02  0.19628796354E+03  0.00000000000E+00 0.  1.
</event>
<event>
12    1  0.8563264E-002  0.2006955E+03  0.7818608E-02  0.1149589E+00
         21   -1    0    0  503  502  0.00000000000E+00  0.00000000000E+00  0.50434875627E+03  0.50434875627E+03  0.00000000000E+00 0. -1.
         21   -1    0    0  501  503 -0.00000000000E+00 -0.00000000000E+00 -0.12302722923E+03  0.12302722923E+03  0.00000000000E+00 0. -1.
          6    2    1    2  501    0  0.99899403189E+02  0.98714377658E+01  0.24718380728E+01  0.19865025012E+03  0.17140150480E+03 0.  0.
         24    2    3    3    0    0  0.53916174840E+02 -0.23950102405E+02  0.61733442850E+02  0.11623434346E+03  0.78859643161E+02 0.  0.
         -6    2    1    2    0  502 -0.99899403189E+02 -0.98714377658E+01  0.37884968896E+03  0.42872573538E+03  0.17378530810E+03 0.  0.
        -24    2    5    5    0    0 -0.10775786809E+02 -0.43961440964E+02  0.26009478080E+03  0.27631193834E+03  0.81549165534E+02 0.  0.
          5    1    3    3  501    0  0.45983228349E+02  0.33821540171E+02 -0.59261604777E+02  0.82415906654E+02  0.47000000000E+01 0. -1.
        -13    1    4    4    0    0  0.64128649880E+02 -0.11254769487E+02  0.15100437749E+02  0.66836941819E+02  0.00000000000E+00 0.  1.
         14    1    4    4    0    0 -0.10212475039E+02 -0.12695332918E+02  0.46633005101E+02  0.49397401643E+02  0.00000000000E+00 0. -1.
         -5    1    5    5    0  502 -0.89123616380E+02  0.34090003198E+02  0.11875490816E+03  0.15241379704E+03  0.47000000000E+01 0.  1.
         13    1    6    6    0    0  0.16295860718E+01  0.14864173280E+02  0.76293118758E+01  0.16787066383E+02  0.00000000000E+00 0. -1.
        -14    1    6    6    0    0 -0.12405372881E+02 -0.58825614243E+02  0.25246546892E+03  0.25952487196E+03  0.00000000000E+00 0.  1.
</event>
<event>
12    1  0.8563264E-002  0.2301201E+03  0.7818608E-02  0.1126578E+00
         21   -1    0    0  503  502  0.00000000000E+00  0.00000000000E+00  0.55178356456E+02  0.55178356456E+02  0.00000000000E+00 0. -1.
         21   -1    0    0  501  503 -0.00000000000E+00 -0.00000000000E+00 -0.22449974043E+04  0.22449974043E+04  0.00000000000E+00 0. -1.
          6    2    1    2  501    0 -0.13360962818E+03  0.74516692152E+02 -0.19654299382E+04  0.19788557572E+04  0.17190403106E+03 0.  0.
         24    2    3    3    0    0 -0.59148049679E+02  0.36531796142E+02 -0.50218234701E+03  0.51321494788E+03  0.79808578256E+02 0.  0.
         -6    2    1    2    0  502  0.13360962818E+03 -0.74516692152E+02 -0.22438910963E+03  0.32132000348E+03  0.17173177332E+03 0.  0.
        -24    2    5    5    0    0  0.15534418592E+03 -0.52846202859E+02 -0.13426792135E+03  0.22599991283E+03  0.78253106267E+02 0.  0.
          5    1    3    3  501    0 -0.74461578502E+02  0.37984896010E+02 -0.14632475912E+04  0.14656408094E+04  0.47000000000E+01 0. -1.
        -13    1    4    4    0    0  0.80929501395E+01 -0.15977604887E+02 -0.51418613910E+02  0.54448632272E+02  0.00000000000E+00 0.  1.
         14    1    4    4    0    0 -0.67240999819E+02  0.52509401029E+02 -0.45076373310E+03  0.45876631560E+03  0.00000000000E+00 0. -1.
         -5    1    5    5    0  502 -0.21734557736E+02 -0.21670489293E+02 -0.90121188272E+02  0.95320090651E+02  0.47000000000E+01 0.  1.
         11    1    6    6    0    0  0.11180165112E+03 -0.80560052102E+00 -0.99920219470E+02  0.14994768569E+03  0.00000000000E+00 0. -1.
        -12    1    6    6    0    0  0.43542534797E+02 -0.52040602338E+02 -0.34347701884E+02  0.76052227140E+02  0.00000000000E+00 0.  1.
</event>
<event>
12    1  0.8563264E-002  0.2076796E+03  0.7818608E-02  0.1144261E+00
         21   -1    0    0  503  502  0.00000000000E+00  0.00000000000E+00  0.13289027042E+03  0.13289027042E+03  0.00000000000E+00 0. -1.
         21   -1    0    0  501  503 -0.00000000000E+00 -0.00000000000E+00 -0.44127268387E+03  0.44127268387E+03  0.00000000000E+00 0.  1.
          6    2    1    2  501    0 -0.44491502500E+01 -0.10926441527E+03 -0.30698403034E+03  0.37063461658E+03  0.17655683714E+03 0.  0.
         24    2    3    3    0    0 -0.20935632431E+02 -0.26724707165E+01 -0.20954879237E+03  0.22520641320E+03  0.79760825978E+02 0.  0.
         -6    2    1    2    0  502  0.44491502500E+01  0.10926441527E+03 -0.13983831055E+01  0.20352833771E+03  0.17164883161E+03 0.  0.
        -24    2    5    5    0    0 -0.58934762161E+02  0.37531058822E+02 -0.95675800370E+01  0.10734091359E+03  0.80923708363E+02 0.  0.
          5    1    3    3  501    0  0.16486482181E+02 -0.10659194455E+03 -0.97435237975E+02  0.14542820338E+03  0.47000000000E+01 0. -1.
        -13    1    4    4    0    0 -0.39106348505E+02 -0.30005947424E+02 -0.11484422295E+03  0.12497543327E+03  0.00000000000E+00 0.  1.
         14    1    4    4    0    0  0.18170716074E+02  0.27333476707E+02 -0.94704569413E+02  0.10023097994E+03  0.00000000000E+00 0. -1.
         -5    1    5    5    0  502  0.63383912411E+02  0.71733356449E+02  0.81691969315E+01  0.96187424118E+02  0.47000000000E+01 0.  1.
         13    1    6    6    0    0 -0.27927511549E+02  0.59542736732E+02  0.64434398289E+01  0.66081777486E+02  0.00000000000E+00 0. -1.
        -14    1    6    6    0    0 -0.31007250612E+02 -0.22011677910E+02 -0.16011019866E+02  0.41259136104E+02  0.00000000000E+00 0.  1.
</event>
<event>
12    1  0.8563264E-002  0.1874192E+03  0.7818608E-02  0.1160951E+00
         21   -1    0    0  501  502  0.00000000000E+00  0.00000000000E+00  0.21604747591E+03  0.21604747591E+03  0.00000000000E+00 0.  1.
         21   -1    0    0  502  503 -0.00000000000E+00 -0.00000000000E+00 -0.18405046311E+03  0.18405046311E+03  0.00000000000E+00 0.  1.
         -6    2    1    2    0  503 -0.71190764732E+02 -0.19948696715E+02 -0.53138168369E+02  0.19480662210E+03  0.17222043895E+03 0.  0.
        -24    2    3    3    0    0  0.24991815454E+02 -0.10605624066E+02 -0.50914923358E+02  0.98031550126E+02  0.79251405654E+02 0.  0.
          6    2    1    2  501    0  0.71190764732E+02  0.19948696715E+02  0.85135181168E+02  0.20529131692E+03  0.17155305373E+03 0.  0.
         24    2    5    5    0    0  0.99404315435E+02 -0.60384740966E+01  0.19117635004E+02  0.12879462489E+03  0.79403339572E+02 0.  0.
          5    1    5    5  501    0 -0.28213550703E+02  0.25987170811E+02  0.66017546164E+02  0.76496692030E+02  0.47000000000E+01 0. -1.
        -11    1    6    6    0    0  0.11064554107E+03  0.11657791787E+00  0.65413915851E+01  0.11083879805E+03  0.00000000000E+00 0.  1.
         12    1    6    6    0    0 -0.11241225632E+02 -0.61550520144E+01  0.12576243418E+02  0.17955826841E+02  0.00000000000E+00 0. -1.
         -5    1    3    3    0  503 -0.96182580186E+02 -0.93430726490E+01 -0.22232450106E+01  0.96775071977E+02  0.47000000000E+01 0.  1.
         13    1    4    4    0    0  0.35624280116E+02 -0.29906850577E+02 -0.58489781833E+02  0.74729937938E+02  0.00000000000E+00 0. -1.
        -14    1    4    4    0    0 -0.10632464662E+02  0.19301226512E+02  0.75748584755E+01  0.23301612188E+02  0.00000000000E+00 0.  1.
</event>
<event>
12    1  0.8563264E-002  0.2680851E+03  0.7818608E-02  0.1104607E+00
         21   -1    0    0  503  502  0.00000000000E+00  0.00000000000E+00  0.36153985897E+03  0.36153985897E+03  0.00000000000E+00 0. -1.
         21   -1    0    0  501  503 -0.00000000000E+00 -0.00000000000E+00 -0.22872281381E+03  0.22872281381E+03  0.00000000000E+00 0. -1.
          6    2    1    2  501    0 -0.42191973585E+02  0.18139192915E+03 -0.59870866483E+02  0.26011384804E+03  0.17143948989E+03 0.  0.
         24    2    3    3    0    0  0.18488429234E+02  0.39721885550E+02  0.30985643794E+01  0.93561298486E+02  0.82610321788E+02 0.  0.
         -6    2    1    2    0  502  0.42191973585E+02 -0.18139192915E+03  0.19268791165E+03  0.33014882474E+03  0.19283780902E+03 0.  0.
        -24    2    5    5    0    0  0.47720326798E+02 -0.20913318424E+03  0.19408642942E+03  0.30144018884E+03  0.84750970623E+02 0.  0.
          5    1    3    3  501    0 -0.60680402818E+02  0.14167004360E+03 -0.62969430862E+02  0.16655254955E+03  0.47000000000E+01 0. -1.
        -13    1    4    4    0    0  0.11314130068E+02 -0.20943759554E+02 -0.17000052673E+02  0.29251536615E+02  0.00000000000E+00 0.  1.
         14    1    4    4    0    0  0.71742991657E+01  0.60665645104E+02  0.20098617053E+02  0.64309761871E+02  0.00000000000E+00 0. -1.
         -5    1    5    5    0  502 -0.55283532136E+01  0.27741255094E+02 -0.13985177732E+01  0.28708635903E+02  0.47000000000E+01 0.  1.
         11    1    6    6    0    0  0.27906626599E+02 -0.16175721771E+03  0.94531380584E+02  0.18942111605E+03  0.00000000000E+00 0. -1.
        -12    1    6    6    0    0  0.19813700200E+02 -0.47375966534E+02  0.99555048840E+02  0.11201907280E+03  0.00000000000E+00 0.  1.
</event>
<event>
12    1  0.8563264E-002  0.3304873E+03  0.7818608E-02  0.1070949E+00
         21   -1    0    0  503  502  0.00000000000E+00  0.00000000000E+00  0.35320471091E+03  0.35320471091E+03  0.00000000000E+00 0. -1.
         21   -1    0    0  501  503 -0.00000000000E+00 -0.00000000000E+00 -0.40137200719E+03  0.40137200719E+03  0.00000000000E+00 0. -1.
          6    2    1    2  501    0 -0.43972599250E+02  0.27857880734E+03 -0.20507738594E+03  0.38873167052E+03  0.17180173474E+03 0.  0.
         24    2    3    3    0    0 -0.32297069241E+02  0.29617046673E+03 -0.19501809426E+03  0.36487661173E+03  0.79641940306E+02 0.  0.
         -6    2    1    2    0  502  0.43972599250E+02 -0.27857880734E+03  0.15691008966E+03  0.36584504758E+03  0.17228488388E+03 0.  0.
        -24    2    5    5    0    0 -0.25237039269E+02 -0.15490728584E+03  0.13592203968E+03  0.22250207587E+03  0.79994984469E+02 0.  0.
          5    1    3    3  501    0 -0.11675530009E+02 -0.17591659387E+02 -0.10059291680E+02  0.23855058794E+02  0.47000000000E+01 0. -1.
        -13    1    4    4    0    0 -0.35372049970E+00  0.23986412888E+03 -0.17566379590E+03  0.29730908939E+03  0.00000000000E+00 0.  1.
         14    1    4    4    0    0 -0.31943348741E+02  0.56306337846E+02 -0.19354298358E+02  0.67567522341E+02  0.00000000000E+00 0. -1.
         -5    1    5    5    0  502  0.69209638519E+02 -0.12367152150E+03  0.20988049979E+02  0.14334297170E+03  0.47000000000E+01 0.  1.
         13    1    6    6    0    0  0.21233640957E+02 -0.10820224388E+03  0.84013471451E+02  0.13862487682E+03  0.00000000000E+00 0. -1.
        -14    1    6    6    0    0 -0.46470680226E+02 -0.46705041960E+02  0.51908568232E+02  0.83877199054E+02  0.00000000000E+00 0.  1.
</event>
<event>
12    1  0.8563264E-002  0.2631763E+03  0.7818608E-02  0.1105532E+00
         21   -1    0    0  501  502  0.00000000000E+00  0.00000000000E+00  0.14383990215E+04  0.14383990215E+04  0.00000000000E+00 0. -1.
         21   -1    0    0  502  503 -0.00000000000E+00 -0.00000000000E+00 -0.54242517181E+02  0.54242517181E+02  0.00000000000E+00 0. -1.
         -6    2    1    2    0  503  0.18056968233E+02 -0.19888964097E+03  0.43717231921E+03  0.51027580626E+03  0.17140192059E+03 0.  0.
        -24    2    3    3    0    0 -0.37979752891E+02 -0.13886854482E+03  0.19410215947E+03  0.25366746919E+03  0.77101246710E+02 0.  0.
          6    2    1    2  501    0 -0.18056968233E+02  0.19888964097E+03  0.94698418510E+03  0.98236573241E+03  0.16846436418E+03 0.  0.
         24    2    5    5    0    0 -0.43387035146E+02  0.18370156383E+03  0.59901942581E+03  0.63311817883E+03  0.79910302778E+02 0.  0.
          5    1    5    5  501    0  0.25330066913E+02  0.15188077138E+02  0.34796475929E+03  0.34924755358E+03  0.47000000000E+01 0. -1.
        -13    1    6    6    0    0 -0.25785399867E+02  0.54833965367E+02  0.31443791014E+03  0.32022312524E+03  0.00000000000E+00 0.  1.
         14    1    6    6    0    0 -0.17601635279E+02  0.12886759847E+03  0.28458151567E+03  0.31289505359E+03  0.00000000000E+00 0. -1.
         -5    1    3    3    0  503  0.56036721125E+02 -0.60021096153E+02  0.24307015974E+03  0.25660833707E+03  0.47000000000E+01 0.  1.
         11    1    4    4    0    0 -0.52323826991E+02 -0.76216184831E+02  0.77980619878E+02  0.12094489149E+03  0.00000000000E+00 0. -1.
        -12    1    4    4    0    0  0.14344074100E+02 -0.62652359989E+02  0.11612153959E+03  0.13272257770E+03  0.00000000000E+00 0.  1.
</event>
<event>
12    1  0.8563264E-002  0.2102263E+03  0.7818608E-02  0.1141506E+00
         21   -1    0    0  503  502  0.00000000000E+00  0.00000000000E+00  0.92026240935E+02  0.92026240935E+02  0.00000000000E+00 0.  1.
         21   -1    0    0  501  503 -0.00000000000E+00 -0.00000000000E+00 -0.47943190235E+03  0.47943190235E+03  0.00000000000E+00 0. -1.
          6    2    1    2  501    0  0.36039439521E+02 -0.11598964410E+03 -0.18364439603E+03  0.27868904374E+03  0.17085046142E+03 0.  0.
         24    2    3    3    0    0 -0.12501933053E+02 -0.13412632691E+03 -0.14832067528E+03  0.21579978104E+03  0.80152060990E+02 0.  0.
         -6    2    1    2    0  502 -0.36039439521E+02  0.11598964410E+03 -0.20376126538E+03  0.29276909954E+03  0.17158861745E+03 0.  0.
        -24    2    5    5    0    0  0.23547012958E+02  0.18807451356E+00 -0.94423232383E+02  0.12265900491E+03  0.74665838773E+02 0.  0.
          5    1    3    3  501    0  0.48541372574E+02  0.18136682816E+02 -0.35323720746E+02  0.62889262694E+02  0.47000000000E+01 0. -1.
        -13    1    4    4    0    0 -0.26264031222E+02 -0.71129560568E+01 -0.39581057991E+02  0.48031798130E+02  0.00000000000E+00 0.  1.
         14    1    4    4    0    0  0.13762098169E+02 -0.12701337086E+03 -0.10873961729E+03  0.16776798291E+03  0.00000000000E+00 0. -1.
         -5    1    5    5    0  502 -0.59586452480E+02  0.11580156958E+03 -0.10933803300E+03  0.17011009464E+03  0.47000000000E+01 0.  1.
         13    1    6    6    0    0 -0.23821885554E+02 -0.78773711347E+01 -0.55190717151E+02  0.60626318270E+02  0.00000000000E+00 0. -1.
        -14    1    6    6    0    0  0.47368898513E+02  0.80654456482E+01 -0.39232515232E+02  0.62032686636E+02  0.00000000000E+00 0.  1.
</event>
<event>
12    1  0.8563264E-002  0.1933046E+03  0.7818608E-02  0.1155523E+00
         21   -1    0    0  501  502  0.00000000000E+00  0.00000000000E+00  0.29467250519E+02  0.29467250519E+02  0.00000000000E+00 0. -1.
         21   -1    0    0  502  503 -0.00000000000E+00 -0.00000000000E+00 -0.15341506277E+04  0.15341506277E+04  0.00000000000E+00 0. -1.
         -6    2    1    2    0  503  0.31602334280E+02 -0.45837832716E+02 -0.10781457394E+04  0.10953378076E+04  0.18511310850E+03 0.  0.
        -24    2    3    3    0    0  0.30769705571E+02 -0.85810130174E+02 -0.10004082309E+04  0.10077953147E+04  0.80775086853E+02 0.  0.
          6    2    1    2  501    0 -0.31602334280E+02  0.45837832716E+02 -0.42653763786E+03  0.46828007070E+03  0.18507310356E+03 0.  0.
         24    2    5    5    0    0  0.51182334447E+02  0.28947365247E+02 -0.15323451097E+03  0.18217645584E+03  0.79056083856E+02 0.  0.
          5    1    5    5  501    0 -0.82784668727E+02  0.16890467469E+02 -0.27330312690E+03  0.28610361486E+03  0.47000000000E+01 0. -1.
        -11    1    6    6    0    0  0.13225540096E+02  0.29460472493E+02 -0.97164504672E+01  0.33723044940E+02  0.00000000000E+00 0.  1.
         12    1    6    6    0    0  0.37956794351E+02 -0.51310724550E+00 -0.14351806050E+03  0.14845341090E+03  0.00000000000E+00 0. -1.
         -5    1    3    3    0  503  0.83262870907E+00  0.39972297458E+02 -0.77737508425E+02  0.87542492829E+02  0.47000000000E+01 0.  1.
         11    1    4    4    0    0  0.24795220969E+02 -0.78201766300E+01 -0.55230567176E+03  0.55291727519E+03  0.00000000000E+00 0. -1.
        -12    1    4    4    0    0  0.59744846018E+01 -0.77989953544E+02 -0.44810255916E+03  0.45487803953E+03  0.00000000000E+00 0.  1.
</event>
<event>
12    1  0.8563264E-002  0.2576083E+03  0.7818608E-02  0.1108919E+00
         21   -1    0    0  501  502  0.00000000000E+00  0.00000000000E+00  0.77505116644E+02  0.77505116644E+02  0.00000000000E+00 0.  1.
         21   -1    0    0  502  503 -0.00000000000E+00 -0.00000000000E+00 -0.10230603766E+04  0.10230603766E+04  0.00000000000E+00 0. -1.
         -6    2    1    2    0  503 -0.15870996981E+03 -0.11037732516E+03 -0.70137308680E+03  0.74718555660E+03  0.17026461956E+03 0.  0.
        -24    2    3    3    0    0 -0.16904819978E+03 -0.12850987923E+03 -0.56147919718E+03  0.60566503204E+03  0.80493224994E+02 0.  0.
          6    2    1    2  501    0  0.15870996981E+03  0.11037732516E+03 -0.24418217317E+03  0.35337993666E+03  0.16697436184E+03 0.  0.
         24    2    5    5    0    0  0.87721065815E+02  0.75382729520E+02 -0.59001484788E+02  0.15194006085E+03  0.78911758235E+02 0.  0.
          5    1    5    5  501    0  0.70988903995E+02  0.34994595638E+02 -0.18518068838E+03  0.20143987580E+03  0.47000000000E+01 0. -1.
        -11    1    6    6    0    0  0.67416271220E+02  0.46558976029E+02 -0.76928796857E+02  0.11238652793E+03  0.00000000000E+00 0.  1.
         12    1    6    6    0    0  0.20304794595E+02  0.28823753491E+02  0.17927312069E+02  0.39553532925E+02  0.00000000000E+00 0. -1.
         -5    1    3    3    0  503  0.10338229967E+02  0.18132554077E+02 -0.13989388962E+03  0.14152052455E+03  0.47000000000E+01 0.  1.
         11    1    4    4    0    0 -0.12427565922E+02  0.38502275438E+01 -0.97862661900E+02  0.98723701516E+02  0.00000000000E+00 0. -1.
        -12    1    4    4    0    0 -0.15662063385E+03 -0.13236010678E+03 -0.46361653528E+03  0.50694133053E+03  0.00000000000E+00 0.  1.
</event>
<event>
12    1  0.8563264E-002  0.2254922E+03  0.7818608E-02  0.1130111E+00
         21   -1    0    0  503  502  0.00000000000E+00  0.00000000000E+00  0.28564004597E+03  0.28564004597E+03  0.00000000000E+00 0. -1.
         21   -1    0    0  501  503 -0.00000000000E+00 -0.00000000000E+00 -0.18777757586E+03  0.18777757586E+03  0.00000000000E+00 0.  1.
          6    2    1    2  501    0 -0.94425644069E+02 -0.11006325709E+03  0.10578198153E+03  0.24778641541E+03  0.17081615038E+03 0.  0.
         24    2    3    3    0    0 -0.45132005025E+01 -0.29603548269E+02  0.93635429774E+02  0.12642892298E+03  0.79498049078E+02 0.  0.
         -6    2    1    2    0  502  0.94425644069E+02  0.11006325709E+03 -0.79195114213E+01  0.22563120642E+03  0.17267483844E+03 0.  0.
        -24    2    5    5    0    0  0.20403583074E+02  0.46756534796E+02  0.54922483170E+02  0.10962166851E+03  0.79987194606E+02 0.  0.
          5    1    3    3  501    0 -0.89912443566E+02 -0.80459708818E+02  0.12146551753E+02  0.12135749244E+03  0.47000000000E+01 0. -1.
        -11    1    4    4    0    0 -0.36420050809E+02 -0.16612770959E+02  0.19175800038E+02  0.44385983902E+02  0.00000000000E+00 0.  1.
         12    1    4    4    0    0  0.31906850306E+02 -0.12990777310E+02  0.74459629736E+02  0.82042939074E+02  0.00000000000E+00 0. -1.
         -5    1    5    5    0  502  0.74022060995E+02  0.63306722291E+02 -0.62841994591E+02  0.11600953791E+03  0.47000000000E+01 0.  1.
         11    1    6    6    0    0  0.37588429712E+02  0.36849345166E+02  0.15264143134E+01  0.52660176871E+02  0.00000000000E+00 0. -1.
        -12    1    6    6    0    0 -0.17184846639E+02  0.99071896295E+01  0.53396068857E+02  0.56961491639E+02  0.00000000000E+00 0.  1.
</event>
<event>
12    1  0.8563264E-002  0.2590376E+03  0.7818608E-02  0.1110310E+00
         21   -1    0    0  503  502  0.00000000000E+00  0.00000000000E+00  0.27726009196E+03  0.27726009196E+03  0.00000000000E+00 0.  1.
         21   -1    0    0  501  503 -0.00000000000E+00 -0.00000000000E+00 -0.29498176899E+03  0.29498176899E+03  0.00000000000E+00 0.  1.
          6    2    1    2  501    0 -0.66074736845E+02  0.15815033327E+03 -0.14613987170E+03  0.28311953239E+03  0.17152961482E+03 0.  0.
         24    2    3    3    0    0  0.19638343835E+02  0.12168415716E+03 -0.10295819459E+03  0.18034180408E+03  0.82037051464E+02 0.  0.
         -6    2    1    2    0  502  0.66074736845E+02 -0.15815033327E+03  0.12841819466E+03  0.28912232856E+03  0.19422432749E+03 0.  0.
        -24    2    5    5    0    0  0.32303332994E+02 -0.97003371273E+02  0.16504206720E+03  0.21011057805E+03  0.80339353371E+02 0.  0.
          5    1    3    3  501    0 -0.85713080680E+02  0.36466176104E+02 -0.43181677107E+02  0.10277772831E+03  0.47000000000E+01 0. -1.
        -11    1    4    4    0    0  0.31801908301E+02  0.68831971704E+01 -0.25150137664E+02  0.41125043458E+02  0.00000000000E+00 0.  1.
         12    1    4    4    0    0 -0.12163564466E+02  0.11480095999E+03 -0.77808056929E+02  0.13921676062E+03  0.00000000000E+00 0. -1.
         -5    1    5    5    0  502  0.33771403850E+02 -0.61146961994E+02 -0.36623872536E+02  0.79011750510E+02  0.47000000000E+01 0.  1.
         11    1    6    6    0    0  0.41616512268E+02 -0.80112001249E+02  0.16788057196E+03  0.19061414764E+03  0.00000000000E+00 0. -1.
        -12    1    6    6    0    0 -0.93131792731E+01 -0.16891370023E+02 -0.28385047595E+01  0.19496430409E+02  0.00000000000E+00 0.  1.
</event>
<event>
12    1  0.8563264E-002  0.1893991E+03  0.7818608E-02  0.1159588E+00
         21   -1    0    0  503  502  0.00000000000E+00  0.00000000000E+00  0.65217990254E+03  0.65217990254E+03  0.00000000000E+00 0. -1.
         21   -1    0    0  501  503 -0.00000000000E+00 -0.00000000000E+00 -0.54262768008E+02  0.54262768008E+02  0.00000000000E+00 0. -1.
          6    2    1    2  501    0 -0.78628851695E+02  0.78191325137E+01  0.30007770877E+03  0.35485019250E+03  0.17212900008E+03 0.  0.
         24    2    3    3    0    0  0.10590859597E+02  0.11576730451E+02  0.66715225774E+02  0.10494137935E+03  0.79470653414E+02 0.  0.
         -6    2    1    2    0  502  0.78628851695E+02 -0.78191325137E+01  0.29783942576E+03  0.35159247804E+03  0.16930833389E+03 0.  0.
        -24    2    5    5    0    0  0.88547775942E-01 -0.54611794159E+02  0.10920675822E+03  0.14192010077E+03  0.72337701522E+02 0.  0.
          5    1    3    3  501    0 -0.89219711293E+02 -0.37575979374E+01  0.23336248299E+03  0.24990881316E+03  0.47000000000E+01 0. -1.
        -13    1    4    4    0    0 -0.15373136587E+02  0.37801415081E+02  0.49692503426E+02  0.64301051371E+02  0.00000000000E+00 0.  1.
         14    1    4    4    0    0  0.25963996184E+02 -0.26224684630E+02  0.17022722348E+02  0.40640327975E+02  0.00000000000E+00 0. -1.
         -5    1    5    5    0  502  0.78540303919E+02  0.46792661645E+02  0.18863266754E+03  0.20967237727E+03  0.47000000000E+01 0.  1.
         13    1    6    6    0    0 -0.17837827851E+02  0.23535484503E+01  0.65471094995E+02  0.67898391532E+02  0.00000000000E+00 0. -1.
        -14    1    6    6    0    0  0.17926375627E+02 -0.56965342609E+02  0.43735663222E+02  0.74021709243E+02  0.00000000000E+00 0.  1.
</event>
<event>
12    1  0.8563264E-002  0.1929303E+03  0.7818608E-02  0.1156243E+00
         21   -1    0    0  503  502  0.00000000000E+00  0.00000000000E+00  0.34759258678E+03  0.34759258678E+03  0.00000000000E+00 0. -1.
         21   -1    0    0  501  503 -0.00000000000E+00 -0.00000000000E+00 -0.28322999975E+03  0.28322999975E+03  0.00000000000E+00 0.  1.
          6    2    1    2  501    0  0.14667511557E+02 -0.85616771024E+02 -0.21719902174E+03  0.29051253378E+03  0.17226941070E+03 0.  0.
         24    2    3    3    0    0  0.12615365848E+02 -0.60227644902E+01 -0.18865378340E+03  0.20579926558E+03  0.81041141234E+02 0.  0.
         -6    2    1    2    0  502 -0.14667511557E+02  0.85616771024E+02  0.28156160877E+03  0.34031005274E+03  0.17026046249E+03 0.  0.
        -24    2    5    5    0    0  0.52668475660E+02  0.46540118461E+02  0.11978194848E+03  0.16071086445E+03  0.80872219063E+02 0.  0.
          5    1    3    3  501    0  0.20521457087E+01 -0.79594006534E+02 -0.28545238339E+02  0.84713268205E+02  0.47000000000E+01 0. -1.
        -11    1    4    4    0    0  0.19261138989E+02 -0.33653109725E+02 -0.16288735574E+03  0.16743898570E+03  0.00000000000E+00 0.  1.
         12    1    4    4    0    0 -0.66457731403E+01  0.27630345235E+02 -0.25766427660E+02  0.38360279884E+02  0.00000000000E+00 0. -1.
         -5    1    5    5    0  502 -0.67335987218E+02  0.39076652563E+02  0.16177966029E+03  0.17959918829E+03  0.47000000000E+01 0.  1.
         13    1    6    6    0    0 -0.12138415293E+02  0.40189481963E+02  0.44662761815E+02  0.61296801542E+02  0.00000000000E+00 0. -1.
        -14    1    6    6    0    0  0.64806890953E+02  0.63506364978E+01  0.75119186665E+02  0.99414062909E+02  0.00000000000E+00 0.  1.
</event>
<event>
12    1  0.8563264E-002  0.1765449E+03  0.7818608E-02  0.1171712E+00
         21   -1    0    0  503  502  0.00000000000E+00  0.00000000000E+00  0.35382635245E+03  0.35382635245E+03  0.00000000000E+00 0.  1.
         21   -1    0    0  501  503 -0.00000000000E+00 -0.00000000000E+00 -0.91736999829E+02  0.91736999829E+02  0.00000000000E+00 0.  1.
          6    2    1    2  501    0  0.34022701155E+02  0.15519317742E+02  0.18066813310E+03  0.25114750658E+03  0.17039865706E+03 0.  0.
         24    2    3    3    0    0 -0.81956634626E+01 -0.36971806073E+02  0.44767270436E+02  0.99394935389E+02  0.80256846031E+02 0.  0.
         -6    2    1    2    0  502 -0.34022701155E+02 -0.15519317742E+02  0.81421219522E+02  0.19441584570E+03  0.17253901777E+03 0.  0.
        -24    2    5    5    0    0 -0.71784345351E+01 -0.51233270119E+02  0.10547532254E+03  0.14345712793E+03  0.82331804300E+02 0.  0.
          5    1    3    3  501    0  0.42218364617E+02  0.52491123814E+02  0.13590086267E+03  0.15175257119E+03  0.47000000000E+01 0. -1.
        -11    1    4    4    0    0 -0.34661367738E+02 -0.30869015460E+02 -0.71529973253E+00  0.46420019201E+02  0.00000000000E+00 0.  1.
         12    1    4    4    0    0  0.26465704275E+02 -0.61027906131E+01  0.45482570168E+02  0.52974916188E+02  0.00000000000E+00 0. -1.
         -5    1    5    5    0  502 -0.26844266620E+02  0.35713952377E+02 -0.24054103018E+02  0.50958717770E+02  0.47000000000E+01 0.  1.
         13    1    6    6    0    0  0.71079903208E+01 -0.25649435397E+02  0.11055836416E+03  0.11371705654E+03  0.00000000000E+00 0. -1.
        -14    1    6    6    0    0 -0.14286424856E+02 -0.25583834722E+02 -0.50830416173E+01  0.29740071390E+02  0.00000000000E+00 0.  1.
</event>
<event>
12    1  0.8563264E-002  0.3198138E+03  0.7818608E-02  0.1075757E+00
         21   -1    0    0  501  502  0.00000000000E+00  0.00000000000E+00  0.34455707999E+03  0.34455707999E+03  0.00000000000E+00 0.  1.
         21   -1    0    0  502  503 -0.00000000000E+00 -0.00000000000E+00 -0.33000417573E+03  0.33000417573E+03  0.00000000000E+00 0. -1.
         -6    2    1    2    0  503 -0.51705330007E+01  0.26959925435E+03  0.11447682811E+03  0.33968489839E+03  0.17196044214E+03 0.  0.
        -24    2    3    3    0    0  0.21030922318E+02  0.68512552878E+02  0.81404328558E+02  0.13416541514E+03  0.78977365843E+02 0.  0.
          6    2    1    2  501    0  0.51705330007E+01 -0.26959925435E+03 -0.99923923843E+02  0.33487635733E+03  0.17160096675E+03 0.  0.
         24    2    5    5    0    0  0.66999862946E+02 -0.13642268998E+03 -0.62913444086E+02  0.18338137738E+03  0.81058597003E+02 0.  0.
          5    1    5    5  501    0 -0.61829329946E+02 -0.13317656437E+03 -0.37010479757E+02  0.15149497995E+03  0.47000000000E+01 0. -1.
        -13    1    6    6    0    0  0.14319586130E+02 -0.36768923601E+02  0.19239549343E+02  0.43899482328E+02  0.00000000000E+00 0.  1.
         14    1    6    6    0    0  0.52680276817E+02 -0.99653766380E+02 -0.82152993429E+02  0.13948189506E+03  0.00000000000E+00 0. -1.
         -5    1    3    3    0  503 -0.26201455318E+02  0.20108670147E+03  0.33072499553E+02  0.20551948325E+03  0.47000000000E+01 0.  1.
         13    1    4    4    0    0 -0.15375593173E+01 -0.15976629908E+02  0.22425882999E+01  0.16206356597E+02  0.00000000000E+00 0. -1.
        -14    1    4    4    0    0  0.22568481635E+02  0.84489182785E+02  0.79161740258E+02  0.11795905854E+03  0.00000000000E+00 0.  1.
</event>
<event>
12    1  0.8563264E-002  0.1741879E+03  0.7818608E-02  0.1173563E+00
         21   -1    0    0  503  502  0.00000000000E+00  0.00000000000E+00  0.24571933865E+02  0.24571933865E+02  0.00000000000E+00 0. -1.
         21   -1    0    0  501  503 -0.00000000000E+00 -0.00000000000E+00 -0.18609444101E+04  0.18609444101E+04  0.00000000000E+00 0. -1.
          6    2    1    2  501    0 -0.47555359069E+01  0.26775605273E+02 -0.14651094444E+04  0.14754216605E+04  0.17199954686E+03 0.  0.
         24    2    3    3    0    0  0.49992323716E+02  0.42787935946E+02 -0.11849911618E+04  0.11895159678E+04  0.80088353058E+02 0.  0.
         -6    2    1    2    0  502  0.47555359069E+01 -0.26775605273E+02 -0.37126303185E+03  0.41009468346E+03  0.17205191780E+03 0.  0.
        -24    2    5    5    0    0 -0.49361452314E+02 -0.17973726799E+02 -0.32353125942E+03  0.33724872558E+03  0.79401632586E+02 0.  0.
          5    1    3    3  501    0 -0.54747859623E+02 -0.16012330673E+02 -0.28011828259E+03  0.28590569268E+03  0.47000000000E+01 0. -1.
        -11    1    4    4    0    0  0.12343266429E+02  0.10696702166E+02 -0.36826562508E+02  0.40286118819E+02  0.00000000000E+00 0.  1.
         12    1    4    4    0    0  0.37649057287E+02  0.32091233781E+02 -0.11481645993E+04  0.11492298490E+04  0.00000000000E+00 0. -1.
         -5    1    5    5    0  502  0.54116988221E+02 -0.88018784745E+01 -0.47731772439E+02  0.72845957876E+02  0.47000000000E+01 0.  1.
         13    1    6    6    0    0  0.55306976405E+01  0.16043991386E+02 -0.17118579971E+02  0.24104855449E+02  0.00000000000E+00 0. -1.
        -14    1    6    6    0    0 -0.54892149955E+02 -0.34017718184E+02 -0.30641267944E+03  0.31314387013E+03  0.00000000000E+00 0.  1.
</event>
<event>
12    1  0.8563264E-002  0.4302641E+03  0.7818608E-02  0.1033904E+00
         21   -1    0    0  501  502  0.00000000000E+00  0.00000000000E+00  0.13404279380E+04  0.13404279380E+04  0.00000000000E+00 0.  1.
         21   -1    0    0  502  503 -0.00000000000E+00 -0.00000000000E+00 -0.15786388705E+03  0.15786388705E+03  0.00000000000E+00 0. -1.
         -6    2    1    2    0  503 -0.15245073332E+03 -0.36385421974E+03  0.32380483740E+03  0.53849493225E+03  0.17174428674E+03 0.  0.
        -24    2    3    3    0    0 -0.17851806279E+02 -0.89383916175E+02  0.61844706509E+02  0.13588343357E+03  0.79569895920E+02 0.  0.
          6    2    1    2  501    0  0.15245073332E+03  0.36385421974E+03  0.85875921359E+03  0.95979689284E+03  0.16766505082E+03 0.  0.
         24    2    5    5    0    0  0.92899079784E+02  0.92546698266E+02  0.36734461817E+03  0.39529307068E+03  0.64182652181E+02 0.  0.
          5    1    5    5  501    0  0.59551653532E+02  0.27130752147E+03  0.49141459542E+03  0.56450382216E+03  0.47000000000E+01 0. -1.
        -11    1    6    6    0    0  0.13277805666E+02 -0.74256072745E+00  0.78273034433E+01  0.15431078994E+02  0.00000000000E+00 0.  1.
         12    1    6    6    0    0  0.79621274118E+02  0.93289258994E+02  0.35951731473E+03  0.37986199168E+03  0.00000000000E+00 0. -1.
         -5    1    3    3    0  503 -0.13459892704E+03 -0.27447030356E+03  0.26196013089E+03  0.40261149868E+03  0.47000000000E+01 0.  1.
         11    1    4    4    0    0  0.15711734873E+02 -0.62399937380E+02  0.66537764896E+02  0.92562870283E+02  0.00000000000E+00 0. -1.
        -12    1    4    4    0    0 -0.33563541152E+02 -0.26983978795E+02 -0.46930583864E+01  0.43320563285E+02  0.00000000000E+00 0.  1.
</event>
<event>
12    1  0.8563264E-002  0.2625961E+03  0.7818608E-02  0.1107744E+00
         21   -1    0    0  503  502  0.00000000000E+00  0.00000000000E+00  0.19277739386E+03  0.19277739386E+03  0.00000000000E+00 0. -1.
         21   -1    0    0  501  503 -0.00000000000E+00 -0.00000000000E+00 -0.37613294780E+03  0.37613294780E+03  0.00000000000E+00 0.  1.
          6    2    1    2  501    0 -0.94958670285E+02  0.15303912359E+03 -0.17901848725E+03  0.30627841833E+03  0.17123296511E+03 0.  0.
         24    2    3    3    0    0 -0.74814438710E+02  0.14136448524E+03 -0.20437650383E+03  0.27153354459E+03  0.79872351880E+02 0.  0.
         -6    2    1    2    0  502  0.94958670285E+02 -0.15303912359E+03 -0.43370666811E+01  0.26263192333E+03  0.19109838982E+03 0.  0.
        -24    2    5    5    0    0  0.36394966543E+01  0.36170468220E+01  0.26900119228E+01  0.81105569774E+02  0.80898382683E+02 0.  0.
          5    1    3    3  501    0 -0.20144231574E+02  0.11674638351E+02  0.25358016571E+02  0.34744873734E+02  0.47000000000E+01 0. -1.
        -13    1    4    4    0    0 -0.16549723083E+02  0.87657180475E+02 -0.15296174363E+03  0.17707334536E+03  0.00000000000E+00 0.  1.
         14    1    4    4    0    0 -0.58264715627E+02  0.53707304769E+02 -0.51414760193E+02  0.94460199229E+02  0.00000000000E+00 0. -1.
         -5    1    5    5    0  502  0.91319173630E+02 -0.15665617042E+03 -0.70270786039E+01  0.18152635356E+03  0.47000000000E+01 0.  1.
         13    1    6    6    0    0  0.14632296880E+01  0.11939582388E+01  0.41808801785E+02  0.41851433477E+02  0.00000000000E+00 0. -1.
        -14    1    6    6    0    0  0.21762669663E+01  0.24230885831E+01 -0.39118789862E+02  0.39254136297E+02  0.00000000000E+00 0.  1.
</event>
<event>
12    1  0.8563264E-002  0.1782733E+03  0.7818608E-02  0.1171700E+00
         21   -1    0    0  501  502  0.00000000000E+00  0.00000000000E+00  0.98470795837E+03  0.98470795837E+03  0.00000000000E+00 0.  1.
         21   -1    0    0  502  503 -0.00000000000E+00 -0.00000000000E+00 -0.45884437595E+02  0.45884437595E+02  0.00000000000E+00 0.  1.
         -6    2    1    2    0  503 -0.37313066429E+02 -0.41419042399E+02  0.18100621991E+03  0.25405634044E+03  0.16933272120E+03 0.  0.
        -24    2    3    3    0    0 -0.90276787374E+02 -0.34622820822E+02  0.12496559045E+03  0.17650644350E+03  0.78673297511E+02 0.  0.
          6    2    1    2  501    0  0.37313066429E+02  0.41419042399E+02  0.75781730087E+03  0.77653605553E+03  0.16004181343E+03 0.  0.
         24    2    5    5    0    0  0.26751180650E+02  0.79213159658E+02  0.41349982268E+03  0.42995768847E+03  0.83013012155E+02 0.  0.
          5    1    5    5  501    0  0.10561885778E+02 -0.37794117259E+02  0.34431747819E+03  0.34657836706E+03  0.47000000000E+01 0. -1.
        -11    1    6    6    0    0 -0.15279606815E+02  0.34606630655E+02  0.28601082016E+03  0.28850177559E+03  0.00000000000E+00 0.  1.
         12    1    6    6    0    0  0.42030787466E+02  0.44606529003E+02  0.12748900252E+03  0.14145591288E+03  0.00000000000E+00 0. -1.
         -5    1    3    3    0  503  0.52963720945E+02 -0.67962215767E+01  0.56040629462E+02  0.77549896935E+02  0.47000000000E+01 0.  1.
         13    1    4    4    0    0 -0.75527102257E+02 -0.52098415686E+01  0.40501432188E+02  0.85859487733E+02  0.00000000000E+00 0. -1.
        -14    1    4    4    0    0 -0.14749685118E+02 -0.29412979253E+02  0.84464158259E+02  0.90646955768E+02  0.00000000000E+00 0.  1.
</event>
<event>
12    1  0.8563264E-002  0.1847173E+03  0.7818608E-02  0.1163842E+00
         21   -1    0    0  501  502  0.00000000000E+00  0.00000000000E+00  0.11262657519E+03  0.11262657519E+03  0.00000000000E+00 0.  1.
         21   -1    0    0  502  503 -0.00000000000E+00 -0.00000000000E+00 -0.33927914456E+03  0.33927914456E+03  0.00000000000E+00 0.  1.
         -6    2    1    2    0  503 -0.57768195654E+02 -0.14269053147E+02 -0.19151126774E+03  0.26607711242E+03  0.17487050573E+03 0.  0.
        -24    2    3    3    0    0 -0.44198635508E+02 -0.37107784501E+01 -0.18848104505E+02  0.92496387492E+02  0.78949613033E+02 0.  0.
          6    2    1    2  501    0  0.57768195654E+02  0.14269053147E+02 -0.35141301635E+02  0.18582860734E+03  0.17250098526E+03 0.  0.
         24    2    5    5    0    0  0.10154001949E+03 -0.13016303241E+02 -0.17752685481E+02  0.13119421152E+03  0.80105952250E+02 0.  0.
          5    1    5    5  501    0 -0.43771823834E+02  0.27285356388E+02 -0.17388616154E+02  0.54634395821E+02  0.47000000000E+01 0. -1.
        -13    1    6    6    0    0  0.89890762686E+02 -0.15149195534E+02  0.18534358132E+02  0.93023490436E+02  0.00000000000E+00 0.  1.
         14    1    6    6    0    0  0.11649256802E+02  0.21328922929E+01 -0.36287043613E+02  0.38170721080E+02  0.00000000000E+00 0. -1.
         -5    1    3    3    0  503 -0.13569560146E+02 -0.10558274697E+02 -0.17266316324E+03  0.17358072493E+03  0.47000000000E+01 0.  1.
         13    1    4    4    0    0  0.54907406850E+01 -0.31906951711E+02 -0.12971533347E+00  0.32376204639E+02  0.00000000000E+00 0. -1.
        -14    1    4    4    0    0 -0.49689376193E+02  0.28196173261E+02 -0.18718389172E+02  0.60120182853E+02  0.00000000000E+00 0.  1.
</event>
<event>
12    1  0.8563264E-002  0.2078775E+03  0.7818608E-02  0.1143554E+00
         21   -1    0    0  503  502  0.00000000000E+00  0.00000000000E+00  0.96795736324E+03  0.96795736324E+03  0.00000000000E+00 0. -1.
         21   -1    0    0  501  503 -0.00000000000E+00 -0.00000000000E+00 -0.57390606041E+02  0.57390606041E+02  0.00000000000E+00 0. -1.
          6    2    1    2  501    0  0.75798355802E+02 -0.88980532096E+02  0.21194825441E+03  0.29687559251E+03  0.17190150973E+03 0.  0.
         24    2    3    3    0    0  0.83756736994E+01 -0.53836425665E+02  0.19730717699E+03  0.21930383588E+03  0.78711738031E+02 0.  0.
         -6    2    1    2    0  502 -0.75798355802E+02  0.88980532096E+02  0.69861850278E+03  0.72847237676E+03  0.17012132565E+03 0.  0.
        -24    2    5    5    0    0 -0.10657859842E+03  0.42731944401E+02  0.38040787630E+03  0.40541441292E+03  0.80409434354E+02 0.  0.
          5    1    3    3  501    0  0.67422682102E+02 -0.35144106432E+02  0.14641077423E+02  0.77571756631E+02  0.47000000000E+01 0. -1.
        -11    1    4    4    0    0 -0.11016278480E+02  0.14246004875E+01 -0.22473534979E+01  0.11333070009E+02  0.00000000000E+00 0.  1.
         12    1    4    4    0    0  0.19391952179E+02 -0.55261026152E+02  0.19955453049E+03  0.20797076587E+03  0.00000000000E+00 0. -1.
         -5    1    5    5    0  502  0.30780242621E+02  0.46248587696E+02  0.31821062648E+03  0.32305796385E+03  0.47000000000E+01 0.  1.
         13    1    6    6    0    0 -0.99924226273E+02  0.61460513082E+02  0.28963611478E+03  0.31249211934E+03  0.00000000000E+00 0. -1.
        -14    1    6    6    0    0 -0.66543721492E+01 -0.18728568682E+02  0.90771761521E+02  0.92922293574E+02  0.00000000000E+00 0.  1.
</event>
<event>
12    1  0.8563264E-002  0.2376287E+03  0.7818608E-02  0.1121554E+00
         21   -1    0    0  501  502  0.00000000000E+00  0.00000000000E+00  0.65915767558E+02  0.65915767558E+02  0.00000000000E+00 0. -1.
         21   -1    0    0  502  503 -0.00000000000E+00 -0.00000000000E+00 -0.10449876751E+04  0.10449876751E+04  0.00000000000E+00 0. -1.
         -6    2    1    2    0  503 -0.15729002899E+03 -0.40303229766E+02 -0.72675373173E+03  0.76430302299E+03  0.17211513826E+03 0.  0.
        -24    2    3    3    0    0 -0.70571911264E+02 -0.87885659042E+02 -0.44955696204E+03  0.46994905470E+03  0.77758396171E+02 0.  0.
          6    2    1    2  501    0  0.15729002899E+03  0.40303229766E+02 -0.25231817583E+03  0.34660041969E+03  0.17350183148E+03 0.  0.
         24    2    5    5    0    0  0.23339551326E+02  0.44039611017E+02 -0.56659477177E+02  0.10940617994E+03  0.79216121217E+02 0.  0.
          5    1    5    5  501    0  0.13395047766E+03 -0.37363812517E+01 -0.19565869865E+03  0.23719423975E+03  0.47000000000E+01 0. -1.
        -13    1    6    6    0    0  0.98258586733E+01  0.50680287604E+02 -0.71550099451E+02  0.88229562969E+02  0.00000000000E+00 0.  1.
         14    1    6    6    0    0  0.13513692653E+02 -0.66406765866E+01  0.14890622274E+02  0.21176616971E+02  0.00000000000E+00 0. -1.
         -5    1    3    3    0  503 -0.86718117724E+02  0.47582429276E+02 -0.27719676969E+03  0.29435396828E+03  0.47000000000E+01 0.  1.
         11    1    4    4    0    0 -0.87333150039E+02 -0.79514833126E+02 -0.38196970813E+03  0.39981313849E+03  0.00000000000E+00 0. -1.
        -12    1    4    4    0    0  0.16761238776E+02 -0.83708259158E+01 -0.67587253909E+02  0.70135916211E+02  0.00000000000E+00 0.  1.
</event>
<event>
12    1  0.8563264E-002  0.1966630E+03  0.7818608E-02  0.1152658E+00
         21   -1    0    0  501  502  0.00000000000E+00  0.00000000000E+00  0.31031035603E+03  0.31031035603E+03  0.00000000000E+00 0. -1.
         21   -1    0    0  502  503 -0.00000000000E+00 -0.00000000000E+00 -0.23625257331E+03  0.23625257331E+03  0.00000000000E+00 0.  1.
         -6    2    1    2    0  503 -0.91614648971E+02 -0.25828855268E+02 -0.15097212788E+03  0.24792928975E+03  0.17209292736E+03 0.  0.
        -24    2    3    3    0    0 -0.10585672446E+03  0.13310062897E+02 -0.15621962584E+03  0.20568810292E+03  0.80747881077E+02 0.  0.
          6    2    1    2  501    0  0.91614648971E+02  0.25828855268E+02  0.22502991060E+03  0.29863363959E+03  0.17170677435E+03 0.  0.
         24    2    5    5    0    0  0.90762559861E+01 -0.22826001270E+02  0.48667319541E+02  0.97870757292E+02  0.81282054507E+02 0.  0.
          5    1    5    5  501    0  0.82538392985E+02  0.48654856538E+02  0.17636259106E+03  0.20076288229E+03  0.47000000000E+01 0. -1.
        -13    1    6    6    0    0 -0.32946726475E+02 -0.26992240923E+02  0.26713426096E+02  0.50275988197E+02  0.00000000000E+00 0.  1.
         14    1    6    6    0    0  0.42022982461E+02  0.41662396527E+01  0.21953893444E+02  0.47594769094E+02  0.00000000000E+00 0. -1.
         -5    1    3    3    0  503  0.14242075493E+02 -0.39138918166E+02  0.52474979615E+01  0.42241186825E+02  0.47000000000E+01 0.  1.
         11    1    4    4    0    0  0.26846907232E+01 -0.82948247661E+00  0.79173680079E+01  0.84012095338E+01  0.00000000000E+00 0. -1.
        -12    1    4    4    0    0 -0.10854141519E+03  0.14139545374E+02 -0.16413699385E+03  0.19728689339E+03  0.00000000000E+00 0.  1.
</event>
<event>
12    1  0.8563264E-002  0.1780891E+03  0.7818608E-02  0.1170170E+00
         21   -1    0    0  503  502  0.00000000000E+00  0.00000000000E+00  0.40940824659E+03  0.40940824659E+03  0.00000000000E+00 0.  1.
         21   -1    0    0  501  503 -0.00000000000E+00 -0.00000000000E+00 -0.86820897101E+02  0.86820897101E+02  0.00000000000E+00 0.  1.
          6    2    1    2  501    0  0.53815977558E+01 -0.38251664142E+02  0.75263554664E+02  0.19145907200E+03  0.17175512274E+03 0.  0.
         24    2    3    3    0    0  0.31862342727E+02 -0.66830828237E+02  0.97589174320E+02  0.14630908011E+03  0.80007071512E+02 0.  0.
         -6    2    1    2    0  502 -0.53815977558E+01  0.38251664142E+02  0.24732379482E+03  0.30477007169E+03  0.17384931897E+03 0.  0.
        -24    2    5    5    0    0  0.62415232097E+02  0.38539014723E+02  0.13799085872E+03  0.17603672859E+03  0.81034164822E+02 0.  0.
          5    1    3    3  501    0 -0.26480744971E+02  0.28579164095E+02 -0.22325619656E+02  0.45149991889E+02  0.47000000000E+01 0. -1.
        -11    1    4    4    0    0  0.40624626032E+02  0.68932593694E+00  0.41706927390E+02  0.58226310229E+02  0.00000000000E+00 0.  1.
         12    1    4    4    0    0 -0.87622833056E+01 -0.67520154174E+02  0.55882246930E+02  0.88082769883E+02  0.00000000000E+00 0. -1.
         -5    1    5    5    0  502 -0.67796829852E+02 -0.28735058133E+00  0.10933293610E+03  0.12873334310E+03  0.47000000000E+01 0.  1.
         13    1    6    6    0    0  0.38747443460E+02 -0.19680344277E+02  0.77245910204E+02  0.88631884606E+02  0.00000000000E+00 0. -1.
        -14    1    6    6    0    0  0.23667788637E+02  0.58219359001E+02  0.60744948517E+02  0.87404843983E+02  0.00000000000E+00 0.  1.
</event>
<event>
12    1  0.8563264E-002  0.1794450E+03  0.7818608E-02  0.1168399E+00
         21   -1    0    0  503  502  0.00000000000E+00  0.00000000000E+00  0.43543897357E+02  0.43543897357E+02  0.00000000000E+00 0. -1.
         21   -1    0    0  501  503 -0.00000000000E+00 -0.00000000000E+00 -0.80139672001E+03  0.80139672001E+03  0.00000000000E+00 0. -1.
          6    2    1    2  501    0  0.45381932505E+02  0.27020094220E+02 -0.49750113378E+03  0.52887416597E+03  0.17149606416E+03 0.  0.
         24    2    3    3    0    0  0.28243997530E+02  0.48346939799E+02 -0.14186132062E+03  0.17215255201E+03  0.79854347981E+02 0.  0.
         -6    2    1    2    0  502 -0.45381932505E+02 -0.27020094220E+02 -0.26035168887E+03  0.31606645140E+03  0.17124658978E+03 0.  0.
        -24    2    5    5    0    0 -0.38029080354E+02  0.50401933618E+02 -0.15425292847E+03  0.18443335606E+03  0.78962845831E+02 0.  0.
          5    1    3    3  501    0  0.17137934976E+02 -0.21326845578E+02 -0.35563981317E+03  0.35672161396E+03  0.47000000000E+01 0. -1.
        -13    1    4    4    0    0  0.55100883911E+02  0.37603085307E+02 -0.11343708707E+03  0.13159814648E+03  0.00000000000E+00 0.  1.
         14    1    4    4    0    0 -0.26856886382E+02  0.10743854492E+02 -0.28424233541E+02  0.40554405530E+02  0.00000000000E+00 0. -1.
         -5    1    5    5    0  502 -0.73528521513E+01 -0.77422027839E+02 -0.10609876040E+03  0.13163309534E+03  0.47000000000E+01 0.  1.
         11    1    6    6    0    0 -0.61950588796E+02  0.27003350256E+02 -0.10014740001E+03  0.12081621624E+03  0.00000000000E+00 0. -1.
        -12    1    6    6    0    0  0.23921508442E+02  0.23398583362E+02 -0.54105528459E+02  0.63617139824E+02  0.00000000000E+00 0.  1.
</event>
<event>
12    1  0.8563264E-002  0.2003387E+03  0.7818608E-02  0.1150457E+00
         21   -1    0    0  503  502  0.00000000000E+00  0.00000000000E+00  0.33481028792E+03  0.33481028792E+03  0.00000000000E+00 0.  1.
         21   -1    0    0  501  503 -0.00000000000E+00 -0.00000000000E+00 -0.20217729674E+03  0.20217729674E+03  0.00000000000E+00 0.  1.
          6    2    1    2  501    0 -0.61043434677E+01  0.98731682540E+02 -0.10832733982E+03  0.22362283376E+03  0.16878137066E+03 0.  0.
         24    2    3    3    0    0 -0.60591507849E+02  0.70994712243E+02 -0.10582502214E+03  0.16225067234E+03  0.80092230423E+02 0.  0.
         -6    2    1    2    0  502  0.61043434677E+01 -0.98731682540E+02  0.24096033099E+03  0.31336475090E+03  0.17421359835E+03 0.  0.
        -24    2    5    5    0    0  0.36404194249E+02  0.82909902931E+01  0.93906497631E+02  0.12892274548E+03  0.80053970083E+02 0.  0.
          5    1    3    3  501    0  0.54487164382E+02  0.27736970297E+02 -0.25023176754E+01  0.61372161420E+02  0.47000000000E+01 0. -1.
        -11    1    4    4    0    0 -0.30631292288E+02  0.82202509464E+02 -0.92835029729E+02  0.12772576629E+03  0.00000000000E+00 0.  1.
         12    1    4    4    0    0 -0.29960215561E+02 -0.11207797221E+02 -0.12989992412E+02  0.34524906052E+02  0.00000000000E+00 0. -1.
         -5    1    5    5    0  502 -0.30299850781E+02 -0.10702267283E+03  0.14705383336E+03  0.18444200542E+03  0.47000000000E+01 0.  1.
         11    1    6    6    0    0  0.14561155475E+02 -0.40967881333E+01 -0.12481598818E+02  0.19611252658E+02  0.00000000000E+00 0. -1.
        -12    1    6    6    0    0  0.21843038773E+02  0.12387778426E+02  0.10638809645E+03  0.10931149282E+03  0.00000000000E+00 0.  1.
</event>
<event>
12    1  0.8563264E-002  0.2587920E+03  0.7818608E-02  0.1107926E+00
         21   -1    0    0  503  502  0.00000000000E+00  0.00000000000E+00  0.21737913747E+03  0.21737913747E+03  0.00000000000E+00 0. -1.
         21   -1    0    0  501  503 -0.00000000000E+00 -0.00000000000E+00 -0.31474737561E+03  0.31474737561E+03  0.00000000000E+00 0. -1.
          6    2    1    2  501    0  0.19210572247E+03 -0.24578742183E+02 -0.87953017447E+01  0.25894140146E+03  0.17165246542E+03 0.  0.
         24    2    3    3    0    0  0.52676838902E+02 -0.17569990143E+02  0.48483638368E+02  0.10796953932E+03  0.78887288714E+02 0.  0.
         -6    2    1    2    0  502 -0.19210572247E+03  0.24578742183E+02 -0.88572936397E+02  0.27318511163E+03  0.17110294264E+03 0.  0.
        -24    2    5    5    0    0 -0.45999966762E+02  0.51447810395E+02 -0.60912450860E+02  0.12200299914E+03  0.80072036268E+02 0.  0.
          5    1    3    3  501    0  0.13942888357E+03 -0.70087520401E+01 -0.57278940112E+02  0.15097186214E+03  0.47000000000E+01 0. -1.
        -11    1    4    4    0    0  0.31460473674E+02  0.70461444999E+01 -0.15826362753E+02  0.35914945553E+02  0.00000000000E+00 0.  1.
         12    1    4    4    0    0  0.21216365228E+02 -0.24616134643E+02  0.64310001121E+02  0.72054593764E+02  0.00000000000E+00 0. -1.
         -5    1    5    5    0  502 -0.14610575571E+03 -0.26869068211E+02 -0.27660485538E+02  0.15118211249E+03  0.47000000000E+01 0.  1.
         11    1    6    6    0    0 -0.61102810397E+02  0.45394060994E+02 -0.69960157157E+02  0.10338567503E+03  0.00000000000E+00 0. -1.
        -12    1    6    6    0    0  0.15102843635E+02  0.60537494011E+01  0.90477062971E+01  0.18617324107E+02  0.00000000000E+00 0.  1.
</event>
<event>
12    1  0.8563264E-002  0.2039991E+03  0.7818608E-02  0.1146728E+00
         21   -1    0    0  503  502  0.00000000000E+00  0.00000000000E+00  0.42565706258E+03  0.42565706258E+03  0.00000000000E+00 0. -1.
         21   -1    0    0  501  503 -0.00000000000E+00 -0.00000000000E+00 -0.13088789678E+03  0.13088789678E+03  0.00000000000E+00 0. -1.
          6    2    1    2  501    0  0.83686292032E+02 -0.70724713380E+02  0.28850407850E+03  0.35244971917E+03  0.17023754192E+03 0.  0.
         24    2    3    3    0    0 -0.10441827605E+02 -0.32490859568E+02  0.19940450399E+03  0.21723598222E+03  0.79149403280E+02 0.  0.
         -6    2    1    2    0  502 -0.83686292032E+02  0.70724713380E+02  0.62650872967E+01  0.20409524018E+03  0.17207624819E+03 0.  0.
        -24    2    5    5    0    0 -0.10829577631E+03  0.95606107422E+02 -0.96678342920E+01  0.16535690676E+03  0.79880765213E+02 0.  0.
          5    1    3    3  501    0  0.94128119637E+02 -0.38233853812E+02  0.89099574512E+02  0.13521373696E+03  0.47000000000E+01 0. -1.
        -13    1    4    4    0    0 -0.15329984254E+02  0.24493468313E+02  0.61956103170E+02  0.68362980678E+02  0.00000000000E+00 0.  1.
         14    1    4    4    0    0  0.48881566489E+01 -0.56984327881E+02  0.13744840082E+03  0.14887300154E+03  0.00000000000E+00 0. -1.
         -5    1    5    5    0  502  0.24609484278E+02 -0.24881394042E+02  0.15932921589E+02  0.38738333422E+02  0.47000000000E+01 0.  1.
         13    1    6    6    0    0 -0.89377124776E+02  0.74967186947E+02  0.26491782759E+02  0.11962509814E+03  0.00000000000E+00 0. -1.
        -14    1    6    6    0    0 -0.18918651534E+02  0.20638920475E+02 -0.36159617051E+02  0.45731808619E+02  0.00000000000E+00 0.  1.
</event>
<event>
12    1  0.8563264E-002  0.2398519E+03  0.7818608E-02  0.1120810E+00
         21   -1    0    0  503  502  0.00000000000E+00  0.00000000000E+00  0.26282536967E+03  0.26282536967E+03  0.00000000000E+00 0.  1.
         21   -1    0    0  501  503 -0.00000000000E+00 -0.00000000000E+00 -0.39212508437E+03  0.39212508437E+03  0.00000000000E+00 0.  1.
          6    2    1    2  501    0  0.96887065129E+02  0.12340551809E+03 -0.28498277399E+03  0.36900267798E+03  0.17416018373E+03 0.  0.
         24    2    3    3    0    0  0.13325492925E+03  0.11974212027E+03 -0.25515373888E+03  0.32159061875E+03  0.78879934529E+02 0.  0.
         -6    2    1    2    0  502 -0.96887065129E+02 -0.12340551809E+03  0.15568305928E+03  0.28594777606E+03  0.18141910154E+03 0.  0.
        -24    2    5    5    0    0 -0.47347217273E+02 -0.81192229446E+02  0.17780328925E+03  0.21704528817E+03  0.81613175063E+02 0.  0.
          5    1    3    3  501    0 -0.36367864116E+02  0.36633978251E+01 -0.29829035110E+02  0.47412059221E+02  0.47000000000E+01 0. -1.
        -11    1    4    4    0    0  0.60048731103E+02  0.10506643054E+03 -0.16192632495E+03  0.20215078443E+03  0.00000000000E+00 0.  1.
         12    1    4    4    0    0  0.73206198142E+02  0.14675689729E+02 -0.93227413932E+02  0.11943983433E+03  0.00000000000E+00 0. -1.
         -5    1    5    5    0  502 -0.49539847856E+02 -0.42213288648E+02 -0.22120229967E+02  0.68902487893E+02  0.47000000000E+01 0.  1.
         13    1    6    6    0    0 -0.50637720657E+02 -0.92100260836E+01  0.87518642313E+02  0.10153086273E+03  0.00000000000E+00 0. -1.
        -14    1    6    6    0    0  0.32905033840E+01 -0.71982203363E+02  0.90284646936E+02  0.11551442544E+03  0.00000000000E+00 0.  1.
</event>
<event>
12    1  0.8563264E-002  0.1987987E+03  0.7818608E-02  0.1150916E+00
         21   -1    0    0  501  502  0.00000000000E+00  0.00000000000E+00  0.43574565100E+03  0.43574565100E+03  0.00000000000E+00 0. -1.
         21   -1    0    0  502  503 -0.00000000000E+00 -0.00000000000E+00 -0.11924706931E+03  0.11924706931E+03  0.00000000000E+00 0. -1.
         -6    2    1    2    0  503  0.54024831644E+02 -0.82203387575E+02  0.21887339143E+02  0.19999999470E+03  0.17275665806E+03 0.  0.
        -24    2    3    3    0    0  0.71855609790E+02  0.70855596382E+01  0.10845778421E+02  0.10816068500E+03  0.79797675754E+02 0.  0.
          6    2    1    2  501    0 -0.54024831644E+02  0.82203387575E+02  0.29461124254E+03  0.35499272560E+03  0.17189523448E+03 0.  0.
         24    2    5    5    0    0  0.32095217933E+01  0.78101698849E+02  0.26863531395E+03  0.29183075975E+03  0.83006530134E+02 0.  0.
          5    1    5    5  501    0 -0.57234353438E+02  0.41016887261E+01  0.25975928597E+02  0.63161965852E+02  0.47000000000E+01 0. -1.
        -13    1    6    6    0    0  0.49515084064E+01 -0.86381631580E+01  0.45573404967E+00  0.99670954528E+01  0.00000000000E+00 0.  1.
         14    1    6    6    0    0 -0.17419866131E+01  0.86739862007E+02  0.26817957990E+03  0.28186366430E+03  0.00000000000E+00 0. -1.
         -5    1    3    3    0  503 -0.17830778146E+02 -0.89288947213E+02  0.11041560722E+02  0.91839309704E+02  0.47000000000E+01 0.  1.
         11    1    4    4    0    0  0.36471545802E+02 -0.36356334749E+02  0.29909542129E+01  0.51583936809E+02  0.00000000000E+00 0. -1.
        -12    1    4    4    0    0  0.35384063988E+02  0.43441894387E+02  0.78548242081E+01  0.56576748188E+02  0.00000000000E+00 0.  1.
</event>
<event>
12    1  0.8563264E-002  0.1907228E+03  0.7818608E-02  0.1157967E+00
         21   -1    0    0  503  502  0.00000000000E+00  0.00000000000E+00  0.50556897221E+03  0.50556897221E+03  0.00000000000E+00 0. -1.
         21   -1    0    0  501  503 -0.00000000000E+00 -0.00000000000E+00 -0.12025552501E+03  0.12025552501E+03  0.00000000000E+00 0. -1.
          6    2    1    2  501    0  0.54278562689E+02  0.62180292597E+02 -0.59923847234E+01  0.19081686846E+03  0.17193783021E+03 0.  0.
         24    2    3    3    0    0 -0.14035634220E+02  0.42306895232E+01  0.40929311696E+02  0.89580898611E+02  0.78323885745E+02 0.  0.
         -6    2    1    2    0  502 -0.54278562689E+02 -0.62180292597E+02  0.39130583192E+03  0.43500762876E+03  0.17116901540E+03 0.  0.
        -24    2    5    5    0    0  0.14999008384E+02 -0.13410663221E+01  0.27632917780E+03  0.28755419781E+03  0.78120634037E+02 0.  0.
          5    1    3    3  501    0  0.68314196909E+02  0.57949603074E+02 -0.46921696420E+02  0.10123596985E+03  0.47000000000E+01 0. -1.
        -11    1    4    4    0    0  0.83533886381E+01  0.31921354980E+02  0.42657146809E+02  0.53929437039E+02  0.00000000000E+00 0.  1.
         12    1    4    4    0    0 -0.22389022858E+02 -0.27690665457E+02 -0.17278351130E+01  0.35651461571E+02  0.00000000000E+00 0. -1.
         -5    1    5    5    0  502 -0.69277571073E+02 -0.60839226275E+02  0.11497665412E+03  0.14745343095E+03  0.47000000000E+01 0.  1.
         13    1    6    6    0    0 -0.38555778657E+01  0.15008987675E+02  0.25273708689E+03  0.25321171039E+03  0.00000000000E+00 0. -1.
        -14    1    6    6    0    0  0.18854586249E+02 -0.16350053997E+02  0.23592090917E+02  0.34342487420E+02  0.00000000000E+00 0.  1.
</event>
<event>
12    1  0.8563264E-002  0.1744722E+03  0.7818608E-02  0.1173431E+00
         21   -1    0    0  503  502  0.00000000000E+00  0.00000000000E+00  0.21183684029E+03  0.21183684029E+03  0.00000000000E+00 0.  1.
         21   -1    0    0  501  503 -0.00000000000E+00 -0.00000000000E+00 -0.28493673354E+03  0.28493673354E+03  0.00000000000E+00 0.  1.
          6    2    1    2  501    0  0.99533934790E+01 -0.13930608196E+02 -0.21172957552E+03  0.27393113226E+03  0.17296161477E+03 0.  0.
         24    2    3    3    0    0 -0.38164984520E+02  0.23783831079E+02 -0.59438069949E+02  0.10975881455E+03  0.80572182228E+02 0.  0.
         -6    2    1    2    0  502 -0.99533934790E+01  0.13930608196E+02  0.13862968226E+03  0.22284244157E+03  0.17363016176E+03 0.  0.
        -24    2    5    5    0    0 -0.54261383851E+02 -0.40735385175E+02  0.10206423542E+03  0.14340258542E+03  0.74454845179E+02 0.  0.
          5    1    3    3  501    0  0.48118377999E+02 -0.37714439275E+02 -0.15229150557E+03  0.16417231770E+03  0.47000000000E+01 0. -1.
        -13    1    4    4    0    0 -0.25982120350E+02 -0.15521415423E+02  0.75028724602E+01  0.31181372801E+02  0.00000000000E+00 0.  1.
         14    1    4    4    0    0 -0.12182864171E+02  0.39305246502E+02 -0.66940942409E+02  0.78577441754E+02  0.00000000000E+00 0. -1.
         -5    1    5    5    0  502  0.44307990372E+02  0.54665993371E+02  0.36565446841E+02  0.79439856147E+02  0.47000000000E+01 0.  1.
         11    1    6    6    0    0  0.37274319292E+01 -0.32988359582E+02  0.10639803719E+02  0.34861598356E+02  0.00000000000E+00 0. -1.
        -12    1    6    6    0    0 -0.57988815780E+02 -0.77470255923E+01  0.91424431703E+02  0.10854098707E+03  0.00000000000E+00 0.  1.
</event>
<event>
12    1  0.8563264E-002  0.1784171E+03  0.7818608E-02  0.1169951E+00
         21   -1    0    0  501  502  0.00000000000E+00  0.00000000000E+00  0.15487728158E+03  0.15487728158E+03  0.00000000000E+00 0. -1.
         21   -1    0    0  502  503 -0.00000000000E+00 -0.00000000000E+00 -0.20458935173E+03  0.20458935173E+03  0.00000000000E+00 0. -1.
         -6    2    1    2    0  503  0.16330063331E+02  0.48691727869E+02 -0.41912384215E+02  0.18087909804E+03  0.16829451811E+03 0.  0.
        -24    2    3    3    0    0 -0.24455492968E+02  0.12526572065E+02 -0.75302027710E+02  0.11678277685E+03  0.84928413668E+02 0.  0.
          6    2    1    2  501    0 -0.16330063331E+02 -0.48691727869E+02 -0.77996859389E+01  0.17858753527E+03  0.17086578745E+03 0.  0.
         24    2    5    5    0    0 -0.44353142607E+02  0.43012082731E+01 -0.50645458171E+02  0.10475397616E+03  0.80141945547E+02 0.  0.
          5    1    5    5  501    0  0.28023079275E+02 -0.52992936142E+02  0.42845772232E+02  0.73833559112E+02  0.47000000000E+01 0. -1.
        -13    1    6    6    0    0 -0.12899493886E+02 -0.10388275591E+01  0.21936742903E+02  0.25469526780E+02  0.00000000000E+00 0.  1.
         14    1    6    6    0    0 -0.31453648721E+02  0.53400358323E+01 -0.72582201074E+02  0.79284449378E+02  0.00000000000E+00 0. -1.
         -5    1    3    3    0  503  0.40785556299E+02  0.36165155804E+02  0.33389643495E+02  0.64096321187E+02  0.47000000000E+01 0.  1.
         13    1    4    4    0    0 -0.41483971324E+02  0.26782184170E+02 -0.13616266950E+02  0.51221167415E+02  0.00000000000E+00 0. -1.
        -14    1    4    4    0    0  0.17028478355E+02 -0.14255612105E+02 -0.61685760760E+02  0.65561609438E+02  0.00000000000E+00 0.  1.
</event>
<event>
12    1  0.8563264E-002  0.1875673E+03  0.7818608E-02  0.1161300E+00
         21   -1    0    0  503  502  0.00000000000E+00  0.00000000000E+00  0.18965125477E+03  0.18965125477E+03  0.00000000000E+00 0.  1.
         21   -1    0    0  501  503 -0.00000000000E+00 -0.00000000000E+00 -0.18899680014E+03  0.18899680014E+03  0.00000000000E+00 0.  1.
          6    2    1    2  501    0  0.12471613356E+02  0.69235506127E+02 -0.33854670205E+02  0.19059803842E+03  0.17387460168E+03 0.  0.
         24    2    3    3    0    0 -0.44117157810E+02  0.69346359399E+02 -0.56501149324E+02  0.12946495142E+03  0.82544246291E+02 0.  0.
         -6    2    1    2    0  502 -0.12471613356E+02 -0.69235506127E+02  0.34509124837E+02  0.18805001649E+03  0.17094687057E+03 0.  0.
        -24    2    5    5    0    0 -0.61635130845E+02 -0.51806085560E+02 -0.12511398281E+02  0.11766638382E+03  0.84888650242E+02 0.  0.
          5    1    3    3  501    0  0.56588771166E+02 -0.11085327160E+00  0.22646479118E+02  0.61133087007E+02  0.47000000000E+01 0. -1.
        -11    1    4    4    0    0  0.16291097004E+02  0.35491209579E+01 -0.33203299088E+02  0.37154477139E+02  0.00000000000E+00 0.  1.
         12    1    4    4    0    0 -0.60408254813E+02  0.65797238441E+02 -0.23297850236E+02  0.92310474279E+02  0.00000000000E+00 0. -1.
         -5    1    5    5    0  502  0.49163517488E+02 -0.17429420568E+02  0.47020523118E+02  0.70383632668E+02  0.47000000000E+01 0.  1.
         13    1    6    6    0    0  0.10342474393E+02 -0.42987458666E+01 -0.27897988002E+02  0.30062330700E+02  0.00000000000E+00 0. -1.
        -14    1    6    6    0    0 -0.71977605237E+02 -0.47507339693E+02  0.15386589720E+02  0.87604053123E+02  0.00000000000E+00 0.  1.
</event>
<event>
12    1  0.8563264E-002  0.2975921E+03  0.7818608E-02  0.1086513E+00
         21   -1    0    0  501  502  0.00000000000E+00  0.00000000000E+00  0.21835823215E+03  0.21835823215E+03  0.00000000000E+00 0. -1.
         21   -1    0    0  502  503 -0.00000000000E+00 -0.00000000000E+00 -0.84423710247E+03  0.84423710247E+03  0.00000000000E+00 0. -1.
         -6    2    1    2    0  503  0.15455549785E+03 -0.18673985404E+03 -0.69633480222E+03  0.75726031642E+03  0.17263213794E+03 0.  0.
        -24    2    3    3    0    0  0.12472799484E+03 -0.80842491715E+02 -0.53908081301E+03  0.56528417622E+03  0.82737511291E+02 0.  0.
          6    2    1    2  501    0 -0.15455549785E+03  0.18673985404E+03  0.70455931895E+02  0.30533501820E+03  0.17177386296E+03 0.  0.
         24    2    5    5    0    0 -0.10596853597E+03  0.29928836389E+02  0.51280451300E+01  0.12858601279E+03  0.66204229299E+02 0.  0.
          5    1    5    5  501    0 -0.48586961883E+02  0.15681101765E+03  0.65327886765E+02  0.17674900540E+03  0.47000000000E+01 0. -1.
        -13    1    6    6    0    0 -0.39121792901E+02 -0.23530979226E+00  0.31936284936E+02  0.50502439011E+02  0.00000000000E+00 0.  1.
         14    1    6    6    0    0 -0.66846743065E+02  0.30164146181E+02 -0.26808239806E+02  0.78083573783E+02  0.00000000000E+00 0. -1.
         -5    1    3    3    0  503  0.29827503013E+02 -0.10589736232E+03 -0.15725398921E+03  0.19197614020E+03  0.47000000000E+01 0.  1.
         11    1    4    4    0    0 -0.50738239931E+01 -0.30208308978E+02 -0.88266238232E+02  0.93430265080E+02  0.00000000000E+00 0. -1.
        -12    1    4    4    0    0  0.12980181883E+03 -0.50634182737E+02 -0.45081457477E+03  0.47185391114E+03  0.00000000000E+00 0.  1.
</event>
<event>
12    1  0.8563264E-002  0.2162999E+03  0.7818608E-02  0.1136690E+00
         21   -1    0    0  501  502  0.00000000000E+00  0.00000000000E+00  0.10867120591E+04  0.10867120591E+04  0.00000000000E+00 0. -1.
         21   -1    0    0  502  503 -0.00000000000E+00 -0.00000000000E+00 -0.43037993480E+02  0.43037993480E+02  0.00000000000E+00 0. -1.
         -6    2    1    2    0  503 -0.30337591034E+02  0.12741374171E+03  0.52752417554E+03  0.57011058192E+03  0.17201653651E+03 0.  0.
        -24    2    3    3    0    0 -0.79367307322E+02  0.72748907982E+02  0.39783879590E+03  0.42100476440E+03  0.85893719456E+02 0.  0.
          6    2    1    2  501    0  0.30337591034E+02 -0.12741374171E+03  0.51614989011E+03  0.55963947069E+03  0.17213656521E+03 0.  0.
         24    2    5    5    0    0  0.85019065644E+02 -0.78983299322E+02  0.29886547137E+03  0.33035759168E+03  0.79680394735E+02 0.  0.
          5    1    5    5  501    0 -0.54681474610E+02 -0.48430442393E+02  0.21728441874E+03  0.22928187901E+03  0.47000000000E+01 0. -1.
        -13    1    6    6    0    0 -0.23773871615E+01 -0.27716418192E+02  0.13390653800E+03  0.13676553925E+03  0.00000000000E+00 0.  1.
         14    1    6    6    0    0  0.87396452805E+02 -0.51266881129E+02  0.16495893337E+03  0.19359205243E+03  0.00000000000E+00 0. -1.
         -5    1    3    3    0  503  0.49029716288E+02  0.54664833732E+02  0.12968537964E+03  0.14910581752E+03  0.47000000000E+01 0.  1.
         11    1    4    4    0    0 -0.81514594587E+02  0.89210078454E+02  0.34031201498E+03  0.36113063394E+03  0.00000000000E+00 0. -1.
        -12    1    4    4    0    0  0.21472872649E+01 -0.16461170471E+02  0.57526780912E+02  0.59874130457E+02  0.00000000000E+00 0.  1.
</event>
<event>
12    1  0.8563264E-002  0.1737064E+03  0.7818608E-02  0.1174283E+00
         21   -1    0    0  503  502  0.00000000000E+00  0.00000000000E+00  0.12305437402E+04  0.12305437402E+04  0.00000000000E+00 0.  1.
         21   -1    0    0  501  503 -0.00000000000E+00 -0.00000000000E+00 -0.35034871949E+02  0.35034871949E+02  0.00000000000E+00 0.  1.
          6    2    1    2  501    0  0.16051725210E+02  0.26551360935E+01  0.24769788525E+03  0.30198141209E+03  0.17197041392E+03 0.  0.
         24    2    3    3    0    0  0.67056980610E+02  0.28450136634E+02  0.20223125602E+03  0.22879519410E+03  0.78381828296E+02 0.  0.
         -6    2    1    2    0  502 -0.16051725210E+02 -0.26551360935E+01  0.94781098305E+03  0.96359720010E+03  0.17294275593E+03 0.  0.
        -24    2    5    5    0    0 -0.65685003057E+02  0.72730827936E+01  0.81625959063E+03  0.82256567651E+03  0.77247365747E+02 0.  0.
          5    1    3    3  501    0 -0.51005255399E+02 -0.25795000540E+02  0.45466629229E+02  0.73186217997E+02  0.47000000000E+01 0. -1.
        -13    1    4    4    0    0 -0.50370999543E+01 -0.73498867567E+00 -0.51908679890E+01  0.72703297575E+01  0.00000000000E+00 0.  1.
         14    1    4    4    0    0  0.72094080564E+02  0.29185125309E+02  0.20742212401E+03  0.22152486434E+03  0.00000000000E+00 0. -1.
         -5    1    5    5    0  502  0.49633277846E+02 -0.99282188871E+01  0.13155139242E+03  0.14103152360E+03  0.47000000000E+01 0.  1.
         13    1    6    6    0    0 -0.45346223807E+02  0.34411733523E+01  0.17008531445E+03  0.17606003488E+03  0.00000000000E+00 0. -1.
        -14    1    6    6    0    0 -0.20338779249E+02  0.38319094414E+01  0.64617427618E+03  0.64650564163E+03  0.00000000000E+00 0.  1.
</event>
<event>
12    1  0.8563264E-002  0.1933661E+03  0.7818608E-02  0.1155680E+00
         21   -1    0    0  501  502  0.00000000000E+00  0.00000000000E+00  0.21064592606E+03  0.21064592606E+03  0.00000000000E+00 0. -1.
         21   -1    0    0  502  503 -0.00000000000E+00 -0.00000000000E+00 -0.28740880569E+03  0.28740880569E+03  0.00000000000E+00 0. -1.
         -6    2    1    2    0  503 -0.53363033883E+02 -0.67205129478E+02 -0.19295437062E+03  0.27246455662E+03  0.17216678734E+03 0.  0.
        -24    2    3    3    0    0 -0.61012052091E+02 -0.10638147038E+03 -0.15781463326E+03  0.21907743919E+03  0.89721670467E+02 0.  0.
          6    2    1    2  501    0  0.53363033883E+02  0.67205129478E+02  0.11619149099E+03  0.22559017513E+03  0.17328104836E+03 0.  0.
         24    2    5    5    0    0  0.82372993237E+02  0.38995933125E+02  0.13386247643E+03  0.18118645651E+03  0.81261162996E+02 0.  0.
          5    1    5    5  501    0 -0.29009959354E+02  0.28209196353E+02 -0.17670985437E+02  0.44403718616E+02  0.47000000000E+01 0. -1.
        -13    1    6    6    0    0 -0.37887826484E+01  0.68652393003E+01  0.67081336401E+02  0.67538078726E+02  0.00000000000E+00 0.  1.
         14    1    6    6    0    0  0.86161775885E+02  0.32130693825E+02  0.66781140028E+02  0.11364837778E+03  0.00000000000E+00 0. -1.
         -5    1    3    3    0  503  0.76490182074E+01  0.39176340901E+02 -0.35139737360E+02  0.53387117432E+02  0.47000000000E+01 0.  1.
         11    1    4    4    0    0 -0.26040555465E+02 -0.12011840770E+02  0.35545478959E+01  0.28896879734E+02  0.00000000000E+00 0. -1.
        -12    1    4    4    0    0 -0.34971496626E+02 -0.94369629610E+02 -0.16136918116E+03  0.19018055946E+03  0.00000000000E+00 0.  1.
</event>
<event>
12    1  0.8563264E-002  0.2463902E+03  0.7818608E-02  0.1115609E+00
         21   -1    0    0  503  502  0.00000000000E+00  0.00000000000E+00  0.35002770164E+03  0.35002770164E+03  0.00000000000E+00 0. -1.
         21   -1    0    0  501  503 -0.00000000000E+00 -0.00000000000E+00 -0.17606954585E+03  0.17606954585E+03  0.00000000000E+00 0. -1.
          6    2    1    2  501    0 -0.86044170500E+02  0.15436374503E+03  0.54779242289E+02  0.25240618093E+03  0.17168677797E+03 0.  0.
         24    2    3    3    0    0 -0.25363257121E+02  0.94684288344E+02 -0.31253974876E+02  0.13129625048E+03  0.81568898320E+02 0.  0.
         -6    2    1    2    0  502  0.86044170500E+02 -0.15436374503E+03  0.11917891350E+03  0.27369106656E+03  0.17167242479E+03 0.  0.
        -24    2    5    5    0    0  0.10011528791E+03 -0.67121669677E+02  0.11699459512E+03  0.18516967195E+03  0.77921002992E+02 0.  0.
          5    1    3    3  501    0 -0.60680913379E+02  0.59679456687E+02  0.86033217165E+02  0.12110993045E+03  0.47000000000E+01 0. -1.
        -13    1    4    4    0    0  0.25762261893E+02  0.55731435575E+02 -0.41396780666E+01  0.61537175623E+02  0.00000000000E+00 0.  1.
         14    1    4    4    0    0 -0.51125519014E+02  0.38952852769E+02 -0.27114296809E+02  0.69759074856E+02  0.00000000000E+00 0. -1.
         -5    1    5    5    0  502 -0.14071117410E+02 -0.87242075354E+02  0.21843183729E+01  0.88521394612E+02  0.47000000000E+01 0.  1.
         13    1    6    6    0    0  0.47473032498E+02 -0.56909536311E+02  0.24139401150E+02  0.77942894645E+02  0.00000000000E+00 0. -1.
        -14    1    6    6    0    0  0.52642255412E+02 -0.10212133366E+02  0.92855193974E+02  0.10722677730E+03  0.00000000000E+00 0.  1.
</event>
<event>
12    1  0.8563264E-002  0.1928209E+03  0.7818608E-02  0.1156284E+00
         21   -1    0    0  503  502  0.00000000000E+00  0.00000000000E+00  0.24627847810E+03  0.24627847810E+03  0.00000000000E+00 0. -1.
         21   -1    0    0  501  503 -0.00000000000E+00 -0.00000000000E+00 -0.15235582616E+03  0.15235582616E+03  0.00000000000E+00 0. -1.
          6    2    1    2  501    0  0.30345069399E+02  0.79007184944E+02  0.21139017904E+02  0.19397619067E+03  0.17325399262E+03 0.  0.
         24    2    3    3    0    0  0.45402133178E+02  0.74287659428E+02 -0.43838407081E+02  0.12694526610E+03  0.81322104070E+02 0.  0.
         -6    2    1    2    0  502 -0.30345069399E+02 -0.79007184944E+02  0.72783634035E+02  0.20465811359E+03  0.17153579092E+03 0.  0.
        -24    2    5    5    0    0 -0.29915415640E+02  0.91977536301E+01  0.77306644154E+02  0.11621127412E+03  0.80927203326E+02 0.  0.
          5    1    3    3  501    0 -0.15057063779E+02  0.47195255163E+01  0.64977424984E+02  0.67030924567E+02  0.47000000000E+01 0. -1.
        -11    1    4    4    0    0 -0.17920034544E+01 -0.16443462395E+02 -0.29432007461E+01  0.16800629825E+02  0.00000000000E+00 0.  1.
         12    1    4    4    0    0  0.47194136632E+02  0.90731121823E+02 -0.40895206334E+02  0.11014463628E+03  0.00000000000E+00 0. -1.
         -5    1    5    5    0  502 -0.42965375882E+00 -0.88204938574E+02 -0.45230101191E+01  0.88446839468E+02  0.47000000000E+01 0.  1.
         13    1    6    6    0    0 -0.24999211332E+02 -0.26372688644E+02  0.66335885720E+01  0.36938919461E+02  0.00000000000E+00 0. -1.
        -14    1    6    6    0    0 -0.49162043079E+01  0.35570442274E+02  0.70673055582E+02  0.79272354663E+02  0.00000000000E+00 0.  1.
</event>
<event>
12    1  0.8563264E-002  0.2334258E+03  0.7818608E-02  0.1124281E+00
         21   -1    0    0  501  502  0.00000000000E+00  0.00000000000E+00  0.28015649242E+03  0.28015649242E+03  0.00000000000E+00 0. -1.
         21   -1    0    0  502  503 -0.00000000000E+00 -0.00000000000E+00 -0.25109788496E+03  0.25109788496E+03  0.00000000000E+00 0. -1.
         -6    2    1    2    0  503 -0.12249849196E+03 -0.98511268343E+02 -0.11175251507E+03  0.25864594507E+03  0.17233325202E+03 0.  0.
        -24    2    3    3    0    0 -0.14653556129E+03 -0.42780139988E+02 -0.94354089562E+02  0.19533295604E+03  0.77132732321E+02 0.  0.
          6    2    1    2  501    0  0.12249849196E+03  0.98511268343E+02  0.14081112253E+03  0.27260843231E+03  0.17256081425E+03 0.  0.
         24    2    5    5    0    0  0.14920649277E+03  0.58043792393E+02  0.13497560596E+03  0.22354645955E+03  0.78249255941E+02 0.  0.
          5    1    5    5  501    0 -0.26708000812E+02  0.40467475950E+02  0.58355165745E+01  0.49061972757E+02  0.47000000000E+01 0. -1.
        -11    1    6    6    0    0  0.20710271788E+02  0.12668637523E+02  0.66995991731E+02  0.71259193387E+02  0.00000000000E+00 0.  1.
         12    1    6    6    0    0  0.12849622098E+03  0.45375154870E+02  0.67979614226E+02  0.15228726616E+03  0.00000000000E+00 0. -1.
         -5    1    3    3    0  503  0.24037069339E+02 -0.55731128355E+02 -0.17398425511E+02  0.63312989033E+02  0.47000000000E+01 0.  1.
         11    1    4    4    0    0 -0.28103152700E+01 -0.23407254392E+02 -0.25710244313E+02  0.34882862450E+02  0.00000000000E+00 0. -1.
        -12    1    4    4    0    0 -0.14372524602E+03 -0.19372885597E+02 -0.68643845249E+02  0.16045009359E+03  0.00000000000E+00 0.  1.
</event>
<event>
12    1  0.8563264E-002  0.1988773E+03  0.7818608E-02  0.1150956E+00
         21   -1    0    0  503  502  0.00000000000E+00  0.00000000000E+00  0.70305811791E+02  0.70305811791E+02  0.00000000000E+00 0. -1.
         21   -1    0    0  501  503 -0.00000000000E+00 -0.00000000000E+00 -0.78596435376E+03  0.78596435376E+03  0.00000000000E+00 0. -1.
          6    2    1    2  501    0 -0.99588340872E+02  0.19340444793E+02 -0.58867236806E+03  0.62135925950E+03  0.17105637086E+03 0.  0.
         24    2    3    3    0    0  0.11035241164E+01 -0.22734718365E+02 -0.33749730882E+03  0.34746115543E+03  0.79414960115E+02 0.  0.
         -6    2    1    2    0  502  0.99588340872E+02 -0.19340444793E+02 -0.12698617391E+03  0.23491090605E+03  0.16960470210E+03 0.  0.
        -24    2    5    5    0    0  0.44974632394E+02  0.45987285299E+02 -0.10584396446E+03  0.14705049122E+03  0.79267611219E+02 0.  0.
          5    1    3    3  501    0 -0.10069186499E+03  0.42075163157E+02 -0.25117505924E+03  0.27389810407E+03  0.47000000000E+01 0. -1.
        -11    1    4    4    0    0 -0.20205899140E+02 -0.45757401175E+02 -0.23527434802E+03  0.24053281889E+03  0.00000000000E+00 0.  1.
         12    1    4    4    0    0  0.21309423256E+02  0.23022682811E+02 -0.10222296079E+03  0.10692833655E+03  0.00000000000E+00 0. -1.
         -5    1    5    5    0  502  0.54613708477E+02 -0.65327730092E+02 -0.21142209450E+02  0.87860414824E+02  0.47000000000E+01 0.  1.
         11    1    6    6    0    0 -0.31008083862E+01  0.37808022285E+02 -0.95598715508E+01  0.39121000828E+02  0.00000000000E+00 0. -1.
        -12    1    6    6    0    0  0.48075440780E+02  0.81792630146E+01 -0.96284092910E+02  0.10792949040E+03  0.00000000000E+00 0.  1.
</event>
<event>
12    1  0.8563264E-002  0.2077716E+03  0.7818608E-02  0.1143694E+00
         21   -1    0    0  501  502  0.00000000000E+00  0.00000000000E+00  0.45168941007E+02  0.45168941007E+02  0.00000000000E+00 0. -1.
         21   -1    0    0  502  503 -0.00000000000E+00 -0.00000000000E+00 -0.95385599970E+03  0.95385599970E+03  0.00000000000E+00 0.  1.
         -6    2    1    2    0  503 -0.68198355762E+01 -0.11484268214E+03 -0.41244786457E+03  0.46104504789E+03  0.17092086881E+03 0.  0.
        -24    2    3    3    0    0  0.12716632559E+02 -0.12980932618E+03 -0.22593030811E+03  0.27285216043E+03  0.79947629241E+02 0.  0.
          6    2    1    2  501    0  0.68198355762E+01  0.11484268214E+03 -0.49623919412E+03  0.53797989281E+03  0.17301351247E+03 0.  0.
         24    2    5    5    0    0  0.46823221324E+01 -0.93962493738E+00 -0.30078708386E+03  0.31074932929E+03  0.77906795608E+02 0.  0.
          5    1    5    5  501    0  0.21375134438E+01  0.11578230708E+03 -0.19545211026E+03  0.22723056352E+03  0.47000000000E+01 0. -1.
        -13    1    6    6    0    0  0.57176222672E+01  0.37753908194E+02 -0.17610209100E+03  0.18019432633E+03  0.00000000000E+00 0.  1.
         14    1    6    6    0    0 -0.10353001348E+01 -0.38693533131E+02 -0.12468499287E+03  0.13055500296E+03  0.00000000000E+00 0. -1.
         -5    1    3    3    0  503 -0.19536468135E+02  0.14966644045E+02 -0.18651755646E+03  0.18819288746E+03  0.47000000000E+01 0.  1.
         11    1    4    4    0    0  0.82806125950E+01  0.63422979330E+01 -0.18196704263E+01  0.10587940710E+02  0.00000000000E+00 0. -1.
        -12    1    4    4    0    0  0.44360199641E+01 -0.13615162412E+03 -0.22411063769E+03  0.26226421972E+03  0.00000000000E+00 0.  1.
</event>
<event>
12    1  0.8563264E-002  0.2421800E+03  0.7818608E-02  0.1118596E+00
         21   -1    0    0  503  502  0.00000000000E+00  0.00000000000E+00  0.16611674685E+03  0.16611674685E+03  0.00000000000E+00 0.  1.
         21   -1    0    0  501  503 -0.00000000000E+00 -0.00000000000E+00 -0.35204102031E+03  0.35204102031E+03  0.00000000000E+00 0.  1.
          6    2    1    2  501    0 -0.11029464786E+03 -0.12952082289E+03 -0.10804059038E+03  0.26518660985E+03  0.17236767669E+03 0.  0.
         24    2    3    3    0    0 -0.51201796435E+01 -0.83490508313E+02 -0.26589635851E+02  0.12434341116E+03  0.88076069093E+02 0.  0.
         -6    2    1    2    0  502  0.11029464786E+03  0.12952082289E+03 -0.77883683078E+02  0.25297115730E+03  0.17025858401E+03 0.  0.
        -24    2    5    5    0    0  0.11007741910E+03  0.15864657082E+03 -0.85466714796E+02  0.22250890605E+03  0.70141865560E+02 0.  0.
          5    1    3    3  501    0 -0.10517446821E+03 -0.46030314572E+02 -0.81450954529E+02  0.14084319869E+03  0.47000000000E+01 0. -1.
        -13    1    4    4    0    0 -0.19377398558E+02 -0.73778601301E+02  0.16398111921E+02  0.78023481462E+02  0.00000000000E+00 0.  1.
         14    1    4    4    0    0  0.14257218914E+02 -0.97119070120E+01 -0.42987747772E+02  0.46319929701E+02  0.00000000000E+00 0. -1.
         -5    1    5    5    0  502  0.21722875536E+00 -0.29125747936E+02  0.75830317184E+01  0.30462251250E+02  0.47000000000E+01 0.  1.
         13    1    6    6    0    0  0.21146734695E+02  0.78488906178E+02 -0.57479293080E+02  0.99556827563E+02  0.00000000000E+00 0. -1.
        -14    1    6    6    0    0  0.88930684407E+02  0.80157664643E+02 -0.27987421716E+02  0.12295207849E+03  0.00000000000E+00 0.  1.
</event>
<event>
12    1  0.8563264E-002  0.2813944E+03  0.7818608E-02  0.1094964E+00
         21   -1    0    0  501  502  0.00000000000E+00  0.00000000000E+00  0.28640771174E+03  0.28640771174E+03  0.00000000000E+00 0.  1.
         21   -1    0    0  502  503 -0.00000000000E+00 -0.00000000000E+00 -0.44107596080E+03  0.44107596080E+03  0.00000000000E+00 0. -1.
         -6    2    1    2    0  503  0.20468654139E+03  0.85574675579E+02 -0.29968781339E+03  0.41091857784E+03  0.17268956771E+03 0.  0.
        -24    2    3    3    0    0  0.21065616047E+02  0.22238129416E+02 -0.75500165519E+02  0.11425318761E+03  0.80095076672E+02 0.  0.
          6    2    1    2  501    0 -0.20468654139E+03 -0.85574675579E+02  0.14501956432E+03  0.31656509470E+03  0.17309875742E+03 0.  0.
         24    2    5    5    0    0 -0.43936924084E+02 -0.13242482342E+02  0.37756468789E+01  0.90635194382E+02  0.78068343872E+02 0.  0.
          5    1    5    5  501    0 -0.16074961730E+03 -0.72332193237E+02  0.14124391744E+03  0.22592990031E+03  0.47000000000E+01 0. -1.
        -11    1    6    6    0    0  0.76193198482E+01  0.19146141571E+02  0.18832016250E+02  0.27915472556E+02  0.00000000000E+00 0.  1.
         12    1    6    6    0    0 -0.51556243932E+02 -0.32388623913E+02 -0.15056369371E+02  0.62719721826E+02  0.00000000000E+00 0. -1.
         -5    1    3    3    0  503  0.18362092534E+03  0.63336546163E+02 -0.22418764787E+03  0.29666539023E+03  0.47000000000E+01 0.  1.
         11    1    4    4    0    0  0.22508473138E+02  0.45786130712E+02 -0.74934578234E+02  0.90654245039E+02  0.00000000000E+00 0. -1.
        -12    1    4    4    0    0 -0.14428570915E+01 -0.23548001296E+02 -0.56558728558E+00  0.23598942574E+02  0.00000000000E+00 0.  1.
</event>
<event>
12    1  0.8563264E-002  0.3619558E+03  0.7818608E-02  0.1058012E+00
         21   -1    0    0  501  502  0.00000000000E+00  0.00000000000E+00  0.29995055379E+03  0.29995055379E+03  0.00000000000E+00 0. -1.
         21   -1    0    0  502  503 -0.00000000000E+00 -0.00000000000E+00 -0.44166979157E+03  0.44166979157E+03  0.00000000000E+00 0.  1.
         -6    2    1    2    0  503 -0.25059608464E+03  0.19552010253E+03 -0.11846315209E+03  0.37891816767E+03  0.16887554962E+03 0.  0.
        -24    2    3    3    0    0 -0.25051000413E+03  0.13289001101E+03 -0.11713224497E+03  0.31609781199E+03  0.76045031010E+02 0.  0.
          6    2    1    2  501    0  0.25059608464E+03 -0.19552010253E+03 -0.23256085685E+02  0.36270217769E+03  0.17316326415E+03 0.  0.
         24    2    5    5    0    0  0.11116640119E+03 -0.46685734703E+02  0.10048965352E+02  0.15600524473E+03  0.98484151510E+02 0.  0.
          5    1    5    5  501    0  0.13942968345E+03 -0.14883436782E+03 -0.33305051037E+02  0.20669693296E+03  0.47000000000E+01 0. -1.
        -13    1    6    6    0    0  0.50692161887E+02 -0.16727358192E+01  0.49540926180E+02  0.70899906126E+02  0.00000000000E+00 0.  1.
         14    1    6    6    0    0  0.60474239304E+02 -0.45012998884E+02 -0.39491960829E+02  0.85105338599E+02  0.00000000000E+00 0. -1.
         -5    1    3    3    0  503 -0.86080509304E-01  0.62630091520E+02 -0.13309071251E+01  0.62820355678E+02  0.47000000000E+01 0.  1.
         13    1    4    4    0    0 -0.71092301542E+02  0.22028303481E+02 -0.65072160569E+02  0.98862265673E+02  0.00000000000E+00 0. -1.
        -14    1    4    4    0    0 -0.17941770259E+03  0.11086170753E+03 -0.52060084396E+02  0.21723554632E+03  0.00000000000E+00 0.  1.
</event>
<event>
12    1  0.8563264E-002  0.1902370E+03  0.7818608E-02  0.1158381E+00
         21   -1    0    0  503  502  0.00000000000E+00  0.00000000000E+00  0.23703213203E+03  0.23703213203E+03  0.00000000000E+00 0.  1.
         21   -1    0    0  501  503 -0.00000000000E+00 -0.00000000000E+00 -0.15403298541E+03  0.15403298541E+03  0.00000000000E+00 0. -1.
          6    2    1    2  501    0 -0.40375307291E+02 -0.69916871517E+02  0.20150966884E+02  0.19071540156E+03  0.17160352142E+03 0.  0.
         24    2    3    3    0    0 -0.54963311595E+01 -0.10879821306E+03  0.25801724068E+02  0.13796767409E+03  0.80635533785E+02 0.  0.
         -6    2    1    2    0  502  0.40375307291E+02  0.69916871517E+02  0.62848179739E+02  0.20034971589E+03  0.17225440661E+03 0.  0.
        -24    2    5    5    0    0  0.93111311115E+02  0.44451808452E+02  0.43501315070E+02  0.13849547829E+03  0.81504316213E+02 0.  0.
          5    1    3    3  501    0 -0.34878976132E+02  0.38881341541E+02 -0.56507571838E+01  0.52747727465E+02  0.47000000000E+01 0. -1.
        -11    1    4    4    0    0  0.27525856503E+02 -0.24421255942E+02 -0.13508844243E+02  0.39198971807E+02  0.00000000000E+00 0.  1.
         12    1    4    4    0    0 -0.33022187662E+02 -0.84376957115E+02  0.39310568311E+02  0.98768702284E+02  0.00000000000E+00 0. -1.
         -5    1    5    5    0  502 -0.52736003824E+02  0.25465063065E+02  0.19346864669E+02  0.61854237597E+02  0.47000000000E+01 0.  1.
         13    1    6    6    0    0  0.24062063166E+02 -0.13752766435E+02 -0.14386818594E+02  0.31226623540E+02  0.00000000000E+00 0. -1.
        -14    1    6    6    0    0  0.69049247949E+02  0.58204574887E+02  0.57888133664E+02  0.10726885475E+03  0.00000000000E+00 0.  1.
</event>
<event>
12    1  0.8563264E-002  0.2073259E+03  0.7818608E-02  0.1144005E+00
         21   -1    0    0  503  502  0.00000000000E+00  0.00000000000E+00  0.97334014730E+02  0.97334014730E+02  0.00000000000E+00 0.  1.
         21   -1    0    0  501  503 -0.00000000000E+00 -0.00000000000E+00 -0.44190436882E+03  0.44190436882E+03  0.00000000000E+00 0.  1.
          6    2    1    2  501    0 -0.99887607706E+02  0.54336192045E+02 -0.19687421884E+03  0.28590821414E+03  0.17336116327E+03 0.  0.
         24    2    3    3    0    0 -0.10062449538E+03 -0.21958062627E+02 -0.12424250630E+03  0.18046243677E+03  0.80765370840E+02 0.  0.
         -6    2    1    2    0  502  0.99887607706E+02 -0.54336192045E+02 -0.14769613525E+03  0.25333016941E+03  0.17155777577E+03 0.  0.
        -24    2    5    5    0    0  0.63442275628E+02  0.21361423532E+02 -0.13082045180E+03  0.16750901860E+03  0.80399303177E+02 0.  0.
          5    1    3    3  501    0  0.73688767696E+00  0.76294254672E+02 -0.72631712542E+02  0.10544577737E+03  0.47000000000E+01 0. -1.
        -11    1    4    4    0    0 -0.47708539556E+02  0.13594358404E+02 -0.11467106964E+02  0.50915674101E+02  0.00000000000E+00 0.  1.
         12    1    4    4    0    0 -0.52915955827E+02 -0.35552421031E+02 -0.11277539933E+03  0.12954676266E+03  0.00000000000E+00 0. -1.
         -5    1    5    5    0  502  0.36445332078E+02 -0.75697615577E+02 -0.16875683453E+02  0.85821150810E+02  0.47000000000E+01 0.  1.
         11    1    6    6    0    0  0.64545707398E+02 -0.11845780227E+00 -0.13095780715E+03  0.14600037545E+03  0.00000000000E+00 0. -1.
        -12    1    6    6    0    0 -0.11034317696E+01  0.21479881334E+02  0.13735535655E+00  0.21508643153E+02  0.00000000000E+00 0.  1.
</event>
<event>
12    1  0.8563264E-002  0.2581509E+03  0.7818608E-02  0.1108404E+00
         21   -1    0    0  501  502  0.00000000000E+00  0.00000000000E+00  0.53899789892E+02  0.53899789892E+02  0.00000000000E+00 0. -1.
         21   -1    0    0  502  503 -0.00000000000E+00 -0.00000000000E+00 -0.14052443237E+04  0.14052443237E+04  0.00000000000E+00 0.  1.
         -6    2    1    2    0  503  0.18551258333E+03  0.50212942598E+02 -0.93304935771E+03  0.96810277700E+03  0.17235319763E+03 0.  0.
        -24    2    3    3    0    0  0.17915947612E+03  0.79806808639E+02 -0.65509576649E+03  0.68846649940E+03  0.79802336627E+02 0.  0.
          6    2    1    2  501    0 -0.18551258333E+03 -0.50212942598E+02 -0.41829517615E+03  0.49104133664E+03  0.17092244359E+03 0.  0.
         24    2    5    5    0    0 -0.19156444884E+03 -0.35344809886E+02 -0.42403070299E+03  0.47335878268E+03  0.79500354787E+02 0.  0.
          5    1    5    5  501    0  0.60518655087E+01 -0.14868132713E+02  0.57355268446E+01  0.17682553964E+02  0.47000000000E+01 0. -1.
        -11    1    6    6    0    0 -0.80408533156E+02 -0.39016769552E+02 -0.26205480031E+03  0.27687643251E+03  0.00000000000E+00 0.  1.
         12    1    6    6    0    0 -0.11115591569E+03  0.36719596660E+01 -0.16197590268E+03  0.19648235017E+03  0.00000000000E+00 0. -1.
         -5    1    3    3    0  503  0.63531072083E+01 -0.29593866041E+02 -0.27795359122E+03  0.27963627760E+03  0.47000000000E+01 0.  1.
         13    1    4    4    0    0  0.25647010572E+02  0.41756605658E+02 -0.10131648932E+03  0.11254516549E+03  0.00000000000E+00 0. -1.
        -14    1    4    4    0    0  0.15351246555E+03  0.38050202981E+02 -0.55377927717E+03  0.57592133391E+03  0.00000000000E+00 0.  1.
</event>
<event>
12    1  0.8563264E-002  0.2008275E+03  0.7818608E-02  0.1149083E+00
         21   -1    0    0  501  502  0.00000000000E+00  0.00000000000E+00  0.13509726818E+03  0.13509726818E+03  0.00000000000E+00 0.  1.
         21   -1    0    0  502  503 -0.00000000000E+00 -0.00000000000E+00 -0.49434789419E+03  0.49434789419E+03  0.00000000000E+00 0.  1.
         -6    2    1    2    0  503  0.69273125310E+02 -0.76412282129E+02 -0.37779290317E+03  0.42776344778E+03  0.17209441253E+03 0.  0.
        -24    2    3    3    0    0 -0.63512586932E+01 -0.28727729249E+02 -0.81953332181E+02  0.11867445445E+03  0.80632850424E+02 0.  0.
          6    2    1    2  501    0 -0.69273125310E+02  0.76412282129E+02  0.18542277157E+02  0.20168171460E+03  0.17231974701E+03 0.  0.
         24    2    5    5    0    0 -0.10351811034E+03  0.45374814675E+02 -0.21605914139E+02  0.14028130214E+03  0.80231884111E+02 0.  0.
          5    1    5    5  501    0  0.34244985031E+02  0.31037467454E+02  0.40148191296E+02  0.61400412459E+02  0.47000000000E+01 0. -1.
        -13    1    6    6    0    0 -0.51296628875E+02 -0.19546327176E+02 -0.13775004414E+02  0.56596411428E+02  0.00000000000E+00 0.  1.
         14    1    6    6    0    0 -0.52221481466E+02  0.64921141850E+02 -0.78309097255E+01  0.83684890708E+02  0.00000000000E+00 0. -1.
         -5    1    3    3    0  503  0.75624384003E+02 -0.47684552880E+02 -0.29583957099E+03  0.30908899334E+03  0.47000000000E+01 0.  1.
         13    1    4    4    0    0  0.18318682450E+02  0.21955085465E+02 -0.19873048585E+02  0.34821515828E+02  0.00000000000E+00 0. -1.
        -14    1    4    4    0    0 -0.24669941143E+02 -0.50682814714E+02 -0.62080283596E+02  0.83852938617E+02  0.00000000000E+00 0.  1.
</event>
<event>
12    1  0.8563264E-002  0.2077628E+03  0.7818608E-02  0.1143478E+00
         21   -1    0    0  501  502  0.00000000000E+00  0.00000000000E+00  0.33320051318E+04  0.33320051318E+04  0.00000000000E+00 0.  1.
         21   -1    0    0  502  503 -0.00000000000E+00 -0.00000000000E+00 -0.13751274949E+02  0.13751274949E+02  0.00000000000E+00 0. -1.
         -6    2    1    2    0  503 -0.23286302390E+02 -0.11334784591E+03  0.12441865152E+04  0.12613090624E+04  0.17178614684E+03 0.  0.
        -24    2    3    3    0    0 -0.52465173267E+02 -0.21579483227E+02  0.83781968725E+03  0.84366216878E+03  0.81275815513E+02 0.  0.
          6    2    1    2  501    0  0.23286302390E+02  0.11334784591E+03  0.20740673417E+04  0.20844473444E+04  0.17255552032E+03 0.  0.
         24    2    5    5    0    0  0.29882588036E+02  0.14860295467E+03  0.16906014013E+04  0.16992790031E+04  0.80251013306E+02 0.  0.
          5    1    5    5  501    0 -0.65962856453E+01 -0.35255108766E+02  0.38346594039E+03  0.38516834127E+03  0.47000000000E+01 0. -1.
        -11    1    6    6    0    0  0.51368898429E+02  0.88623235320E+02  0.12355676990E+04  0.12398065899E+04  0.00000000000E+00 0.  1.
         12    1    6    6    0    0 -0.21486310394E+02  0.59979719355E+02  0.45503370226E+03  0.45947241317E+03  0.00000000000E+00 0. -1.
         -5    1    3    3    0  503  0.29178870876E+02 -0.91768362682E+02  0.40636682795E+03  0.41764689362E+03  0.47000000000E+01 0.  1.
         13    1    4    4    0    0 -0.40602137505E+02 -0.44585239042E+02  0.35004543439E+03  0.35520160930E+03  0.00000000000E+00 0. -1.
        -14    1    4    4    0    0 -0.11863035762E+02  0.23005755815E+02  0.48777425286E+03  0.48846055949E+03  0.00000000000E+00 0.  1.
</event>
<event>
12    1  0.8563264E-002  0.1831997E+03  0.7818608E-02  0.1164921E+00
         21   -1    0    0  503  502  0.00000000000E+00  0.00000000000E+00  0.64541040189E+03  0.64541040189E+03  0.00000000000E+00 0.  1.
         21   -1    0    0  501  503 -0.00000000000E+00 -0.00000000000E+00 -0.19348435577E+03  0.19348435577E+03  0.00000000000E+00 0.  1.
          6    2    1    2  501    0  0.56396380245E+02 -0.27410821903E+02 -0.13286327314E+03  0.22630679175E+03  0.17213427833E+03 0.  0.
         24    2    3    3    0    0  0.47627156230E+02  0.42466792980E+02 -0.11529307244E+03  0.15357040261E+03  0.78864450100E+02 0.  0.
         -6    2    1    2    0  502 -0.56396380245E+02  0.27410821903E+02  0.58478931926E+03  0.61258796591E+03  0.17132881601E+03 0.  0.
        -24    2    5    5    0    0 -0.37030726352E+02  0.62935020698E+02  0.20895261690E+03  0.23455051526E+03  0.77592889988E+02 0.  0.
          5    1    3    3  501    0  0.87692240154E+01 -0.69877614883E+02 -0.17570200707E+02  0.72736389136E+02  0.47000000000E+01 0. -1.
        -13    1    4    4    0    0  0.31632007686E+02  0.40215873550E+02 -0.12476254862E+03  0.13484655700E+03  0.00000000000E+00 0.  1.
         14    1    4    4    0    0  0.15995148545E+02  0.22509194304E+01  0.94694761865E+01  0.18723845612E+02  0.00000000000E+00 0. -1.
         -5    1    5    5    0  502 -0.19365653893E+02 -0.35524198795E+02  0.37583670236E+03  0.37803745065E+03  0.47000000000E+01 0.  1.
         13    1    6    6    0    0 -0.37139753877E+01 -0.82252785211E+01 -0.21686678371E+01  0.92818069425E+01  0.00000000000E+00 0. -1.
        -14    1    6    6    0    0 -0.33316750964E+02  0.71160299219E+02  0.21112128473E+03  0.22526870832E+03  0.00000000000E+00 0.  1.
</event>
<event>
12    1  0.8563264E-002  0.1857044E+03  0.7818608E-02  0.1162950E+00
         21   -1    0    0  501  502  0.00000000000E+00  0.00000000000E+00  0.40789256733E+03  0.40789256733E+03  0.00000000000E+00 0.  1.
         21   -1    0    0  502  503 -0.00000000000E+00 -0.00000000000E+00 -0.96919787505E+02  0.96919787505E+02  0.00000000000E+00 0.  1.
         -6    2    1    2    0  503  0.24075696281E+02  0.57807628170E+02  0.60588118373E+02  0.19307753044E+03  0.17229814755E+03 0.  0.
        -24    2    3    3    0    0 -0.37124784571E+02  0.19584778517E+02 -0.13467060528E+02  0.89575141032E+02  0.77977759603E+02 0.  0.
          6    2    1    2  501    0 -0.24075696281E+02 -0.57807628170E+02  0.25038466145E+03  0.31173482439E+03  0.17482780391E+03 0.  0.
         24    2    5    5    0    0 -0.72075912565E+02 -0.60746989365E+01  0.11639375395E+03  0.16022254758E+03  0.83017586424E+02 0.  0.
          5    1    5    5  501    0  0.48000216284E+02 -0.51732929234E+02  0.13399090750E+03  0.15151227681E+03  0.47000000000E+01 0. -1.
        -13    1    6    6    0    0  0.30408888218E+01 -0.26771576908E+02  0.54201881871E+02  0.60529400570E+02  0.00000000000E+00 0.  1.
         14    1    6    6    0    0 -0.75116801386E+02  0.20696877972E+02  0.62191872077E+02  0.99693147010E+02  0.00000000000E+00 0. -1.
         -5    1    3    3    0  503  0.61200480852E+02  0.38222849654E+02  0.74055178901E+02  0.10350238941E+03  0.47000000000E+01 0.  1.
         13    1    4    4    0    0  0.36978651929E+01 -0.20235213460E+02  0.15363365991E+02  0.25674327359E+02  0.00000000000E+00 0. -1.
        -14    1    4    4    0    0 -0.40822649764E+02  0.39819991977E+02 -0.28830426519E+02  0.63900813673E+02  0.00000000000E+00 0.  1.
</event>
<event>
12    1  0.8563264E-002  0.2139673E+03  0.7818608E-02  0.1138515E+00
         21   -1    0    0  503  502  0.00000000000E+00  0.00000000000E+00  0.19515751879E+03  0.19515751879E+03  0.00000000000E+00 0. -1.
         21   -1    0    0  501  503 -0.00000000000E+00 -0.00000000000E+00 -0.28548781926E+03  0.28548781926E+03  0.00000000000E+00 0. -1.
          6    2    1    2  501    0 -0.12545576599E+03  0.17643595264E+02 -0.14695731367E+03  0.25957357338E+03  0.17242836855E+03 0.  0.
         24    2    3    3    0    0 -0.14163461655E+03 -0.57063182081E+01 -0.68573615600E+02  0.17606867659E+03  0.78771260287E+02 0.  0.
         -6    2    1    2    0  502  0.12545576599E+03 -0.17643595264E+02  0.56627013202E+02  0.22107176467E+03  0.17209201270E+03 0.  0.
        -24    2    5    5    0    0  0.14999837144E+03 -0.33742435320E+02  0.21637894145E+02  0.17516053962E+03  0.81086082662E+02 0.  0.
          5    1    3    3  501    0  0.16178850554E+02  0.23349913472E+02 -0.78383698071E+02  0.83504896788E+02  0.47000000000E+01 0. -1.
        -11    1    4    4    0    0 -0.42452320772E+02  0.33174234515E+02 -0.11046942836E+02  0.54997857418E+02  0.00000000000E+00 0.  1.
         12    1    4    4    0    0 -0.99182295774E+02 -0.38880552723E+02 -0.57526672763E+02  0.12107081917E+03  0.00000000000E+00 0. -1.
         -5    1    5    5    0  502 -0.24542605447E+02  0.16098840056E+02  0.34989119057E+02  0.45911225051E+02  0.47000000000E+01 0.  1.
         11    1    6    6    0    0  0.60556632569E+02 -0.13733702731E+02  0.49452397349E+02  0.79380475826E+02  0.00000000000E+00 0. -1.
        -12    1    6    6    0    0  0.89441738869E+02 -0.20008732589E+02 -0.27814503205E+02  0.95780063793E+02  0.00000000000E+00 0.  1.
</event>
<event>
12    1  0.8563264E-002  0.2668665E+03  0.7818608E-02  0.1103141E+00
         21   -1    0    0  503  502  0.00000000000E+00  0.00000000000E+00  0.12796314596E+03  0.12796314596E+03  0.00000000000E+00 0. -1.
         21   -1    0    0  501  503 -0.00000000000E+00 -0.00000000000E+00 -0.90477652683E+03  0.90477652683E+03  0.00000000000E+00 0.  1.
          6    2    1    2  501    0 -0.16072255835E+03 -0.12525299291E+03 -0.70894547370E+03  0.75737853568E+03  0.17175129878E+03 0.  0.
         24    2    3    3    0    0 -0.17455812886E+03 -0.13732869909E+03 -0.56846699579E+03  0.61562685687E+03  0.80696899882E+02 0.  0.
         -6    2    1    2    0  502  0.16072255835E+03  0.12525299291E+03 -0.67867907174E+02  0.27536113711E+03  0.17233006124E+03 0.  0.
        -24    2    5    5    0    0  0.15314411173E+02  0.53306880121E+02  0.41729599624E+01  0.97789323603E+02  0.80431234966E+02 0.  0.
          5    1    3    3  501    0  0.13835570504E+02  0.12075706174E+02 -0.14047847790E+03  0.14175167881E+03  0.47000000000E+01 0. -1.
        -11    1    4    4    0    0 -0.37680298431E+02 -0.26025653371E+02 -0.22375010490E+03  0.22838837310E+03  0.00000000000E+00 0.  1.
         12    1    4    4    0    0 -0.13687783043E+03 -0.11130304571E+03 -0.34471689090E+03  0.38723848378E+03  0.00000000000E+00 0. -1.
         -5    1    5    5    0  502  0.14540814718E+03  0.71946112791E+02 -0.72040867137E+02  0.17757181350E+03  0.47000000000E+01 0.  1.
         13    1    6    6    0    0  0.58034708690E+01  0.72673208152E+02  0.13739296602E+02  0.74187894757E+02  0.00000000000E+00 0. -1.
        -14    1    6    6    0    0  0.95109403035E+01 -0.19366328032E+02 -0.95663366399E+01  0.23601428847E+02  0.00000000000E+00 0.  1.
</event>
<event>
12    1  0.8563264E-002  0.1891790E+03  0.7818608E-02  0.1159394E+00
         21   -1    0    0  503  502  0.00000000000E+00  0.00000000000E+00  0.54934527261E+03  0.54934527261E+03  0.00000000000E+00 0. -1.
         21   -1    0    0  501  503 -0.00000000000E+00 -0.00000000000E+00 -0.18573771864E+03  0.18573771864E+03  0.00000000000E+00 0. -1.
          6    2    1    2  501    0 -0.60809126038E+02 -0.48354801176E+02 -0.11455866982E+03  0.22116142500E+03  0.17248985614E+03 0.  0.
         24    2    3    3    0    0 -0.31266631479E+01 -0.30287854570E+02  0.64353400523E+01  0.85827314332E+02  0.79986149595E+02 0.  0.
         -6    2    1    2    0  502  0.60809126038E+02  0.48354801176E+02  0.47816622378E+03  0.51392156625E+03  0.17157069121E+03 0.  0.
        -24    2    5    5    0    0  0.47151498316E+02  0.23119925168E+02  0.47513384589E+03  0.48468776599E+03  0.80076614917E+02 0.  0.
          5    1    3    3  501    0 -0.57682462890E+02 -0.18066946606E+02 -0.12099400987E+03  0.13533411066E+03  0.47000000000E+01 0. -1.
        -13    1    4    4    0    0  0.19320457951E+02 -0.51155821190E+02  0.94609948413E+00  0.54690888101E+02  0.00000000000E+00 0.  1.
         14    1    4    4    0    0 -0.22447121098E+02  0.20867966620E+02  0.54892405682E+01  0.31136426231E+02  0.00000000000E+00 0. -1.
         -5    1    5    5    0  502  0.13657627722E+02  0.25234876008E+02  0.30323778977E+01  0.29233800263E+02  0.47000000000E+01 0.  1.
         11    1    6    6    0    0  0.12070481759E+02  0.30265992371E+02  0.62319402710E+02  0.70323785295E+02  0.00000000000E+00 0. -1.
        -12    1    6    6    0    0  0.35081016557E+02 -0.71460672028E+01  0.41281444318E+03  0.41436398069E+03  0.00000000000E+00 0.  1.
</event>
<event>
12    1  0.8563264E-002  0.1992756E+03  0.7818608E-02  0.1150466E+00
         21   -1    0    0  501  502  0.00000000000E+00  0.00000000000E+00  0.45362858427E+03  0.45362858427E+03  0.00000000000E+00 0. -1.
         21   -1    0    0  502  503 -0.00000000000E+00 -0.00000000000E+00 -0.95624738219E+02  0.95624738219E+02  0.00000000000E+00 0. -1.
         -6    2    1    2    0  503  0.99403397717E+02 -0.66748234981E+01  0.98208506498E+02  0.22216141152E+03  0.17258387315E+03 0.  0.
        -24    2    3    3    0    0  0.12293681152E+03  0.42982575007E+01  0.11890255840E+03  0.18862689414E+03  0.79437725000E+02 0.  0.
          6    2    1    2  501    0 -0.99403397717E+02  0.66748234981E+01  0.25979533955E+03  0.32709191097E+03  0.17195903879E+03 0.  0.
         24    2    5    5    0    0 -0.45396253666E+02  0.45886062123E+02  0.23742374719E+03  0.25654496924E+03  0.72656279600E+02 0.  0.
          5    1    5    5  501    0 -0.54007144051E+02 -0.39211238625E+02  0.22371592358E+02  0.70546941731E+02  0.47000000000E+01 0. -1.
        -11    1    6    6    0    0 -0.41711286203E+02  0.45810783811E+02  0.91078483309E+02  0.11015329969E+03  0.00000000000E+00 0.  1.
         12    1    6    6    0    0 -0.36849674627E+01  0.75278311191E-01  0.14634526388E+03  0.14639166955E+03  0.00000000000E+00 0. -1.
         -5    1    3    3    0  503 -0.23533413801E+02 -0.10973080999E+02 -0.20694051904E+02  0.33534517381E+02  0.47000000000E+01 0.  1.
         13    1    4    4    0    0  0.60196700153E+02  0.95412497412E+01  0.85051380094E+01  0.61538731938E+02  0.00000000000E+00 0. -1.
        -14    1    4    4    0    0  0.62740111366E+02 -0.52429922405E+01  0.11039742039E+03  0.12708816220E+03  0.00000000000E+00 0.  1.
</event>
<event>
12    1  0.8563264E-002  0.1995665E+03  0.7818608E-02  0.1150127E+00
         21   -1    0    0  501  502  0.00000000000E+00  0.00000000000E+00  0.87849902920E+02  0.87849902920E+02  0.00000000000E+00 0. -1.
         21   -1    0    0  502  503 -0.00000000000E+00 -0.00000000000E+00 -0.46487259505E+03  0.46487259505E+03  0.00000000000E+00 0. -1.
         -6    2    1    2    0  503  0.87117423221E+01 -0.98430038365E+02 -0.14461745395E+03  0.24645687832E+03  0.17338517231E+03 0.  0.
        -24    2    3    3    0    0 -0.89181918476E+01 -0.30378681391E+02 -0.15218905820E+03  0.17559630426E+03  0.81671012025E+02 0.  0.
          6    2    1    2  501    0 -0.87117423221E+01  0.98430038365E+02 -0.23240523818E+03  0.30626561965E+03  0.17326877427E+03 0.  0.
         24    2    5    5    0    0 -0.19595949785E+02  0.12322951422E+03 -0.23478880074E+03  0.27867483594E+03  0.83452793895E+02 0.  0.
          5    1    5    5  501    0  0.10884207463E+02 -0.24799475859E+02  0.23835625649E+01  0.27590783706E+02  0.47000000000E+01 0. -1.
        -13    1    6    6    0    0  0.30069071755E+02  0.21959726503E+02 -0.62416539692E+02  0.72678766441E+02  0.00000000000E+00 0.  1.
         14    1    6    6    0    0 -0.49665021541E+02  0.10126978772E+03 -0.17237226105E+03  0.20599606950E+03  0.00000000000E+00 0. -1.
         -5    1    3    3    0  503  0.17629934170E+02 -0.68051356974E+02  0.75716042540E+01  0.70860574058E+02  0.47000000000E+01 0.  1.
         13    1    4    4    0    0 -0.31970645267E+02 -0.46976747145E+02 -0.80954714282E+02  0.98907040677E+02  0.00000000000E+00 0. -1.
        -14    1    4    4    0    0  0.23052453420E+02  0.16598065754E+02 -0.71234343918E+02  0.76689263583E+02  0.00000000000E+00 0.  1.
</event>
<event>
12    1  0.8563264E-002  0.1981014E+03  0.7818608E-02  0.1152580E+00
         21   -1    0    0  503  502  0.00000000000E+00  0.00000000000E+00  0.35830277900E+03  0.35830277900E+03  0.00000000000E+00 0. -1.
         21   -1    0    0  501  503 -0.00000000000E+00 -0.00000000000E+00 -0.26147094840E+03  0.26147094840E+03  0.00000000000E+00 0. -1.
          6    2    1    2  501    0 -0.98255760922E+02 -0.80699733518E+01 -0.18992197435E+03  0.27443491116E+03  0.17182795203E+03 0.  0.
         24    2    3    3    0    0 -0.78909333706E+02 -0.13847227020E+02 -0.21402783984E+03  0.24264114358E+03  0.81537596773E+02 0.  0.
         -6    2    1    2    0  502  0.98255760922E+02  0.80699733518E+01  0.28675380495E+03  0.34533881624E+03  0.16526292485E+03 0.  0.
        -24    2    5    5    0    0  0.67978118682E+02  0.22573488530E+02  0.76467211271E+02  0.13233733960E+03  0.80841511919E+02 0.  0.
          5    1    3    3  501    0 -0.19346427215E+02  0.57772536681E+01  0.24105865493E+02  0.31793767583E+02  0.47000000000E+01 0. -1.
        -11    1    4    4    0    0  0.47065247389E+00  0.25155572430E+02 -0.36924584813E+02  0.44681643900E+02  0.00000000000E+00 0.  1.
         12    1    4    4    0    0 -0.79379986180E+02 -0.39002799450E+02 -0.17710325503E+03  0.19795949968E+03  0.00000000000E+00 0. -1.
         -5    1    5    5    0  502  0.30277642240E+02 -0.14503515178E+02  0.21028659368E+03  0.21300147664E+03  0.47000000000E+01 0.  1.
         13    1    6    6    0    0  0.43508118435E+02  0.28815437449E+02  0.89738538144E+02  0.10380891596E+03  0.00000000000E+00 0. -1.
        -14    1    6    6    0    0  0.24470000247E+02 -0.62419489188E+01 -0.13271326873E+02  0.28528423640E+02  0.00000000000E+00 0.  1.
</event>
<event>
12    1  0.8563264E-002  0.1968691E+03  0.7818608E-02  0.1152500E+00
         21   -1    0    0  501  502  0.00000000000E+00  0.00000000000E+00  0.38656717202E+03  0.38656717202E+03  0.00000000000E+00 0. -1.
         21   -1    0    0  502  503 -0.00000000000E+00 -0.00000000000E+00 -0.10156106129E+03  0.10156106129E+03  0.00000000000E+00 0. -1.
         -6    2    1    2    0  503 -0.28630866829E+02 -0.89583652563E+02  0.11250110083E+03  0.22637374921E+03  0.17246338539E+03 0.  0.
        -24    2    3    3    0    0 -0.10762820722E+02 -0.74391935690E+02 -0.17442987355E+00  0.11118728927E+03  0.81930363506E+02 0.  0.
          6    2    1    2  501    0  0.28630866829E+02  0.89583652563E+02  0.17250500991E+03  0.26175448410E+03  0.17295223087E+03 0.  0.
         24    2    5    5    0    0  0.11061362758E+01 -0.91269585201E+01  0.31517487065E+02  0.87395752948E+02  0.80994695710E+02 0.  0.
          5    1    5    5  501    0  0.27524730553E+02  0.98710611083E+02  0.14098752284E+03  0.17435873115E+03  0.47000000000E+01 0. -1.
        -13    1    6    6    0    0  0.34280694108E+02 -0.76685114496E+00 -0.79148068914E+01  0.35190882588E+02  0.00000000000E+00 0.  1.
         14    1    6    6    0    0 -0.33174557832E+02 -0.83601073751E+01  0.39432293956E+02  0.52204870360E+02  0.00000000000E+00 0. -1.
         -5    1    3    3    0  503 -0.17868046107E+02 -0.15191716873E+02  0.11267553071E+03  0.11518645994E+03  0.47000000000E+01 0.  1.
         11    1    4    4    0    0  0.91803523350E+01 -0.47708900013E+02  0.37149307550E+02  0.61159537776E+02  0.00000000000E+00 0. -1.
        -12    1    4    4    0    0 -0.19943173057E+02 -0.26683035677E+02 -0.37323737424E+02  0.50027751496E+02  0.00000000000E+00 0.  1.
</event>
<event>
12    1  0.8563264E-002  0.1804833E+03  0.7818608E-02  0.1167422E+00
         21   -1    0    0  501  502  0.00000000000E+00  0.00000000000E+00  0.15332367958E+03  0.15332367958E+03  0.00000000000E+00 0.  1.
         21   -1    0    0  502  503 -0.00000000000E+00 -0.00000000000E+00 -0.38734583887E+03  0.38734583887E+03  0.00000000000E+00 0.  1.
         -6    2    1    2    0  503 -0.39197705942E+02  0.37227667555E+02 -0.29894299075E+03  0.34920071563E+03  0.17219717970E+03 0.  0.
        -24    2    3    3    0    0  0.38373951607E+02 -0.98612498283E+01 -0.17509860923E+03  0.19559651963E+03  0.77644517690E+02 0.  0.
          6    2    1    2  501    0  0.39197705942E+02 -0.37227667555E+02  0.64920831461E+02  0.19146880281E+03  0.17182324846E+03 0.  0.
         24    2    5    5    0    0  0.12868830456E+02 -0.47940074426E+02  0.10570420195E+03  0.14153546071E+03  0.79969061484E+02 0.  0.
          5    1    5    5  501    0  0.26328875486E+02  0.10712406871E+02 -0.40783370489E+02  0.49933342105E+02  0.47000000000E+01 0. -1.
        -13    1    6    6    0    0 -0.51931290946E+01 -0.30033100373E+02 -0.23109351536E+01  0.30566258016E+02  0.00000000000E+00 0.  1.
         14    1    6    6    0    0  0.18061959550E+02 -0.17906974053E+02  0.10801513710E+03  0.11096920269E+03  0.00000000000E+00 0. -1.
         -5    1    3    3    0  503 -0.77571657549E+02  0.47088917383E+02 -0.12384438152E+03  0.15360419600E+03  0.47000000000E+01 0.  1.
         13    1    4    4    0    0 -0.14480357950E+02 -0.23685219759E+02 -0.92412399445E+02  0.96492082434E+02  0.00000000000E+00 0. -1.
        -14    1    4    4    0    0  0.52854309557E+02  0.13823969931E+02 -0.82686209787E+02  0.99104437198E+02  0.00000000000E+00 0.  1.
</event>
<event>
12    1  0.8563264E-002  0.2744644E+03  0.7818608E-02  0.1098904E+00
         21   -1    0    0  503  502  0.00000000000E+00  0.00000000000E+00  0.23544086697E+03  0.23544086697E+03  0.00000000000E+00 0.  1.
         21   -1    0    0  501  503 -0.00000000000E+00 -0.00000000000E+00 -0.59161119467E+03  0.59161119467E+03  0.00000000000E+00 0.  1.
          6    2    1    2  501    0  0.11144165226E+03 -0.18190960383E+03  0.10297479880E+03  0.29212686248E+03  0.17095013533E+03 0.  0.
         24    2    3    3    0    0 -0.42393251848E+01 -0.11117479788E+03  0.65960114477E+02  0.15149372922E+03  0.78878423714E+02 0.  0.
         -6    2    1    2    0  502 -0.11144165226E+03  0.18190960383E+03 -0.45914512650E+03  0.53492519916E+03  0.17268577153E+03 0.  0.
        -24    2    5    5    0    0 -0.93840634244E+02  0.15396590285E+03 -0.25320346813E+03  0.32629945072E+03  0.99235938018E+02 0.  0.
          5    1    3    3  501    0  0.11568097745E+03 -0.70734805950E+02  0.37014684321E+02  0.14063313326E+03  0.47000000000E+01 0. -1.
        -13    1    4    4    0    0 -0.10987135126E+02  0.10095135597E+02  0.69534470651E+01  0.16461449726E+02  0.00000000000E+00 0.  1.
         14    1    4    4    0    0  0.67478099411E+01 -0.12126993348E+03  0.59006667412E+02  0.13503227949E+03  0.00000000000E+00 0. -1.
         -5    1    5    5    0  502 -0.17601018020E+02  0.27943700981E+02 -0.20594165837E+03  0.20862574844E+03  0.47000000000E+01 0.  1.
         13    1    6    6    0    0 -0.44397945517E+01 -0.74291502007E+01 -0.54356871603E+02  0.55041561922E+02  0.00000000000E+00 0. -1.
        -14    1    6    6    0    0 -0.89400839693E+02  0.16139505305E+03 -0.19884659652E+03  0.27125788880E+03  0.00000000000E+00 0.  1.
</event>
<event>
12    1  0.8563264E-002  0.1857472E+03  0.7818608E-02  0.1162608E+00
         21   -1    0    0  501  502  0.00000000000E+00  0.00000000000E+00  0.44402110916E+03  0.44402110916E+03  0.00000000000E+00 0.  1.
         21   -1    0    0  502  503 -0.00000000000E+00 -0.00000000000E+00 -0.87441708726E+02  0.87441708726E+02  0.00000000000E+00 0.  1.
         -6    2    1    2    0  503 -0.67131574247E+02 -0.37220255160E+01  0.88024907786E+02  0.20554903993E+03  0.17315173026E+03 0.  0.
        -24    2    3    3    0    0  0.22680017694E+02 -0.10850987758E+02  0.80652182404E+02  0.11503168674E+03  0.78072961322E+02 0.  0.
          6    2    1    2  501    0  0.67131574247E+02  0.37220255160E+01  0.26855449265E+03  0.32591377795E+03  0.17198189848E+03 0.  0.
         24    2    5    5    0    0 -0.83333588579E+01 -0.15566646179E+02  0.21870185767E+03  0.23331580714E+03  0.79334721085E+02 0.  0.
          5    1    5    5  501    0  0.75464933105E+02  0.19288671695E+02  0.49852634976E+02  0.92597970812E+02  0.47000000000E+01 0. -1.
        -13    1    6    6    0    0  0.34834505305E+02 -0.13551499202E+02  0.11662024405E+03  0.12246373836E+03  0.00000000000E+00 0.  1.
         14    1    6    6    0    0 -0.43167864163E+02 -0.20151469769E+01  0.10208161363E+03  0.11085206879E+03  0.00000000000E+00 0. -1.
         -5    1    3    3    0  503 -0.89811591941E+02  0.71289622424E+01  0.73727253821E+01  0.90517353194E+02  0.47000000000E+01 0.  1.
         13    1    4    4    0    0  0.26671312055E+02  0.29964760186E+02  0.48366602549E+02  0.62837679635E+02  0.00000000000E+00 0. -1.
        -14    1    4    4    0    0 -0.39912943615E+01 -0.40815747945E+02  0.32285579856E+02  0.52194007104E+02  0.00000000000E+00 0.  1.
</event>
<event>
12    1  0.8563264E-002  0.1794632E+03  0.7818608E-02  0.1168754E+00
         21   -1    0    0  503  502  0.00000000000E+00  0.00000000000E+00  0.54377872594E+03  0.54377872594E+03  0.00000000000E+00 0. -1.
         21   -1    0    0  501  503 -0.00000000000E+00 -0.00000000000E+00 -0.12099400972E+03  0.12099400972E+03  0.00000000000E+00 0. -1.
          6    2    1    2  501    0  0.32475985253E+01  0.46176077837E+02 -0.27709375349E+02  0.17984803980E+03  0.17156552940E+03 0.  0.
         24    2    3    3    0    0 -0.61968300653E+02  0.41626328254E+02 -0.14722116763E+01  0.10924851796E+03  0.79751174158E+02 0.  0.
         -6    2    1    2    0  502 -0.32475985253E+01 -0.46176077837E+02  0.45049409157E+03  0.48492469586E+03  0.17339047567E+03 0.  0.
        -24    2    5    5    0    0 -0.17325620691E+02 -0.82218882288E+02  0.20156384371E+03  0.23296114143E+03  0.81134385983E+02 0.  0.
          5    1    3    3  501    0  0.65215899178E+02  0.45497495834E+01 -0.26237163672E+02  0.70599521843E+02  0.47000000000E+01 0. -1.
        -11    1    4    4    0    0 -0.48746338017E+02  0.53649388843E+02  0.25543700505E+02  0.76856639458E+02  0.00000000000E+00 0.  1.
         12    1    4    4    0    0 -0.13221962637E+02 -0.12023060590E+02 -0.27015912182E+02  0.32391878502E+02  0.00000000000E+00 0. -1.
         -5    1    5    5    0  502  0.14078022166E+02  0.36042804451E+02  0.24893024786E+03  0.25196355443E+03  0.47000000000E+01 0.  1.
         11    1    6    6    0    0 -0.98125136134E+01 -0.33374956026E+02  0.17176793145E+03  0.17525522927E+03  0.00000000000E+00 0. -1.
        -12    1    6    6    0    0 -0.75131070780E+01 -0.48843926262E+02  0.29795912263E+02  0.57705912160E+02  0.00000000000E+00 0.  1.
</event>
<event>
12    1  0.8563264E-002  0.1758953E+03  0.7818608E-02  0.1172161E+00
         21   -1    0    0  501  502  0.00000000000E+00  0.00000000000E+00  0.15930359175E+03  0.15930359175E+03  0.00000000000E+00 0. -1.
         21   -1    0    0  502  503 -0.00000000000E+00 -0.00000000000E+00 -0.19290230440E+03  0.19290230440E+03  0.00000000000E+00 0. -1.
         -6    2    1    2    0  503 -0.21520742907E+02  0.31985513674E+02 -0.21201900036E+02  0.17716848764E+03  0.17161857996E+03 0.  0.
        -24    2    3    3    0    0 -0.12209437531E+02 -0.41635739980E+02  0.20182998570E+02  0.92070959889E+02  0.78658140170E+02 0.  0.
          6    2    1    2  501    0  0.21520742907E+02 -0.31985513674E+02 -0.12396812615E+02  0.17503740851E+03  0.17028857259E+03 0.  0.
         24    2    5    5    0    0 -0.25874675367E+02 -0.55579996845E+02 -0.44245912341E+02  0.11307386711E+03  0.84079508738E+02 0.  0.
          5    1    5    5  501    0  0.47395418273E+02  0.23594483171E+02  0.31849099726E+02  0.61963541399E+02  0.47000000000E+01 0. -1.
        -11    1    6    6    0    0 -0.24370990412E+02 -0.45782513158E+02 -0.69052022392E+02  0.86360670916E+02  0.00000000000E+00 0.  1.
         12    1    6    6    0    0 -0.15036849545E+01 -0.97974836873E+01  0.24806110051E+02  0.26713196194E+02  0.00000000000E+00 0. -1.
         -5    1    3    3    0  503 -0.93113053759E+01  0.73621253654E+02 -0.41384898606E+02  0.85097527756E+02  0.47000000000E+01 0.  1.
         11    1    4    4    0    0 -0.44093439913E+02 -0.11181568435E+02  0.13687360858E+02  0.47503713152E+02  0.00000000000E+00 0. -1.
        -12    1    4    4    0    0  0.31884002382E+02 -0.30454171545E+02  0.64956377124E+01  0.44567246736E+02  0.00000000000E+00 0.  1.
</event>
<event>
12    1  0.8563264E-002  0.1971695E+03  0.7818608E-02  0.1152339E+00
         21   -1    0    0  501  502  0.00000000000E+00  0.00000000000E+00  0.11290100956E+03  0.11290100956E+03  0.00000000000E+00 0.  1.
         21   -1    0    0  502  503 -0.00000000000E+00 -0.00000000000E+00 -0.16427083457E+04  0.16427083457E+04  0.00000000000E+00 0.  1.
         -6    2    1    2    0  503 -0.96875916972E+02  0.16132104866E+01 -0.15461229554E+04  0.15586442816E+04  0.17172145303E+03 0.  0.
        -24    2    3    3    0    0 -0.29049945419E+01 -0.27963832576E+02 -0.43911837942E+03  0.44725481021E+03  0.80134257276E+02 0.  0.
          6    2    1    2  501    0  0.96875916972E+02 -0.16132104866E+01  0.16315619308E+02  0.19696507368E+03  0.17070880200E+03 0.  0.
         24    2    5    5    0    0  0.19366066875E+01  0.35813942228E+01  0.52633889283E+02  0.95075116915E+02  0.79071959160E+02 0.  0.
          5    1    5    5  501    0  0.94939310285E+02 -0.51946047094E+01 -0.36318269975E+02  0.10188995676E+03  0.47000000000E+01 0. -1.
        -11    1    6    6    0    0  0.37351292724E+02 -0.13659857498E+02  0.27440391699E+02  0.48318587227E+02  0.00000000000E+00 0.  1.
         12    1    6    6    0    0 -0.35414686037E+02  0.17241251720E+02  0.25193497584E+02  0.46756529688E+02  0.00000000000E+00 0. -1.
         -5    1    3    3    0  503 -0.93970922430E+02  0.29577043062E+02 -0.11070045760E+04  0.11113894714E+04  0.47000000000E+01 0.  1.
         13    1    4    4    0    0  0.24619336396E+02 -0.36761611589E+02 -0.36550472199E+03  0.36817282573E+03  0.00000000000E+00 0. -1.
        -14    1    4    4    0    0 -0.27524330938E+02  0.87977790139E+01 -0.73613657427E+02  0.79081984477E+02  0.00000000000E+00 0.  1.
</event>
<event>
12    1  0.8563264E-002  0.1783693E+03  0.7818608E-02  0.1169554E+00
         21   -1    0    0  503  502  0.00000000000E+00  0.00000000000E+00  0.20839259773E+02  0.20839259773E+02  0.00000000000E+00 0.  1.
         21   -1    0    0  501  503 -0.00000000000E+00 -0.00000000000E+00 -0.17327549359E+04  0.17327549359E+04  0.00000000000E+00 0.  1.
          6    2    1    2  501    0  0.28901892090E+02 -0.42165548006E+02 -0.11638686584E+04  0.11774573655E+04  0.17088692417E+03 0.  0.
         24    2    3    3    0    0  0.40091183567E+02  0.25357154369E+02 -0.39305440700E+03  0.40359612750E+03  0.78407773805E+02 0.  0.
         -6    2    1    2    0  502 -0.28901892090E+02  0.42165548006E+02 -0.54804701778E+03  0.57613683018E+03  0.17019065954E+03 0.  0.
        -24    2    5    5    0    0  0.20730618190E+02  0.79105701380E+02 -0.39189985483E+03  0.40811305953E+03  0.79267285955E+02 0.  0.
          5    1    3    3  501    0 -0.11189291477E+02 -0.67522702375E+02 -0.77081425138E+03  0.77386123802E+03  0.47000000000E+01 0. -1.
        -13    1    4    4    0    0  0.97181783559E+01  0.22341740237E+02 -0.34985259166E+03  0.35069991765E+03  0.00000000000E+00 0.  1.
         14    1    4    4    0    0  0.30373005211E+02  0.30154141317E+01 -0.43201815340E+02  0.52896209851E+02  0.00000000000E+00 0. -1.
         -5    1    5    5    0  502 -0.49632510280E+02 -0.36940153374E+02 -0.15614716295E+03  0.16802377065E+03  0.47000000000E+01 0.  1.
         13    1    6    6    0    0 -0.18432709089E+01  0.61746349665E+02 -0.12232219313E+03  0.13703550006E+03  0.00000000000E+00 0. -1.
        -14    1    6    6    0    0  0.22573889099E+02  0.17359351716E+02 -0.26957766170E+03  0.27107755947E+03  0.00000000000E+00 0.  1.
</event>
<event>
12    1  0.8563264E-002  0.2304036E+03  0.7818608E-02  0.1126404E+00
         21   -1    0    0  501  502  0.00000000000E+00  0.00000000000E+00  0.57063822651E+02  0.57063822651E+02  0.00000000000E+00 0.  1.
         21   -1    0    0  502  503 -0.00000000000E+00 -0.00000000000E+00 -0.12288555866E+04  0.12288555866E+04  0.00000000000E+00 0.  1.
         -6    2    1    2    0  503 -0.13873026915E+03  0.65625087550E+02 -0.90314337688E+03  0.93200166157E+03  0.17148293870E+03 0.  0.
        -24    2    3    3    0    0 -0.12264975475E+03  0.66599486824E+01 -0.78973157605E+03  0.80308386950E+03  0.78615659866E+02 0.  0.
          6    2    1    2  501    0  0.13873026915E+03 -0.65625087550E+02 -0.26864838707E+03  0.35391774768E+03  0.17185190298E+03 0.  0.
         24    2    5    5    0    0  0.16041694676E+03 -0.42404828394E+02 -0.17388284861E+03  0.25385731744E+03  0.81710013443E+02 0.  0.
          5    1    5    5  501    0 -0.21686677619E+02 -0.23220259156E+02 -0.94765538456E+02  0.10006043024E+03  0.47000000000E+01 0. -1.
        -11    1    6    6    0    0  0.12521782608E+03 -0.17589885627E+02 -0.16818293114E+03  0.21041484352E+03  0.00000000000E+00 0.  1.
         12    1    6    6    0    0  0.35199120685E+02 -0.24814942767E+02 -0.56999174684E+01  0.43442473925E+02  0.00000000000E+00 0. -1.
         -5    1    3    3    0  503 -0.16080514396E+02  0.58965138868E+02 -0.11341180083E+03  0.12891779207E+03  0.47000000000E+01 0.  1.
         11    1    4    4    0    0  0.12164438744E+01  0.14294614119E+02 -0.29658099263E+02  0.32945691378E+02  0.00000000000E+00 0. -1.
        -12    1    4    4    0    0 -0.12386619862E+03 -0.76346654363E+01 -0.76007347679E+03  0.77013817812E+03  0.00000000000E+00 0.  1.
</event>
<event>
12    1  0.8563264E-002  0.4285048E+03  0.7818608E-02  0.1034384E+00
         21   -1    0    0  503  502  0.00000000000E+00  0.00000000000E+00  0.32117409214E+03  0.32117409214E+03  0.00000000000E+00 0.  1.
         21   -1    0    0  501  503 -0.00000000000E+00 -0.00000000000E+00 -0.61886387274E+03  0.61886387274E+03  0.00000000000E+00 0. -1.
          6    2    1    2  501    0 -0.21591248244E+03 -0.32731904063E+03 -0.27966454243E+03  0.51115421028E+03  0.17120285035E+03 0.  0.
         24    2    3    3    0    0 -0.10547317634E+03 -0.84547905430E+02 -0.70683490461E+02  0.17228869935E+03  0.80089330505E+02 0.  0.
         -6    2    1    2    0  502  0.21591248244E+03  0.32731904063E+03 -0.18025238175E+02  0.42888375460E+03  0.17280165311E+03 0.  0.
        -24    2    5    5    0    0  0.25756352496E+02  0.86184078502E+02 -0.41411797540E+01  0.12144224668E+03  0.81486102049E+02 0.  0.
          5    1    3    3  501    0 -0.11043930610E+03 -0.24277113520E+03 -0.20898105197E+03  0.33886551093E+03  0.47000000000E+01 0. -1.
        -11    1    4    4    0    0  0.19954066143E+01 -0.56977565601E+01  0.13396097401E+02  0.14693587137E+02  0.00000000000E+00 0.  1.
         12    1    4    4    0    0 -0.10746858295E+03 -0.78850148870E+02 -0.84079587862E+02  0.15759511221E+03  0.00000000000E+00 0. -1.
         -5    1    5    5    0  502  0.19015612994E+03  0.24113496213E+03 -0.13884058421E+02  0.30744150792E+03  0.47000000000E+01 0.  1.
         13    1    6    6    0    0  0.44007263683E+02  0.13364956780E+02 -0.57744073674E+01  0.46353048520E+02  0.00000000000E+00 0. -1.
        -14    1    6    6    0    0 -0.18250911187E+02  0.72819121722E+02  0.16332276135E+01  0.75089198158E+02  0.00000000000E+00 0.  1.
</event>
<event>
12    1  0.8563264E-002  0.1809702E+03  0.7818608E-02  0.1167317E+00
         21   -1    0    0  503  502  0.00000000000E+00  0.00000000000E+00  0.23433079336E+03  0.23433079336E+03  0.00000000000E+00 0.  1.
         21   -1    0    0  501  503 -0.00000000000E+00 -0.00000000000E+00 -0.17192466453E+03  0.17192466453E+03  0.00000000000E+00 0.  1.
          6    2    1    2  501    0  0.39627287284E+02 -0.29631557661E+02 -0.58462023574E+02  0.19017894289E+03  0.17407432611E+03 0.  0.
         24    2    3    3    0    0  0.50855167090E+02 -0.61144288564E+02  0.94708191826E+01  0.11431011781E+03  0.81561232050E+02 0.  0.
         -6    2    1    2    0  502 -0.39627287284E+02  0.29631557661E+02  0.12086815241E+03  0.21607651501E+03  0.17213831347E+03 0.  0.
        -24    2    5    5    0    0 -0.72959495108E+02  0.32069737921E+02  0.13780843269E+03  0.17831351860E+03  0.80330509650E+02 0.  0.
          5    1    3    3  501    0 -0.11227879807E+02  0.31512730903E+02 -0.67932842756E+02  0.75868825079E+02  0.47000000000E+01 0. -1.
        -11    1    4    4    0    0 -0.92587217940E+01 -0.36065273014E+02 -0.20616525070E+02  0.42561355157E+02  0.00000000000E+00 0.  1.
         12    1    4    4    0    0  0.60113888884E+02 -0.25079015549E+02  0.30087344253E+02  0.71748762651E+02  0.00000000000E+00 0. -1.
         -5    1    5    5    0  502  0.33332207825E+02 -0.24381802599E+01 -0.16940280282E+02  0.37762996405E+02  0.47000000000E+01 0.  1.
         13    1    6    6    0    0 -0.18840167434E+02 -0.17295647081E+02  0.41660402507E+01  0.25912298398E+02  0.00000000000E+00 0. -1.
        -14    1    6    6    0    0 -0.54119327674E+02  0.49365385002E+02  0.13364239244E+03  0.15240122021E+03  0.00000000000E+00 0.  1.
</event>
<event>
12    1  0.8563264E-002  0.2500385E+03  0.7818608E-02  0.1113656E+00
         21   -1    0    0  503  502  0.00000000000E+00  0.00000000000E+00  0.34796352415E+03  0.34796352415E+03  0.00000000000E+00 0.  1.
         21   -1    0    0  501  503 -0.00000000000E+00 -0.00000000000E+00 -0.27417001240E+03  0.27417001240E+03  0.00000000000E+00 0. -1.
          6    2    1    2  501    0 -0.16834163367E+02 -0.17887072605E+03 -0.14724351926E+03  0.29017219804E+03  0.17389975520E+03 0.  0.
         24    2    3    3    0    0  0.34806951151E+02 -0.17435143246E+03 -0.85636753207E+02  0.20952040113E+03  0.70393175373E+02 0.  0.
         -6    2    1    2    0  502  0.16834163367E+02  0.17887072605E+03  0.22103703101E+03  0.33196133851E+03  0.17047825519E+03 0.  0.
        -24    2    5    5    0    0  0.41983579599E+02  0.10466332017E+03  0.77917028447E+02  0.16872942570E+03  0.98394736808E+02 0.  0.
          5    1    3    3  501    0 -0.51641114518E+02 -0.45192935942E+01 -0.61606766050E+02  0.80651796920E+02  0.47000000000E+01 0. -1.
        -11    1    4    4    0    0 -0.19818182472E+02 -0.64906003074E+02 -0.20252080461E+02  0.70821581135E+02  0.00000000000E+00 0.  1.
         12    1    4    4    0    0  0.54625133623E+02 -0.10944542938E+03 -0.65384672746E+02  0.13869881999E+03  0.00000000000E+00 0. -1.
         -5    1    5    5    0  502 -0.25149416232E+02  0.74207405883E+02  0.14312000256E+03  0.16323191281E+03  0.47000000000E+01 0.  1.
         11    1    6    6    0    0  0.28475896822E+02  0.12307028852E+03  0.70825413703E+02  0.14482200055E+03  0.00000000000E+00 0. -1.
        -12    1    6    6    0    0  0.13507682777E+02 -0.18406968352E+02  0.70916147438E+01  0.23907425156E+02  0.00000000000E+00 0.  1.
</event>
<event>
12    1  0.8563264E-002  0.2172078E+03  0.7818608E-02  0.1135987E+00
         21   -1    0    0  503  502  0.00000000000E+00  0.00000000000E+00  0.21319670211E+02  0.21319670211E+02  0.00000000000E+00 0.  1.
         21   -1    0    0  501  503 -0.00000000000E+00 -0.00000000000E+00 -0.22145884694E+04  0.22145884694E+04  0.00000000000E+00 0.  1.
          6    2    1    2  501    0  0.12218652102E+03  0.52366348852E+02 -0.10636026588E+04  0.10855495798E+04  0.17174252219E+03 0.  0.
         24    2    3    3    0    0  0.12006537281E+03  0.24672404273E+02 -0.10362534207E+04  0.10462873249E+04  0.76626320414E+02 0.  0.
         -6    2    1    2    0  502 -0.12218652102E+03 -0.52366348852E+02 -0.11296661404E+04  0.11503585598E+04  0.17177731817E+03 0.  0.
        -24    2    5    5    0    0 -0.36671987006E+02 -0.32291676336E+02 -0.25920967106E+03  0.27546869077E+03  0.79408809528E+02 0.  0.
          5    1    3    3  501    0  0.21211482127E+01  0.27693944579E+02 -0.27349238110E+02  0.39262254918E+02  0.47000000000E+01 0. -1.
        -11    1    4    4    0    0  0.28373837370E+02 -0.74709550124E+01 -0.81834693068E+02  0.86935647495E+02  0.00000000000E+00 0.  1.
         12    1    4    4    0    0  0.91691535438E+02  0.32143359286E+02 -0.95441872762E+03  0.95935167736E+03  0.00000000000E+00 0. -1.
         -5    1    5    5    0  502 -0.85514534015E+02 -0.20074672516E+02 -0.87045646931E+03  0.87488986905E+03  0.47000000000E+01 0.  1.
         11    1    6    6    0    0  0.16911520819E+02 -0.13781628130E+02 -0.19875843525E+02  0.29512403599E+02  0.00000000000E+00 0. -1.
        -12    1    6    6    0    0 -0.53583507825E+02 -0.18510048206E+02 -0.23933382754E+03  0.24595628717E+03  0.00000000000E+00 0.  1.
</event>
<event>
12    1  0.8563264E-002  0.2360022E+03  0.7818608E-02  0.1122611E+00
         21   -1    0    0  501  502  0.00000000000E+00  0.00000000000E+00  0.69731448929E+03  0.69731448929E+03  0.00000000000E+00 0.  1.
         21   -1    0    0  502  503 -0.00000000000E+00 -0.00000000000E+00 -0.23937745783E+03  0.23937745783E+03  0.00000000000E+00 0.  1.
         -6    2    1    2    0  503 -0.13640294367E+03  0.85780572771E+02 -0.15351759355E+03  0.28153988942E+03  0.17243256102E+03 0.  0.
        -24    2    3    3    0    0 -0.25260944484E+02 -0.87974758842E-01 -0.92048116897E+02  0.12815625927E+03  0.85516360487E+02 0.  0.
          6    2    1    2  501    0  0.13640294367E+03 -0.85780572771E+02  0.61145462501E+03  0.65515205770E+03  0.17141584105E+03 0.  0.
         24    2    5    5    0    0  0.14303464096E+03 -0.39560211922E+02  0.56295743678E+03  0.58766599669E+03  0.80039547411E+02 0.  0.
          5    1    5    5  501    0 -0.66316972892E+01 -0.46220360849E+02  0.48497188223E+02  0.67486061016E+02  0.47000000000E+01 0. -1.
        -11    1    6    6    0    0  0.13925282171E+03 -0.56913171370E+02  0.51517644365E+03  0.53669099631E+03  0.00000000000E+00 0.  1.
         12    1    6    6    0    0  0.37818192501E+01  0.17352959448E+02  0.47780993135E+02  0.50975000377E+02  0.00000000000E+00 0. -1.
         -5    1    3    3    0  503 -0.11114199919E+03  0.85868547530E+02 -0.61469476649E+02  0.15338363015E+03  0.47000000000E+01 0.  1.
         11    1    4    4    0    0  0.21853508229E+02 -0.20533716169E+02 -0.10479569606E+02  0.31765243597E+02  0.00000000000E+00 0. -1.
        -12    1    4    4    0    0 -0.47114452713E+02  0.20445741410E+02 -0.81568547290E+02  0.96391015677E+02  0.00000000000E+00 0.  1.
</event>
<event>
12    1  0.8563264E-002  0.1964580E+03  0.7818608E-02  0.1153148E+00
         21   -1    0    0  501  502  0.00000000000E+00  0.00000000000E+00  0.10343029488E+03  0.10343029488E+03  0.00000000000E+00 0. -1.
         21   -1    0    0  502  503 -0.00000000000E+00 -0.00000000000E+00 -0.39850915195E+03  0.39850915195E+03  0.00000000000E+00 0. -1.
         -6    2    1    2    0  503 -0.66120319245E+01  0.92604607354E+02 -0.21429372858E+03  0.28952007804E+03  0.17111616292E+03 0.  0.
        -24    2    3    3    0    0 -0.19807553977E+02 -0.96079282719E+01 -0.49404366494E+02  0.95015281264E+02  0.78118248603E+02 0.  0.
          6    2    1    2  501    0  0.66120319245E+01 -0.92604607354E+02 -0.80785128495E+02  0.21241936878E+03  0.17313699483E+03 0.  0.
         24    2    5    5    0    0  0.71176117205E+02 -0.48005030946E+02 -0.48216167171E+02  0.12732841412E+03  0.80729199236E+02 0.  0.
          5    1    5    5  501    0 -0.64564085280E+02 -0.44599576409E+02 -0.32568961323E+02  0.85090954664E+02  0.47000000000E+01 0. -1.
        -13    1    6    6    0    0 -0.12867357626E+02 -0.28917131934E+02 -0.13745772526E+02  0.34506748237E+02  0.00000000000E+00 0.  1.
         14    1    6    6    0    0  0.84043474831E+02 -0.19087899011E+02 -0.34470394646E+02  0.92821665883E+02  0.00000000000E+00 0. -1.
         -5    1    3    3    0  503  0.13195522052E+02  0.10221253563E+03 -0.16488936208E+03  0.19450479678E+03  0.47000000000E+01 0.  1.
         11    1    4    4    0    0 -0.19111799996E+01  0.20294750739E+02 -0.55958170576E+02  0.59555405890E+02  0.00000000000E+00 0. -1.
        -12    1    4    4    0    0 -0.17896373977E+02 -0.29902679011E+02  0.65538040819E+01  0.35459875374E+02  0.00000000000E+00 0.  1.
</event>
<event>
12    1  0.8563264E-002  0.1812443E+03  0.7818608E-02  0.1167462E+00
         21   -1    0    0  503  502  0.00000000000E+00  0.00000000000E+00  0.61232954508E+03  0.61232954508E+03  0.00000000000E+00 0. -1.
         21   -1    0    0  501  503 -0.00000000000E+00 -0.00000000000E+00 -0.64643074843E+02  0.64643074843E+02  0.00000000000E+00 0. -1.
          6    2    1    2  501    0 -0.29153073255E+02 -0.22438590002E+02  0.12997243035E+03  0.22302988078E+03  0.17747141479E+03 0.  0.
         24    2    3    3    0    0 -0.36623492873E+02  0.41024302938E+02  0.12350990030E+03  0.15863112113E+03  0.82975077323E+02 0.  0.
         -6    2    1    2    0  502  0.29153073255E+02  0.22438590002E+02  0.41771403988E+03  0.45394273914E+03  0.17385511009E+03 0.  0.
        -24    2    5    5    0    0 -0.50549482286E+02  0.17163921981E+02  0.19684864199E+03  0.21903013100E+03  0.79843346949E+02 0.  0.
          5    1    3    3  501    0  0.74704196188E+01 -0.63462892940E+02  0.64625300515E+01  0.64398759648E+02  0.47000000000E+01 0. -1.
        -11    1    4    4    0    0  0.97456883049E+01 -0.19576049269E+02  0.39433741511E+02  0.45091242111E+02  0.00000000000E+00 0.  1.
         12    1    4    4    0    0 -0.46369181178E+02  0.60600352207E+02  0.84076158792E+02  0.11353987902E+03  0.00000000000E+00 0. -1.
         -5    1    5    5    0  502  0.79702555541E+02  0.52746680217E+01  0.22086539789E+03  0.23491260815E+03  0.47000000000E+01 0.  1.
         13    1    6    6    0    0 -0.12918471001E+01 -0.30375354802E+01  0.14391984362E+03  0.14395769128E+03  0.00000000000E+00 0. -1.
        -14    1    6    6    0    0 -0.49257635186E+02  0.20201457461E+02  0.52928798372E+02  0.75072439715E+02  0.00000000000E+00 0.  1.
</event>
<event>
12    1  0.8563264E-002  0.1775369E+03  0.7818608E-02  0.1170254E+00
         21   -1    0    0  503  502  0.00000000000E+00  0.00000000000E+00  0.43744056478E+02  0.43744056478E+02  0.00000000000E+00 0. -1.
         21   -1    0    0  501  503 -0.00000000000E+00 -0.00000000000E+00 -0.12069244386E+04  0.12069244386E+04  0.00000000000E+00 0. -1.
          6    2    1    2  501    0  0.43116683310E+02 -0.37776702038E+01 -0.97904908276E+03  0.99501579905E+03  0.17218018100E+03 0.  0.
         24    2    3    3    0    0 -0.30485831158E+02 -0.39295159078E+02 -0.44169460047E+03  0.45146198222E+03  0.79058876008E+02 0.  0.
         -6    2    1    2    0  502 -0.43116683310E+02  0.37776702038E+01 -0.18413129939E+03  0.25565269606E+03  0.17199025093E+03 0.  0.
        -24    2    5    5    0    0  0.31168927655E+01 -0.10228363120E+02 -0.19016951980E+03  0.20674193414E+03  0.80395563549E+02 0.  0.
          5    1    3    3  501    0  0.73602514469E+02  0.35517488874E+02 -0.53735448229E+03  0.54355381683E+03  0.47000000000E+01 0.  1.
        -11    1    4    4    0    0 -0.35142052354E+02 -0.40614304495E+02 -0.14339084854E+03  0.15311897668E+03  0.00000000000E+00 0.  1.
         12    1    4    4    0    0  0.46562211957E+01  0.13191454172E+01 -0.29830375193E+03  0.29834300554E+03  0.00000000000E+00 0. -1.
         -5    1    5    5    0  502 -0.46233576076E+02  0.14006033324E+02  0.60382204058E+01  0.48910761923E+02  0.47000000000E+01 0.  1.
         13    1    6    6    0    0  0.30271990785E+02 -0.21489754157E+02 -0.43648628668E+02  0.57301009977E+02  0.00000000000E+00 0. -1.
        -14    1    6    6    0    0 -0.27155098019E+02  0.11261391037E+02 -0.14652089113E+03  0.14944092416E+03  0.00000000000E+00 0.  1.
</event>
<event>
12    1  0.8563264E-002  0.1926152E+03  0.7818608E-02  0.1156372E+00
         21   -1    0    0  503  502  0.00000000000E+00  0.00000000000E+00  0.59586071571E+03  0.59586071571E+03  0.00000000000E+00 0.  1.
         21   -1    0    0  501  503 -0.00000000000E+00 -0.00000000000E+00 -0.21531729839E+03  0.21531729839E+03  0.00000000000E+00 0.  1.
          6    2    1    2  501    0 -0.82598917299E+02  0.11858427984E+02 -0.15224414472E+03  0.24464186638E+03  0.17236055156E+03 0.  0.
         24    2    3    3    0    0 -0.10036532374E+03 -0.76682965288E+01 -0.16874843186E+03  0.21315504911E+03  0.82625908312E+02 0.  0.
         -6    2    1    2    0  502  0.82598917299E+02 -0.11858427984E+02  0.53278756204E+03  0.56653614772E+03  0.17360131611E+03 0.  0.
        -24    2    5    5    0    0  0.33776416961E+02  0.16933323352E+02  0.11905457507E+03  0.14891230262E+03  0.81075879554E+02 0.  0.
          5    1    3    3  501    0  0.17766406440E+02  0.19526724513E+02  0.16504287141E+02  0.31486817274E+02  0.47000000000E+01 0. -1.
        -13    1    4    4    0    0 -0.43034224566E+02  0.79170404549E+01 -0.11772738361E+02  0.45312485940E+02  0.00000000000E+00 0.  1.
         14    1    4    4    0    0 -0.57331099173E+02 -0.15585336984E+02 -0.15697569350E+03  0.16784256317E+03  0.00000000000E+00 0. -1.
         -5    1    5    5    0  502  0.48822500338E+02 -0.28791751337E+02  0.41373298697E+03  0.41762384510E+03  0.47000000000E+01 0.  1.
         13    1    6    6    0    0 -0.23751619176E+02 -0.94822974773E+01  0.26968261894E+02  0.37166389770E+02  0.00000000000E+00 0. -1.
        -14    1    6    6    0    0  0.57528036137E+02  0.26415620830E+02  0.92086313175E+02  0.11174591285E+03  0.00000000000E+00 0.  1.
</event>
<event>
12    1  0.8563264E-002  0.2152339E+03  0.7818608E-02  0.1137858E+00
         21   -1    0    0  503  502  0.00000000000E+00  0.00000000000E+00  0.10095085074E+04  0.10095085074E+04  0.00000000000E+00 0.  1.
         21   -1    0    0  501  503 -0.00000000000E+00 -0.00000000000E+00 -0.79024568254E+02  0.79024568254E+02  0.00000000000E+00 0. -1.
          6    2    1    2  501    0  0.47129175585E+02  0.11980489086E+03  0.10943976015E+03  0.23974619263E+03  0.17007881912E+03 0.  0.
         24    2    3    3    0    0  0.94937336464E+02  0.10617087823E+03  0.82922910736E+02  0.18320647341E+03  0.80019057311E+02 0.  0.
         -6    2    1    2    0  502 -0.47129175585E+02 -0.11980489086E+03  0.82104417901E+03  0.84878688304E+03  0.17248552945E+03 0.  0.
        -24    2    5    5    0    0 -0.13877535491E+02  0.68093025990E+01  0.23542269825E+03  0.24869402832E+03  0.78650621609E+02 0.  0.
          5    1    3    3  501    0 -0.47808160879E+02  0.13634012632E+02  0.26516849418E+02  0.56539719226E+02  0.47000000000E+01 0. -1.
        -13    1    4    4    0    0  0.82471578618E+02  0.11326784579E+03  0.90683643216E+02  0.16689724179E+03  0.00000000000E+00 0.  1.
         14    1    4    4    0    0  0.12465757846E+02 -0.70969675610E+01 -0.77607324793E+01  0.16309231614E+02  0.00000000000E+00 0. -1.
         -5    1    5    5    0  502 -0.33251640094E+02 -0.12661419346E+03  0.58562148076E+03  0.60009285472E+03  0.47000000000E+01 0.  1.
         11    1    6    6    0    0 -0.34332594794E+02 -0.24754770374E+02  0.11550031679E+03  0.12301158035E+03  0.00000000000E+00 0. -1.
        -12    1    6    6    0    0  0.20455059303E+02  0.31564072973E+02  0.11992238146E+03  0.12568244797E+03  0.00000000000E+00 0.  1.
</event>
<event>
12    1  0.8563264E-002  0.1759696E+03  0.7818608E-02  0.1171949E+00
         21   -1    0    0  501  502  0.00000000000E+00  0.00000000000E+00  0.34801323065E+03  0.34801323065E+03  0.00000000000E+00 0. -1.
         21   -1    0    0  502  503 -0.00000000000E+00 -0.00000000000E+00 -0.21721458109E+03  0.21721458109E+03  0.00000000000E+00 0. -1.
         -6    2    1    2    0  503  0.18081243045E+02 -0.26791901833E+02 -0.15201170760E+03  0.23253572911E+03  0.17297563039E+03 0.  0.
        -24    2    3    3    0    0 -0.52288581889E+02 -0.28802509889E+02 -0.11520863061E+03  0.15295865149E+03  0.80991605293E+02 0.  0.
          6    2    1    2  501    0 -0.18081243045E+02  0.26791901833E+02  0.28281035717E+03  0.33269208263E+03  0.17221378102E+03 0.  0.
         24    2    5    5    0    0  0.45280278237E+02  0.53435907520E+02  0.16834539428E+03  0.19909229541E+03  0.79949174516E+02 0.  0.
          5    1    5    5  501    0 -0.63361521282E+02 -0.26644005687E+02  0.11446496288E+03  0.13359978722E+03  0.47000000000E+01 0. -1.
        -11    1    6    6    0    0  0.40138853217E+02  0.26987033115E+02  0.27389435288E+02  0.55584248303E+02  0.00000000000E+00 0.  1.
         12    1    6    6    0    0  0.51414250195E+01  0.26448874405E+02  0.14095595900E+03  0.14350804711E+03  0.00000000000E+00 0. -1.
         -5    1    3    3    0  503  0.70369824934E+02  0.20106080562E+01 -0.36803076997E+02  0.79577077619E+02  0.47000000000E+01 0.  1.
         13    1    4    4    0    0 -0.43084489074E+02  0.12822427732E+02 -0.21127109370E+02  0.49669332612E+02  0.00000000000E+00 0. -1.
        -14    1    4    4    0    0 -0.92040928142E+01 -0.41624937621E+02 -0.94081521236E+02  0.10328931888E+03  0.00000000000E+00 0.  1.
</event>
<event>
12    1  0.8563264E-002  0.2388901E+03  0.7818608E-02  0.1120609E+00
         21   -1    0    0  503  502  0.00000000000E+00  0.00000000000E+00  0.58677198300E+03  0.58677198300E+03  0.00000000000E+00 0.  1.
         21   -1    0    0  501  503 -0.00000000000E+00 -0.00000000000E+00 -0.36818845537E+03  0.36818845537E+03  0.00000000000E+00 0. -1.
          6    2    1    2  501    0 -0.16117948553E+03  0.34996897350E+02 -0.30046067441E+03  0.38358022074E+03  0.17220208912E+03 0.  0.
         24    2    3    3    0    0 -0.55813299685E+02 -0.43854328781E+02 -0.13595719998E+03  0.17285995100E+03  0.79736289459E+02 0.  0.
         -6    2    1    2    0  502  0.16117948553E+03 -0.34996897350E+02  0.51904420205E+03  0.57138021763E+03  0.17281452497E+03 0.  0.
        -24    2    5    5    0    0  0.65853264983E+02 -0.44773832792E+02  0.13867465965E+03  0.17909746811E+03  0.80646718727E+02 0.  0.
          5    1    3    3  501    0 -0.10536618585E+03  0.78851226132E+02 -0.16450347443E+03  0.21072026975E+03  0.47000000000E+01 0. -1.
        -11    1    4    4    0    0 -0.64877372953E+02 -0.28350322512E+02 -0.54232079536E+02  0.89184823588E+02  0.00000000000E+00 0.  1.
         12    1    4    4    0    0  0.90640732679E+01 -0.15504006270E+02 -0.81725120446E+02  0.83675127407E+02  0.00000000000E+00 0. -1.
         -5    1    5    5    0  502  0.95326220547E+02  0.97769354412E+01  0.38036954239E+03  0.39228274952E+03  0.47000000000E+01 0.  1.
         13    1    6    6    0    0  0.71990344085E+02 -0.67251338034E+01  0.71709504647E+02  0.10183363945E+03  0.00000000000E+00 0. -1.
        -14    1    6    6    0    0 -0.61370791023E+01 -0.38048698988E+02  0.66965155008E+02  0.77263828664E+02  0.00000000000E+00 0.  1.
</event>
<event>
12    1  0.8563264E-002  0.2023676E+03  0.7818608E-02  0.1147998E+00
         21   -1    0    0  503  502  0.00000000000E+00  0.00000000000E+00  0.51733874952E+03  0.51733874952E+03  0.00000000000E+00 0. -1.
         21   -1    0    0  501  503 -0.00000000000E+00 -0.00000000000E+00 -0.21227147352E+03  0.21227147352E+03  0.00000000000E+00 0. -1.
          6    2    1    2  501    0 -0.12117734846E+01  0.10563767821E+03 -0.13700148862E+03  0.24342359859E+03  0.17124500873E+03 0.  0.
         24    2    3    3    0    0  0.50313977434E+02  0.18138326516E+02 -0.91870939949E+02  0.13220356452E+03  0.78594005189E+02 0.  0.
         -6    2    1    2    0  502  0.12117734846E+01 -0.10563767821E+03  0.44206876461E+03  0.48618662446E+03  0.17260316829E+03 0.  0.
        -24    2    5    5    0    0 -0.63830202647E+02 -0.65588814474E+02  0.21836891966E+03  0.24975887487E+03  0.79487880502E+02 0.  0.
          5    1    3    3  501    0 -0.51525750918E+02  0.87499351691E+02 -0.45130548668E+02  0.11122003406E+03  0.47000000000E+01 0. -1.
        -11    1    4    4    0    0  0.31074193395E+02  0.33754919460E+02 -0.10395610443E+02  0.47043265187E+02  0.00000000000E+00 0.  1.
         12    1    4    4    0    0  0.19239784038E+02 -0.15616592945E+02 -0.81475329506E+02  0.85160299337E+02  0.00000000000E+00 0. -1.
         -5    1    5    5    0  502  0.65041976132E+02 -0.40048863732E+02  0.22369984495E+03  0.23642774959E+03  0.47000000000E+01 0.  1.
         11    1    6    6    0    0 -0.33879575460E+02 -0.74811951821E+01  0.15456317810E+03  0.15840950079E+03  0.00000000000E+00 0. -1.
        -12    1    6    6    0    0 -0.29950627187E+02 -0.58107619292E+02  0.63805741556E+02  0.91349374077E+02  0.00000000000E+00 0.  1.
</event>
<event>
12    1  0.8563264E-002  0.1981443E+03  0.7818608E-02  0.1151633E+00
         21   -1    0    0  501  502  0.00000000000E+00  0.00000000000E+00  0.13128639954E+03  0.13128639954E+03  0.00000000000E+00 0.  1.
         21   -1    0    0  502  503 -0.00000000000E+00 -0.00000000000E+00 -0.41464992001E+03  0.41464992001E+03  0.00000000000E+00 0.  1.
         -6    2    1    2    0  503  0.89692733205E+02 -0.35965103730E+02 -0.28757973911E+03  0.34923239374E+03  0.17298232110E+03 0.  0.
        -24    2    3    3    0    0 -0.18313707175E+02  0.18595439971E+01 -0.13741335201E+03  0.16037231602E+03  0.80610177159E+02 0.  0.
          6    2    1    2  501    0 -0.89692733205E+02  0.35965103730E+02  0.42162186482E+01  0.19670392581E+03  0.17127867017E+03 0.  0.
         24    2    5    5    0    0 -0.40637420329E+02  0.82526455040E+02  0.27789272714E+02  0.12492536331E+03  0.79825353164E+02 0.  0.
          5    1    5    5  501    0 -0.49055312876E+02 -0.46561351309E+02 -0.23573054066E+02  0.71778562504E+02  0.47000000000E+01 0. -1.
        -13    1    6    6    0    0 -0.18446968884E+02 -0.11967934794E+02  0.15898991139E+02  0.27134849244E+02  0.00000000000E+00 0.  1.
         14    1    6    6    0    0 -0.22190451445E+02  0.94494389834E+02  0.11890281575E+02  0.97790514066E+02  0.00000000000E+00 0. -1.
         -5    1    3    3    0  503  0.10800644038E+03 -0.37824647728E+02 -0.15016638710E+03  0.18886007772E+03  0.47000000000E+01 0.  1.
         11    1    4    4    0    0 -0.29770197684E+02 -0.33351325636E+02 -0.62932170651E+02  0.77194777639E+02  0.00000000000E+00 0. -1.
        -12    1    4    4    0    0  0.11456490509E+02  0.35210869633E+02 -0.74481181356E+02  0.83177538382E+02  0.00000000000E+00 0.  1.
</event>
<event>
12    1  0.8563264E-002  0.2340099E+03  0.7818608E-02  0.1124026E+00
         21   -1    0    0  501  502  0.00000000000E+00  0.00000000000E+00  0.38900073607E+02  0.38900073607E+02  0.00000000000E+00 0. -1.
         21   -1    0    0  502  503 -0.00000000000E+00 -0.00000000000E+00 -0.18194051182E+04  0.18194051182E+04  0.00000000000E+00 0. -1.
         -6    2    1    2    0  503  0.14319572605E+03  0.67776980434E+02 -0.13340217558E+04  0.13542139582E+04  0.17082934411E+03 0.  0.
        -24    2    3    3    0    0  0.99742916976E+02  0.75647949895E+02 -0.12537599958E+04  0.12624853428E+04  0.79270750832E+02 0.  0.
          6    2    1    2  501    0 -0.14319572605E+03 -0.67776980434E+02 -0.44648328885E+03  0.50409123358E+03  0.17222633226E+03 0.  0.
         24    2    5    5    0    0 -0.65377260204E+02 -0.37002826707E+02 -0.38457730244E+03  0.39989332902E+03  0.79822162972E+02 0.  0.
          5    1    5    5  501    0 -0.77818465842E+02 -0.30774153727E+02 -0.61905986402E+02  0.10419790457E+03  0.47000000000E+01 0. -1.
        -13    1    6    6    0    0 -0.65865203983E+02 -0.51799748214E+00 -0.30934238069E+03  0.31627709672E+03  0.00000000000E+00 0.  1.
         14    1    6    6    0    0  0.48794377905E+00 -0.36484829225E+02 -0.75234921755E+02  0.83616232301E+02  0.00000000000E+00 0. -1.
         -5    1    3    3    0  503  0.43452809070E+02 -0.78709694611E+01 -0.80261759985E+02  0.91728615449E+02  0.47000000000E+01 0.  1.
         11    1    4    4    0    0  0.10110078180E+03  0.77590602936E+02 -0.92727792584E+03  0.93599466959E+03  0.00000000000E+00 0. -1.
        -12    1    4    4    0    0 -0.13578648287E+01 -0.19426530413E+01 -0.32648206994E+03  0.32649067321E+03  0.00000000000E+00 0.  1.
</event>
<event>
12    1  0.8563264E-002  0.1819407E+03  0.7818608E-02  0.1165940E+00
         21   -1    0    0  503  502  0.00000000000E+00  0.00000000000E+00  0.18306511312E+03  0.18306511312E+03  0.00000000000E+00 0. -1.
         21   -1    0    0  501  503 -0.00000000000E+00 -0.00000000000E+00 -0.31537228223E+03  0.31537228223E+03  0.00000000000E+00 0.  1.
          6    2    1    2  501    0  0.58166491568E+02 -0.78887337146E+01 -0.22894091053E+03  0.29242647080E+03  0.17220257678E+03 0.  0.
         24    2    3    3    0    0  0.72423347402E+01 -0.46478793086E+02 -0.53049694187E+02  0.10523065777E+03  0.77759190208E+02 0.  0.
         -6    2    1    2    0  502 -0.58166491568E+02  0.78887337146E+01  0.96633741420E+02  0.20601092454E+03  0.17221163779E+03 0.  0.
        -24    2    5    5    0    0 -0.36272871756E+02  0.39092771264E+02 -0.64317669374E+01  0.96021781620E+02  0.79591764203E+02 0.  0.
          5    1    3    3  501    0  0.50924156828E+02  0.38590059371E+02 -0.17589121635E+03  0.18719581304E+03  0.47000000000E+01 0. -1.
        -11    1    4    4    0    0 -0.50482897962E+01 -0.48156898551E+02 -0.69452564089E+02  0.84665404779E+02  0.00000000000E+00 0.  1.
         12    1    4    4    0    0  0.12290624536E+02  0.16781054653E+01  0.16402869902E+02  0.20565252988E+02  0.00000000000E+00 0. -1.
         -5    1    5    5    0  502 -0.21893619812E+02 -0.31204037549E+02  0.10306550836E+03  0.10998914292E+03  0.47000000000E+01 0.  1.
         13    1    6    6    0    0 -0.58256719757E+02  0.98226757826E+01 -0.63114552244E+01  0.59415190174E+02  0.00000000000E+00 0. -1.
        -14    1    6    6    0    0  0.21983848000E+02  0.29270095481E+02 -0.12031171300E+00  0.36606591446E+02  0.00000000000E+00 0.  1.
</event>
<event>
12    1  0.8563264E-002  0.3728458E+03  0.7818608E-02  0.1053936E+00
         21   -1    0    0  503  502  0.00000000000E+00  0.00000000000E+00  0.97286884998E+03  0.97286884998E+03  0.00000000000E+00 0. -1.
         21   -1    0    0  501  503 -0.00000000000E+00 -0.00000000000E+00 -0.46737740982E+03  0.46737740982E+03  0.00000000000E+00 0.  1.
          6    2    1    2  501    0 -0.28142849858E+03 -0.16873864218E+03 -0.34813529655E+03  0.51010998837E+03  0.17702905510E+03 0.  0.
         24    2    3    3    0    0 -0.26577757859E+03 -0.10626544737E+03 -0.23299217159E+03  0.37809528998E+03  0.82101337936E+02 0.  0.
         -6    2    1    2    0  502  0.28142849858E+03  0.16873864218E+03  0.85362673671E+03  0.93013627144E+03  0.16970606544E+03 0.  0.
        -24    2    5    5    0    0  0.24992312172E+03  0.78326807358E+02  0.66417756114E+03  0.71781583255E+03  0.74371239151E+02 0.  0.
          5    1    3    3  501    0 -0.15650919984E+02 -0.62473194814E+02 -0.11514312495E+03  0.13201469839E+03  0.47000000000E+01 0. -1.
        -13    1    4    4    0    0 -0.13285202106E+03 -0.18086962979E+02 -0.13815221201E+03  0.19251709382E+03  0.00000000000E+00 0.  1.
         14    1    4    4    0    0 -0.13292555754E+03 -0.88178484391E+02 -0.94839959585E+02  0.18557819616E+03  0.00000000000E+00 0. -1.
         -5    1    5    5    0  502  0.31505376857E+02  0.90411834827E+02  0.18944917557E+03  0.21232043889E+03  0.47000000000E+01 0.  1.
         13    1    6    6    0    0  0.16016318637E+03  0.54394223030E+02  0.51512090095E+03  0.54218126154E+03  0.00000000000E+00 0. -1.
        -14    1    6    6    0    0  0.89759935352E+02  0.23932584328E+02  0.14905666019E+03  0.17563457101E+03  0.00000000000E+00 0.  1.
</event>
<event>
12    1  0.8563264E-002  0.1783946E+03  0.7818608E-02  0.1170144E+00
         21   -1    0    0  503  502  0.00000000000E+00  0.00000000000E+00  0.59377938838E+03  0.59377938838E+03  0.00000000000E+00 0. -1.
         21   -1    0    0  501  503 -0.00000000000E+00 -0.00000000000E+00 -0.62859647797E+02  0.62859647797E+02  0.00000000000E+00 0. -1.
          6    2    1    2  501    0  0.32738311339E+02  0.30536461511E+02  0.39575915768E+03  0.43282434863E+03  0.16943238585E+03 0.  0.
         24    2    3    3    0    0 -0.40144010180E+02 -0.89983335465E+01  0.16236980461E+03  0.18509967701E+03  0.78774522641E+02 0.  0.
         -6    2    1    2    0  502 -0.32738311339E+02 -0.30536461511E+02  0.13516058290E+03  0.22381468754E+03  0.17268572227E+03 0.  0.
        -24    2    5    5    0    0 -0.48327141979E+02 -0.23079220770E+02  0.16433288754E+03  0.18958406619E+03  0.77901586264E+02 0.  0.
          5    1    3    3  501    0  0.72882321519E+02  0.39534795057E+02  0.23338935306E+03  0.24772467163E+03  0.47000000000E+01 0. -1.
        -11    1    4    4    0    0 -0.12979200041E+02 -0.29536116100E+02  0.18365040971E+02  0.37122991768E+02  0.00000000000E+00 0.  1.
         12    1    4    4    0    0 -0.27164810138E+02  0.20537782553E+02  0.14400476364E+03  0.14797668524E+03  0.00000000000E+00 0. -1.
         -5    1    5    5    0  502  0.15588830640E+02 -0.74572407413E+01 -0.29172304637E+02  0.34230621351E+02  0.47000000000E+01 0.  1.
         13    1    6    6    0    0  0.97510388450E+01 -0.26007236036E+02  0.20743933834E+02  0.34666552694E+02  0.00000000000E+00 0. -1.
        -14    1    6    6    0    0 -0.58078180824E+02  0.29280152660E+01  0.14358895371E+03  0.15491751350E+03  0.00000000000E+00 0.  1.
</event>
<event>
12    1  0.8563264E-002  0.2545738E+03  0.7818608E-02  0.1110451E+00
         21   -1    0    0  501  502  0.00000000000E+00  0.00000000000E+00  0.16688562137E+03  0.16688562137E+03  0.00000000000E+00 0. -1.
         21   -1    0    0  502  503 -0.00000000000E+00 -0.00000000000E+00 -0.41658338281E+03  0.41658338281E+03  0.00000000000E+00 0. -1.
         -6    2    1    2    0  503 -0.15552871530E+03  0.10551319757E+03 -0.48832756760E+02  0.25919352946E+03  0.17168119127E+03 0.  0.
        -24    2    3    3    0    0 -0.13679280379E+03  0.10395434265E+03  0.17276230185E+02  0.19030265515E+03  0.79986598261E+02 0.  0.
          6    2    1    2  501    0  0.15552871530E+03 -0.10551319757E+03 -0.20086500468E+03  0.32427547472E+03  0.17171376547E+03 0.  0.
         24    2    5    5    0    0  0.87983980292E+01 -0.64023129267E+02 -0.66551803823E+02  0.12101864777E+03  0.77717421646E+02 0.  0.
          5    1    5    5  501    0  0.14673031727E+03 -0.41490068303E+02 -0.13431320086E+03  0.20325682695E+03  0.47000000000E+01 0. -1.
        -11    1    6    6    0    0 -0.25831627944E+02 -0.66614302040E+01 -0.13849681847E+00  0.26677084473E+02  0.00000000000E+00 0.  1.
         12    1    6    6    0    0  0.34630025974E+02 -0.57361699063E+02 -0.66413307004E+02  0.94341563298E+02  0.00000000000E+00 0. -1.
         -5    1    3    3    0  503 -0.18735911514E+02  0.15588549162E+01 -0.66108986945E+02  0.68890874315E+02  0.47000000000E+01 0.  1.
         11    1    4    4    0    0  0.43749652514E+01 -0.17324792783E+00  0.14199627211E+02  0.14859332042E+02  0.00000000000E+00 0. -1.
        -12    1    4    4    0    0 -0.14116776904E+03  0.10412759058E+03  0.30766029744E+01  0.17544332310E+03  0.00000000000E+00 0.  1.
</event>
<event>
12    1  0.8563264E-002  0.1838354E+03  0.7818608E-02  0.1164829E+00
         21   -1    0    0  501  502  0.00000000000E+00  0.00000000000E+00  0.21124304065E+03  0.21124304065E+03  0.00000000000E+00 0.  1.
         21   -1    0    0  502  503 -0.00000000000E+00 -0.00000000000E+00 -0.17077224870E+03  0.17077224870E+03  0.00000000000E+00 0.  1.
         -6    2    1    2    0  503 -0.20412321796E+02  0.61783186650E+02 -0.33210435891E+02  0.18396384190E+03  0.16883701325E+03 0.  0.
        -24    2    3    3    0    0 -0.58132014552E+02  0.41576287389E+01  0.22213996966E+02  0.95434536566E+02  0.72233455654E+02 0.  0.
          6    2    1    2  501    0  0.20412321796E+02 -0.61783186650E+02  0.73681227833E+02  0.19805144744E+03  0.17193495126E+03 0.  0.
         24    2    5    5    0    0  0.71535525173E+02 -0.42418245372E+02  0.56636259037E+02  0.14059534389E+03  0.98197484613E+02 0.  0.
          5    1    5    5  501    0 -0.51123203377E+02 -0.19364941278E+02  0.17044968796E+02  0.57456103553E+02  0.47000000000E+01 0. -1.
        -13    1    6    6    0    0  0.48927220164E+02 -0.64176289189E+02  0.69675088658E+02  0.10661654162E+03  0.00000000000E+00 0.  1.
         14    1    6    6    0    0  0.22608305008E+02  0.21758043817E+02 -0.13038829622E+02  0.33978802274E+02  0.00000000000E+00 0. -1.
         -5    1    3    3    0  503  0.37719692756E+02  0.57625557911E+02 -0.55424432857E+02  0.88529305338E+02  0.47000000000E+01 0.  1.
         13    1    4    4    0    0 -0.61905319402E+02 -0.19831039120E+01 -0.97219179676E+01  0.62695430139E+02  0.00000000000E+00 0. -1.
        -14    1    4    4    0    0  0.37733048502E+01  0.61407326509E+01  0.31935914933E+02  0.32739106427E+02  0.00000000000E+00 0.  1.
</event>
<event>
12    1  0.8563264E-002  0.1902652E+03  0.7818608E-02  0.1158425E+00
         21   -1    0    0  503  502  0.00000000000E+00  0.00000000000E+00  0.24984449718E+03  0.24984449718E+03  0.00000000000E+00 0.  1.
         21   -1    0    0  501  503 -0.00000000000E+00 -0.00000000000E+00 -0.28334820946E+03  0.28334820946E+03  0.00000000000E+00 0. -1.
          6    2    1    2  501    0 -0.55916248224E+02  0.58375231839E+02 -0.20358777118E+03  0.27865541678E+03  0.17223985084E+03 0.  0.
         24    2    3    3    0    0 -0.45957748770E+02 -0.31815021610E+02 -0.80722997875E+02  0.12584410814E+03  0.78716115849E+02 0.  0.
         -6    2    1    2    0  502  0.55916248224E+02 -0.58375231839E+02  0.17008405891E+03  0.25453728986E+03  0.17124938052E+03 0.  0.
        -24    2    5    5    0    0  0.37287601722E+02 -0.99849755351E+02  0.17179141289E+03  0.20879707092E+03  0.52188010078E+02 0.  0.
          5    1    3    3  501    0 -0.99584994540E+01  0.90190253449E+02 -0.12286477331E+03  0.15281130864E+03  0.47000000000E+01 0. -1.
        -11    1    4    4    0    0 -0.45672415535E+02  0.91335451407E+01 -0.15987568533E+02  0.49244223370E+02  0.00000000000E+00 0.  1.
         12    1    4    4    0    0 -0.28533323490E+00 -0.40948566751E+02 -0.64735429342E+02  0.76599884766E+02  0.00000000000E+00 0. -1.
         -5    1    5    5    0  502  0.18628646503E+02  0.41474523512E+02 -0.17073539846E+01  0.45740218940E+02  0.47000000000E+01 0.  1.
         13    1    6    6    0    0  0.40794255449E+02 -0.35155215551E+02  0.80470201881E+02  0.96827237123E+02  0.00000000000E+00 0. -1.
        -14    1    6    6    0    0 -0.35066537270E+01 -0.64694539799E+02  0.91321211010E+02  0.11196983380E+03  0.00000000000E+00 0.  1.
</event>
<event>
12    1  0.8563264E-002  0.2226272E+03  0.7818608E-02  0.1132205E+00
         21   -1    0    0  501  502  0.00000000000E+00  0.00000000000E+00  0.14426069011E+04  0.14426069011E+04  0.00000000000E+00 0.  1.
         21   -1    0    0  502  503 -0.00000000000E+00 -0.00000000000E+00 -0.34136505522E+02  0.34136505522E+02  0.00000000000E+00 0.  1.
         -6    2    1    2    0  503 -0.10055213491E+03  0.99278247037E+02  0.71206840706E+03  0.74605917876E+03  0.17203482121E+03 0.  0.
        -24    2    3    3    0    0 -0.21690723123E+02 -0.11301389883E+02  0.22860261674E+03  0.24385579488E+03  0.81291349066E+02 0.  0.
          6    2    1    2  501    0  0.10055213491E+03 -0.99278247037E+02  0.69640198849E+03  0.73068422783E+03  0.17016700344E+03 0.  0.
         24    2    5    5    0    0  0.86476970331E+02 -0.12439825014E+03  0.66905720452E+03  0.69069732967E+03  0.80449159520E+02 0.  0.
          5    1    5    5  501    0  0.14075164582E+02  0.25120003102E+02  0.27344783971E+02  0.39986898157E+02  0.47000000000E+01 0. -1.
        -11    1    6    6    0    0  0.71120759230E+02 -0.93040705660E+02  0.61699599778E+03  0.62801178060E+03  0.00000000000E+00 0.  1.
         12    1    6    6    0    0  0.15356211101E+02 -0.31357544479E+02  0.52061206740E+02  0.62685549072E+02  0.00000000000E+00 0. -1.
         -5    1    3    3    0  503 -0.78861411790E+02  0.11057963692E+03  0.48346579032E+03  0.50220338388E+03  0.47000000000E+01 0.  1.
         11    1    4    4    0    0  0.20000318782E+02  0.11945689869E+02  0.22825260149E+02  0.32614486945E+02  0.00000000000E+00 0. -1.
        -12    1    4    4    0    0 -0.41691041905E+02 -0.23247079751E+02  0.20577735659E+03  0.21124130793E+03  0.00000000000E+00 0.  1.
</event>
<event>
12    1  0.8563264E-002  0.1725285E+03  0.7818608E-02  0.1175262E+00
         21   -1    0    0  501  502  0.00000000000E+00  0.00000000000E+00  0.10425868672E+04  0.10425868672E+04  0.00000000000E+00 0.  1.
         21   -1    0    0  502  503 -0.00000000000E+00 -0.00000000000E+00 -0.47528430751E+02  0.47528430751E+02  0.00000000000E+00 0.  1.
         -6    2    1    2    0  503 -0.53898657739E+01  0.11367090698E+02  0.15304284499E+03  0.23062567356E+03  0.17206925205E+03 0.  0.
        -24    2    3    3    0    0  0.20751716453E+00 -0.22105781565E+02  0.71938284073E+01  0.80806484171E+02  0.77390103210E+02 0.  0.
          6    2    1    2  501    0  0.53898657739E+01 -0.11367090698E+02  0.84201559148E+03  0.85948962441E+03  0.17197062761E+03 0.  0.
         24    2    5    5    0    0  0.59681004806E+01 -0.71494123055E+02  0.63345148213E+03  0.64237980868E+03  0.79019051704E+02 0.  0.
          5    1    5    5  501    0 -0.57823470668E+00  0.60127032357E+02  0.20856410935E+03  0.21710981573E+03  0.47000000000E+01 0. -1.
        -11    1    6    6    0    0  0.16820793361E+02  0.63164499387E+01  0.26686906257E+03  0.26747323826E+03  0.00000000000E+00 0.  1.
         12    1    6    6    0    0 -0.10852692881E+02 -0.77810572994E+02  0.36658241956E+03  0.37490657042E+03  0.00000000000E+00 0. -1.
         -5    1    3    3    0  503 -0.55973829385E+01  0.33472872263E+02  0.14584901658E+03  0.14981918939E+03  0.47000000000E+01 0.  1.
         13    1    4    4    0    0  0.29280800776E+02 -0.17763075232E+02  0.28456230600E+02  0.44526949096E+02  0.00000000000E+00 0. -1.
        -14    1    4    4    0    0 -0.29073283611E+02 -0.43427063332E+01 -0.21262402193E+02  0.36279535075E+02  0.00000000000E+00 0.  1.
</event>
<event>
12    1  0.8563264E-002  0.1833932E+03  0.7818608E-02  0.1165197E+00
         21   -1    0    0  503  502  0.00000000000E+00  0.00000000000E+00  0.12813050414E+03  0.12813050414E+03  0.00000000000E+00 0. -1.
         21   -1    0    0  501  503 -0.00000000000E+00 -0.00000000000E+00 -0.62425612873E+03  0.62425612873E+03  0.00000000000E+00 0.  1.
          6    2    1    2  501    0 -0.62929578710E+02  0.18315632203E+01 -0.53519289659E+03  0.56487848819E+03  0.16938944287E+03 0.  0.
         24    2    3    3    0    0 -0.10022956813E+03 -0.24895867799E+02 -0.33926345706E+03  0.36359242297E+03  0.80212132371E+02 0.  0.
         -6    2    1    2    0  502  0.62929578710E+02 -0.18315632203E+01  0.39067272002E+02  0.18750814468E+03  0.17224855901E+03 0.  0.
        -24    2    5    5    0    0 -0.91988992063E+01  0.25768558139E+02  0.65098781593E+02  0.10587473536E+03  0.78885802831E+02 0.  0.
          5    1    3    3  501    0  0.37299989417E+02  0.26727431019E+02 -0.19592943953E+03  0.20128606522E+03  0.47000000000E+01 0. -1.
        -13    1    4    4    0    0  0.73036685904E+01 -0.21854599780E+02 -0.66673573945E+02  0.70543125597E+02  0.00000000000E+00 0.  1.
         14    1    4    4    0    0 -0.10753323672E+03 -0.30412680189E+01 -0.27258988312E+03  0.29304929737E+03  0.00000000000E+00 0. -1.
         -5    1    5    5    0  502  0.72128477917E+02 -0.27600121359E+02 -0.26031509591E+02  0.81633409320E+02  0.47000000000E+01 0.  1.
         11    1    6    6    0    0  0.32578057726E+02 -0.15319272180E+01  0.33782134616E+02  0.46956461381E+02  0.00000000000E+00 0. -1.
        -12    1    6    6    0    0 -0.41776956932E+02  0.27300485357E+02  0.31316646977E+02  0.58918273982E+02  0.00000000000E+00 0.  1.
</event>
<event>
12    1  0.8563264E-002  0.3152672E+03  0.7818608E-02  0.1078006E+00
         21   -1    0    0  501  502  0.00000000000E+00  0.00000000000E+00  0.15522475494E+03  0.15522475494E+03  0.00000000000E+00 0.  1.
         21   -1    0    0  502  503 -0.00000000000E+00 -0.00000000000E+00 -0.69672865723E+03  0.69672865723E+03  0.00000000000E+00 0. -1.
         -6    2    1    2    0  503  0.26213654272E+02 -0.26264992994E+03 -0.14718707786E+03  0.34793313162E+03  0.17239862766E+03 0.  0.
        -24    2    3    3    0    0 -0.53189879522E+02 -0.12799691127E+03 -0.76130558654E+02  0.17615573049E+03  0.77605456281E+02 0.  0.
          6    2    1    2  501    0 -0.26213654272E+02  0.26264992994E+03 -0.39431682442E+03  0.50402028055E+03  0.16993688184E+03 0.  0.
         24    2    5    5    0    0  0.33963895613E+02  0.19539388440E+03 -0.32938069406E+03  0.39273908627E+03  0.80125102189E+02 0.  0.
          5    1    5    5  501    0 -0.60177549885E+02  0.67256045543E+02 -0.64936130363E+02  0.11128119427E+03  0.47000000000E+01 0. -1.
        -13    1    6    6    0    0  0.25912171948E+02  0.18423577730E+03 -0.33014385809E+03  0.37895808386E+03  0.00000000000E+00 0.  1.
         14    1    6    6    0    0  0.80517236651E+01  0.11158107103E+02  0.76316402820E+00  0.13781002411E+02  0.00000000000E+00 0. -1.
         -5    1    3    3    0  503  0.79403533795E+02 -0.13465301867E+03 -0.71056519209E+02  0.17177740113E+03  0.47000000000E+01 0.  1.
         13    1    4    4    0    0  0.70828326901E+01 -0.40668559458E+01  0.10557753334E+02  0.13348108168E+02  0.00000000000E+00 0. -1.
        -14    1    4    4    0    0 -0.60272712212E+02 -0.12393005533E+03 -0.86688311989E+02  0.16280762232E+03  0.00000000000E+00 0.  1.
</event>
<event>
12    1  0.8563264E-002  0.1946557E+03  0.7818608E-02  0.1154983E+00
         21   -1    0    0  503  502  0.00000000000E+00  0.00000000000E+00  0.59190091236E+03  0.59190091236E+03  0.00000000000E+00 0.  1.
         21   -1    0    0  501  503 -0.00000000000E+00 -0.00000000000E+00 -0.77236546015E+02  0.77236546015E+02  0.00000000000E+00 0.  1.
          6    2    1    2  501    0 -0.87746486883E+02 -0.18681621996E+02  0.11228350800E+03  0.22214619506E+03  0.16938977789E+03 0.  0.
         24    2    3    3    0    0 -0.63057680475E+02  0.22901256339E+02  0.13300671258E+03  0.16932371746E+03  0.80492217590E+02 0.  0.
         -6    2    1    2    0  502  0.87746486883E+02  0.18681621996E+02  0.40238085835E+03  0.44699126331E+03  0.17274948727E+03 0.  0.
        -24    2    5    5    0    0  0.63982492613E+02 -0.45091076769E+02  0.32508068724E+03  0.34389378039E+03  0.80364882932E+02 0.  0.
          5    1    3    3  501    0 -0.24688806408E+02 -0.41582878335E+02 -0.20723204585E+02  0.52822477609E+02  0.47000000000E+01 0. -1.
        -11    1    4    4    0    0 -0.58480089717E+02 -0.88249531586E+01  0.12174175522E+03  0.13534716715E+03  0.00000000000E+00 0.  1.
         12    1    4    4    0    0 -0.45775907583E+01  0.31726209497E+02  0.11264957359E+02  0.33976550303E+02  0.00000000000E+00 0. -1.
         -5    1    5    5    0  502  0.23763994270E+02  0.63772698766E+02  0.77300171109E+02  0.10309748292E+03  0.47000000000E+01 0.  1.
         11    1    6    6    0    0 -0.82403060950E+01 -0.21576753917E+02  0.23714418641E+02  0.33103362451E+02  0.00000000000E+00 0. -1.
        -12    1    6    6    0    0  0.72222798708E+02 -0.23514322853E+02  0.30136626860E+03  0.31079041793E+03  0.00000000000E+00 0.  1.
</event>
<event>
12    1  0.8563264E-002  0.1805044E+03  0.7818608E-02  0.1170047E+00
         21   -1    0    0  501  502  0.00000000000E+00  0.00000000000E+00  0.30071367175E+03  0.30071367175E+03  0.00000000000E+00 0.  1.
         21   -1    0    0  502  503 -0.00000000000E+00 -0.00000000000E+00 -0.15470679967E+03  0.15470679967E+03  0.00000000000E+00 0.  1.
         -6    2    1    2    0  503 -0.53304653985E+02 -0.29848174878E+02 -0.58521275050E+02  0.18975402088E+03  0.16985155027E+03 0.  0.
        -24    2    3    3    0    0 -0.31773901733E+02  0.47145027676E+02 -0.18692355583E+02  0.10031152898E+03  0.80503193869E+02 0.  0.
          6    2    1    2  501    0  0.53304653985E+02  0.29848174878E+02  0.20452814713E+03  0.26566645053E+03  0.15816004645E+03 0.  0.
         24    2    5    5    0    0  0.61476051381E+02  0.55713728115E+02  0.20859994760E+03  0.23783718287E+03  0.78544656241E+02 0.  0.
          5    1    5    5  501    0 -0.81713973957E+01 -0.25865553236E+02 -0.40718004728E+01  0.27829267664E+02  0.47000000000E+01 0. -1.
        -13    1    6    6    0    0 -0.13259663249E+02  0.20818941494E+02  0.90366059992E+02  0.93676420688E+02  0.00000000000E+00 0.  1.
         14    1    6    6    0    0  0.74735714630E+02  0.34894786621E+02  0.11823388761E+03  0.14416076218E+03  0.00000000000E+00 0. -1.
         -5    1    3    3    0  503 -0.21530752252E+02 -0.76993202554E+02 -0.39828919467E+02  0.89442491904E+02  0.47000000000E+01 0.  1.
         13    1    4    4    0    0  0.63447253811E+01  0.42535681610E+01  0.26304315755E+02  0.27390973141E+02  0.00000000000E+00 0. -1.
        -14    1    4    4    0    0 -0.38118627114E+02  0.42891459515E+02 -0.44996671338E+02  0.72920555839E+02  0.00000000000E+00 0.  1.
</event>
<event>
12    1  0.8563264E-002  0.1824213E+03  0.7818608E-02  0.1165767E+00
         21   -1    0    0  501  502  0.00000000000E+00  0.00000000000E+00  0.22088789092E+03  0.22088789092E+03  0.00000000000E+00 0. -1.
         21   -1    0    0  502  503 -0.00000000000E+00 -0.00000000000E+00 -0.55906525437E+03  0.55906525437E+03  0.00000000000E+00 0. -1.
         -6    2    1    2    0  503  0.46142526583E+02  0.36701402871E+02 -0.50295820056E+03  0.53501821128E+03  0.17263084648E+03 0.  0.
        -24    2    3    3    0    0  0.49241153899E+01  0.80360599452E+02 -0.25784576038E+03  0.28261519783E+03  0.83095373166E+02 0.  0.
          6    2    1    2  501    0 -0.46142526583E+02 -0.36701402871E+02  0.16478083711E+03  0.24493493401E+03  0.17136006503E+03 0.  0.
         24    2    5    5    0    0 -0.39018972194E+02 -0.10999057362E+02  0.11989925190E+02  0.89762422406E+02  0.79183803370E+02 0.  0.
          5    1    5    5  501    0 -0.71235543885E+01 -0.25702345509E+02  0.15279091192E+03  0.15517251160E+03  0.47000000000E+01 0. -1.
        -13    1    6    6    0    0  0.23969064136E+02 -0.25264766526E+01 -0.34790998041E+01  0.24351658163E+02  0.00000000000E+00 0.  1.
         14    1    6    6    0    0 -0.62988036330E+02 -0.84725807096E+01  0.15469024995E+02  0.65410764243E+02  0.00000000000E+00 0. -1.
         -5    1    3    3    0  503  0.41218411193E+02 -0.43659196581E+02 -0.24511244018E+03  0.25240301345E+03  0.47000000000E+01 0.  1.
         13    1    4    4    0    0  0.33130462842E+02  0.34479926513E+01 -0.63419710481E+02  0.71635018664E+02  0.00000000000E+00 0. -1.
        -14    1    4    4    0    0 -0.28206347453E+02  0.76912606800E+02 -0.19442604990E+03  0.21098017916E+03  0.00000000000E+00 0.  1.
</event>
<event>
12    1  0.8563264E-002  0.1758128E+03  0.7818608E-02  0.1171994E+00
         21   -1    0    0  503  502  0.00000000000E+00  0.00000000000E+00  0.16166865974E+04  0.16166865974E+04  0.00000000000E+00 0. -1.
         21   -1    0    0  501  503 -0.00000000000E+00 -0.00000000000E+00 -0.45937154794E+02  0.45937154794E+02  0.00000000000E+00 0. -1.
          6    2    1    2  501    0 -0.21194560305E+02 -0.25186287298E+02  0.15009234491E+03  0.23116631597E+03  0.17270377872E+03 0.  0.
         24    2    3    3    0    0 -0.96157176294E-01 -0.79125106678E+02  0.69443297495E+02  0.13176361128E+03  0.79236897577E+02 0.  0.
         -6    2    1    2    0  502  0.21194560305E+02  0.25186287298E+02  0.14206570977E+04  0.14314574362E+04  0.17239560328E+03 0.  0.
        -24    2    5    5    0    0 -0.25603209996E+02 -0.37402998365E+02  0.60643851596E+03  0.61348345202E+03  0.80868804969E+02 0.  0.
          5    1    3    3  501    0 -0.21098403129E+02  0.53938819381E+02  0.80649047419E+02  0.99402704694E+02  0.47000000000E+01 0. -1.
        -11    1    4    4    0    0 -0.25139058097E+02 -0.18241558045E+02  0.56785590226E+02  0.64725033328E+02  0.00000000000E+00 0.  1.
         12    1    4    4    0    0  0.25042900920E+02 -0.60883548633E+02  0.12657707268E+02  0.67038577953E+02  0.00000000000E+00 0. -1.
         -5    1    5    5    0  502  0.46797770301E+02  0.62589285663E+02  0.81421858173E+03  0.81797398419E+03  0.47000000000E+01 0.  1.
         11    1    6    6    0    0  0.64237475072E+01  0.23118585039E+02  0.13885577184E+03  0.14091365753E+03  0.00000000000E+00 0. -1.
        -12    1    6    6    0    0 -0.32026957503E+02 -0.60521583404E+02  0.46758274412E+03  0.47256979449E+03  0.00000000000E+00 0.  1.
</event>
<event>
12    1  0.8563264E-002  0.3356591E+03  0.7818608E-02  0.1069267E+00
         21   -1    0    0  503  502  0.00000000000E+00  0.00000000000E+00  0.22066018367E+04  0.22066018367E+04  0.00000000000E+00 0.  1.
         21   -1    0    0  501  503 -0.00000000000E+00 -0.00000000000E+00 -0.94967696403E+02  0.94967696403E+02  0.00000000000E+00 0. -1.
          6    2    1    2  501    0  0.20374875344E+03  0.19531483106E+03  0.26121552260E+03  0.42095365292E+03  0.17119284710E+03 0.  0.
         24    2    3    3    0    0  0.13188210759E+03  0.19181750786E+03  0.14945534613E+03  0.28795187436E+03  0.79953329116E+02 0.  0.
         -6    2    1    2    0  502 -0.20374875344E+03 -0.19531483106E+03  0.18504186177E+04  0.18806158801E+04  0.18167440742E+03 0.  0.
        -24    2    5    5    0    0 -0.92786275837E+02 -0.11781594281E+03  0.60037725795E+03  0.62325982870E+03  0.74229864915E+02 0.  0.
          5    1    3    3  501    0  0.71866645855E+02  0.34973232007E+01  0.11176017646E+03  0.13300177856E+03  0.47000000000E+01 0. -1.
        -13    1    4    4    0    0  0.12469541698E+03  0.16347500664E+03  0.15588021895E+03  0.25801485901E+03  0.00000000000E+00 0.  1.
         14    1    4    4    0    0  0.71866906121E+01  0.28342501220E+02 -0.64248728159E+01  0.29937015350E+02  0.00000000000E+00 0. -1.
         -5    1    5    5    0  502 -0.11096247761E+03 -0.77498888245E+02  0.12500413597E+04  0.12573560514E+04  0.47000000000E+01 0.  1.
         11    1    6    6    0    0 -0.96266041071E+02 -0.91219436253E+02  0.55429460078E+03  0.56993915523E+03  0.00000000000E+00 0. -1.
        -12    1    6    6    0    0  0.34797652342E+01 -0.26596506562E+02  0.46082657170E+02  0.53320673470E+02  0.00000000000E+00 0.  1.
</event>
<event>
12    1  0.8563264E-002  0.2475253E+03  0.7818608E-02  0.1114891E+00
         21   -1    0    0  501  502  0.00000000000E+00  0.00000000000E+00  0.57696759922E+02  0.57696759922E+02  0.00000000000E+00 0.  1.
         21   -1    0    0  502  503 -0.00000000000E+00 -0.00000000000E+00 -0.16302435573E+04  0.16302435573E+04  0.00000000000E+00 0. -1.
         -6    2    1    2    0  503  0.49780963113E+02 -0.17120754402E+03 -0.28789506870E+03  0.37967402057E+03  0.17169340085E+03 0.  0.
        -24    2    3    3    0    0  0.75643841371E+00 -0.17144534907E+03 -0.26465559001E+03  0.32521647800E+03  0.79555617805E+02 0.  0.
          6    2    1    2  501    0 -0.49780963113E+02  0.17120754402E+03 -0.12846517287E+04  0.13082662967E+04  0.17158225881E+03 0.  0.
         24    2    5    5    0    0 -0.47165560321E+02  0.20387107109E+02 -0.47276551183E+03  0.48247276094E+03  0.81440233612E+02 0.  0.
          5    1    5    5  501    0 -0.26154027921E+01  0.15082043692E+03 -0.81188621686E+03  0.82579353573E+03  0.47000000000E+01 0. -1.
        -13    1    6    6    0    0 -0.75426200094E+01 -0.27681469002E+02 -0.23247836849E+03  0.23424206850E+03  0.00000000000E+00 0.  1.
         14    1    6    6    0    0 -0.39622940312E+02  0.48068576112E+02 -0.24028714335E+03  0.24823069243E+03  0.00000000000E+00 0. -1.
         -5    1    3    3    0  503  0.49024524699E+02  0.23780504038E+00 -0.23239478695E+02  0.54457542574E+02  0.47000000000E+01 0.  1.
         11    1    4    4    0    0 -0.20460301929E+02 -0.40556797294E+02 -0.12331061204E+03  0.13141150941E+03  0.00000000000E+00 0. -1.
        -12    1    4    4    0    0  0.21216740342E+02 -0.13088855177E+03 -0.14134497796E+03  0.19380496859E+03  0.00000000000E+00 0.  1.
</event>
<event>
12    1  0.8563264E-002  0.1762640E+03  0.7818608E-02  0.1171608E+00
         21   -1    0    0  501  502  0.00000000000E+00  0.00000000000E+00  0.30144282337E+03  0.30144282337E+03  0.00000000000E+00 0.  1.
         21   -1    0    0  502  503 -0.00000000000E+00 -0.00000000000E+00 -0.18381274061E+03  0.18381274061E+03  0.00000000000E+00 0.  1.
         -6    2    1    2    0  503 -0.16858302441E+02  0.36706011627E+02 -0.10226706335E+03  0.20378309396E+03  0.17157349296E+03 0.  0.
        -24    2    3    3    0    0 -0.37786107740E+02 -0.10275140769E+02 -0.12041399769E+03  0.14904185776E+03  0.78616639895E+02 0.  0.
          6    2    1    2  501    0  0.16858302441E+02 -0.36706011627E+02  0.21989714611E+03  0.28147247002E+03  0.17099842941E+03 0.  0.
         24    2    5    5    0    0  0.54347271339E+02 -0.47875424828E+02  0.21661873976E+03  0.24193746618E+03  0.79777045071E+02 0.  0.
          5    1    5    5  501    0 -0.37488968898E+02  0.11169413201E+02  0.32784063464E+01  0.39535003838E+02  0.47000000000E+01 0. -1.
        -13    1    6    6    0    0  0.25486510188E+02  0.11879134782E+02  0.12898129400E+03  0.13201079595E+03  0.00000000000E+00 0.  1.
         14    1    6    6    0    0  0.28860761151E+02 -0.59754559609E+02  0.87637445761E+02  0.10992667023E+03  0.00000000000E+00 0. -1.
         -5    1    3    3    0  503  0.20927805300E+02  0.46981152396E+02  0.18146934336E+02  0.54741236202E+02  0.47000000000E+01 0.  1.
         13    1    4    4    0    0  0.54215553028E+01 -0.31559152782E+02 -0.79988630238E+02  0.86160050798E+02  0.00000000000E+00 0. -1.
        -14    1    4    4    0    0 -0.43207663043E+02  0.21284012013E+02 -0.40425367453E+02  0.62881806961E+02  0.00000000000E+00 0.  1.
</event>
<event>
12    1  0.8563264E-002  0.1782424E+03  0.7818608E-02  0.1170677E+00
         21   -1    0    0  503  502  0.00000000000E+00  0.00000000000E+00  0.10127121005E+03  0.10127121005E+03  0.00000000000E+00 0.  1.
         21   -1    0    0  501  503 -0.00000000000E+00 -0.00000000000E+00 -0.37054432356E+03  0.37054432356E+03  0.00000000000E+00 0.  1.
          6    2    1    2  501    0 -0.33596546963E+02 -0.37513623919E+02 -0.23196187450E+03  0.28970989108E+03  0.16610090253E+03 0.  0.
         24    2    3    3    0    0 -0.24490529623E+02 -0.84189073556E+02 -0.18099205429E+03  0.21984194619E+03  0.88796235517E+02 0.  0.
         -6    2    1    2    0  502  0.33596546963E+02  0.37513623919E+02 -0.37311239008E+02  0.18210564252E+03  0.17098051507E+03 0.  0.
        -24    2    5    5    0    0  0.83133144810E+02  0.43000958685E+02 -0.77352697996E+01  0.12396088073E+03  0.80908981817E+02 0.  0.
          5    1    3    3  501    0 -0.91060173402E+01  0.46675449637E+02 -0.50969820217E+02  0.69867944893E+02  0.47000000000E+01 0. -1.
        -11    1    4    4    0    0 -0.47091345712E+01 -0.60585559953E+02 -0.17894007409E+03  0.18897707834E+03  0.00000000000E+00 0.  1.
         12    1    4    4    0    0 -0.19781395052E+02 -0.23603513603E+02 -0.20519801984E+01  0.30864867849E+02  0.00000000000E+00 0. -1.
         -5    1    5    5    0  502 -0.49536597847E+02 -0.54873347661E+01 -0.29575969208E+02  0.58144761790E+02  0.47000000000E+01 0.  1.
         13    1    6    6    0    0 -0.48716978616E+01  0.39370537297E+01 -0.25319847801E+02  0.26083108036E+02  0.00000000000E+00 0. -1.
        -14    1    6    6    0    0  0.88004842672E+02  0.39063904956E+02  0.17584578002E+02  0.97877772694E+02  0.00000000000E+00 0.  1.
</event>
<event>
12    1  0.8563264E-002  0.1967250E+03  0.7818608E-02  0.1152580E+00
         21   -1    0    0  503  502  0.00000000000E+00  0.00000000000E+00  0.72624052818E+03  0.72624052818E+03  0.00000000000E+00 0.  1.
         21   -1    0    0  501  503 -0.00000000000E+00 -0.00000000000E+00 -0.58634845934E+02  0.58634845934E+02  0.00000000000E+00 0. -1.
          6    2    1    2  501    0 -0.74566376773E+02 -0.57326236070E+02  0.45313840026E+03  0.49399914136E+03  0.17278396913E+03 0.  0.
         24    2    3    3    0    0 -0.11316776639E+03 -0.63099955248E+02  0.39846264527E+03  0.42665724283E+03  0.80469717808E+02 0.  0.
         -6    2    1    2    0  502  0.74566376773E+02  0.57326236070E+02  0.21446728199E+03  0.29087623275E+03  0.17252920290E+03 0.  0.
        -24    2    5    5    0    0  0.11129215667E+03  0.35679714541E+02  0.11348567543E+03  0.18116420212E+03  0.79262118537E+02 0.  0.
          5    1    3    3  501    0  0.38601389616E+02  0.57737191776E+01  0.54675754989E+02  0.67341898526E+02  0.47000000000E+01 0. -1.
        -11    1    4    4    0    0 -0.16992879679E+02 -0.45067080180E+02  0.19539585286E+03  0.20124447568E+03  0.00000000000E+00 0.  1.
         12    1    4    4    0    0 -0.96174886710E+02 -0.18032875067E+02  0.20306679241E+03  0.22541276716E+03  0.00000000000E+00 0. -1.
         -5    1    5    5    0  502 -0.36725779899E+02  0.21646521530E+02  0.10098160656E+03  0.10971203064E+03  0.47000000000E+01 0.  1.
         13    1    6    6    0    0  0.11299240541E+03  0.47158182777E+02  0.81355863036E+02  0.14700324600E+03  0.00000000000E+00 0. -1.
        -14    1    6    6    0    0 -0.17002487376E+01 -0.11478468236E+02  0.32129812390E+02  0.34160956120E+02  0.00000000000E+00 0.  1.
</event>
<event>
12    1  0.8563264E-002  0.1822956E+03  0.7818608E-02  0.1165605E+00
         21   -1    0    0  501  502  0.00000000000E+00  0.00000000000E+00  0.14416571740E+03  0.14416571740E+03  0.00000000000E+00 0.  1.
         21   -1    0    0  502  503 -0.00000000000E+00 -0.00000000000E+00 -0.33176785542E+03  0.33176785542E+03  0.00000000000E+00 0.  1.
         -6    2    1    2    0  503 -0.53722225332E+02  0.33086660928E+02 -0.22528234883E+03  0.28978449979E+03  0.17100326019E+03 0.  0.
        -24    2    3    3    0    0 -0.70382655122E+02 -0.72898492363E+01 -0.22079585805E+03  0.24562511694E+03  0.81080374294E+02 0.  0.
          6    2    1    2  501    0  0.53722225332E+02 -0.33086660928E+02  0.37680210810E+02  0.18614907303E+03  0.17102887031E+03 0.  0.
         24    2    5    5    0    0  0.98428337207E+02 -0.37597838880E+02  0.77924930950E+01  0.13197940592E+03  0.79095547178E+02 0.  0.
          5    1    5    5  501    0 -0.44706111875E+02  0.45111779521E+01  0.29887717715E+02  0.54169667118E+02  0.47000000000E+01 0. -1.
        -13    1    6    6    0    0  0.33160079087E+02 -0.53221668570E+02 -0.74801907664E+01  0.63151327019E+02  0.00000000000E+00 0.  1.
         14    1    6    6    0    0  0.65268258120E+02  0.15623829690E+02  0.15272683861E+02  0.68828078896E+02  0.00000000000E+00 0. -1.
         -5    1    3    3    0  503  0.16660429790E+02  0.40376510164E+02 -0.44864907781E+01  0.44159382846E+02  0.47000000000E+01 0.  1.
         13    1    4    4    0    0 -0.18476284990E+02 -0.41507316530E+02 -0.94945199234E+02  0.10525597983E+03  0.00000000000E+00 0. -1.
        -14    1    4    4    0    0 -0.51906370132E+02  0.34217467294E+02 -0.12585065882E+03  0.14036913711E+03  0.00000000000E+00 0.  1.
</event>
<event>
12    1  0.8563264E-002  0.1902446E+03  0.7818608E-02  0.1159265E+00
         21   -1    0    0  501  502  0.00000000000E+00  0.00000000000E+00  0.45706452061E+02  0.45706452061E+02  0.00000000000E+00 0.  1.
         21   -1    0    0  502  503 -0.00000000000E+00 -0.00000000000E+00 -0.91852613144E+03  0.91852613144E+03  0.00000000000E+00 0.  1.
         -6    2    1    2    0  503 -0.76280146150E+02  0.21974743913E+02 -0.62372649186E+03  0.65079928268E+03  0.16793873770E+03 0.  0.
        -24    2    3    3    0    0  0.14996413647E+02  0.17704890399E+02 -0.86040973534E+02  0.10538435014E+03  0.56253502664E+02 0.  0.
          6    2    1    2  501    0  0.76280146150E+02 -0.21974743913E+02 -0.24909318752E+03  0.31343330082E+03  0.17289149178E+03 0.  0.
         24    2    5    5    0    0  0.35446624617E+02  0.17795460726E+02 -0.33386541028E+02  0.90273060191E+02  0.73901438790E+02 0.  0.
          5    1    5    5  501    0  0.40833521533E+02 -0.39770204639E+02 -0.21570664649E+03  0.22316024063E+03  0.47000000000E+01 0. -1.
        -13    1    6    6    0    0  0.33034037483E+00 -0.26613867593E+02 -0.55681389968E+01  0.27192117330E+02  0.00000000000E+00 0.  1.
         14    1    6    6    0    0  0.35116284242E+02  0.44409328319E+02 -0.27818402031E+02  0.63080942861E+02  0.00000000000E+00 0. -1.
         -5    1    3    3    0  503 -0.91276559797E+02  0.42698535143E+01 -0.53768551832E+03  0.54541493253E+03  0.47000000000E+01 0.  1.
         11    1    4    4    0    0  0.61118452546E+01 -0.16864312167E+02 -0.81448434647E+01  0.19700206911E+02  0.00000000000E+00 0. -1.
        -12    1    4    4    0    0  0.88845683922E+01  0.34569202565E+02 -0.77896130070E+02  0.85684143232E+02  0.00000000000E+00 0.  1.
</event>
<event>
12    1  0.8563264E-002  0.1849456E+03  0.7818608E-02  0.1163140E+00
         21   -1    0    0  501  502  0.00000000000E+00  0.00000000000E+00  0.11849237274E+03  0.11849237274E+03  0.00000000000E+00 0.  1.
         21   -1    0    0  502  503 -0.00000000000E+00 -0.00000000000E+00 -0.43743520880E+03  0.43743520880E+03  0.00000000000E+00 0.  1.
         -6    2    1    2    0  503  0.61671900130E+02  0.30737302012E+02 -0.32176093593E+03  0.37112661274E+03  0.17162941994E+03 0.  0.
        -24    2    3    3    0    0  0.93031913179E+02  0.64962554821E+02 -0.25056266627E+03  0.28600257412E+03  0.78362952169E+02 0.  0.
          6    2    1    2  501    0 -0.61671900130E+02 -0.30737302012E+02  0.28180998817E+01  0.18480096880E+03  0.17145043419E+03 0.  0.
         24    2    5    5    0    0  0.16744014682E+02  0.19583918266E+01  0.37606003598E+02  0.92875170813E+02  0.83230934878E+02 0.  0.
          5    1    5    5  501    0 -0.78415914812E+02 -0.32695693839E+02 -0.34787903717E+02  0.91925797992E+02  0.47000000000E+01 0. -1.
        -11    1    6    6    0    0  0.32564198533E+02  0.10583145227E+01  0.58314823039E+02  0.66799443424E+02  0.00000000000E+00 0.  1.
         12    1    6    6    0    0 -0.15820183851E+02  0.90007730385E+00 -0.20708819440E+02  0.26075727389E+02  0.00000000000E+00 0. -1.
         -5    1    3    3    0  503 -0.31360013049E+02 -0.34225252809E+02 -0.71198269659E+02  0.85124038618E+02  0.47000000000E+01 0.  1.
         11    1    4    4    0    0  0.82263791342E+02  0.17673896273E+02 -0.11864570893E+03  0.14545274911E+03  0.00000000000E+00 0. -1.
        -12    1    4    4    0    0  0.10768121836E+02  0.47288658548E+02 -0.13191695735E+03  0.14054982501E+03  0.00000000000E+00 0.  1.
</event>
<event>
12    1  0.8563264E-002  0.1847781E+03  0.7818608E-02  0.1163760E+00
         21   -1    0    0  501  502  0.00000000000E+00  0.00000000000E+00  0.11428736027E+03  0.11428736027E+03  0.00000000000E+00 0. -1.
         21   -1    0    0  502  503 -0.00000000000E+00 -0.00000000000E+00 -0.38294400818E+03  0.38294400818E+03  0.00000000000E+00 0. -1.
         -6    2    1    2    0  503  0.41358404547E+02  0.53076031537E+02 -0.25266158023E+03  0.31176224430E+03  0.16979469986E+03 0.  0.
        -24    2    3    3    0    0  0.42067473364E+02  0.78333311426E+02 -0.97475012226E+02  0.15446191419E+03  0.80320140261E+02 0.  0.
          6    2    1    2  501    0 -0.41358404547E+02 -0.53076031537E+02 -0.15995067679E+02  0.18546912414E+03  0.17209117080E+03 0.  0.
         24    2    5    5    0    0 -0.10327188598E+02 -0.93691896238E+02  0.15718892244E+02  0.12513298171E+03  0.80785873110E+02 0.  0.
          5    1    5    5  501    0 -0.31031215949E+02  0.40615864702E+02 -0.31713959924E+02  0.60336142425E+02  0.47000000000E+01 0. -1.
        -13    1    6    6    0    0 -0.16035595706E+02 -0.10154828420E+02  0.34448944365E+02  0.39331801863E+02  0.00000000000E+00 0.  1.
         14    1    6    6    0    0  0.57084071081E+01 -0.83537067818E+02 -0.18730052121E+02  0.85801179851E+02  0.00000000000E+00 0. -1.
         -5    1    3    3    0  503 -0.70906881740E+00 -0.25257279890E+02 -0.15518656800E+03  0.15730033012E+03  0.47000000000E+01 0.  1.
         11    1    4    4    0    0  0.51402975924E+02  0.45724263356E+02 -0.22853430801E+02  0.72493127210E+02  0.00000000000E+00 0. -1.
        -12    1    4    4    0    0 -0.93355025601E+01  0.32609048070E+02 -0.74621581425E+02  0.81968786977E+02  0.00000000000E+00 0.  1.
</event>
<event>
12    1  0.8563264E-002  0.2455716E+03  0.7818608E-02  0.1116462E+00
         21   -1    0    0  503  502  0.00000000000E+00  0.00000000000E+00  0.50989514733E+02  0.50989514733E+02  0.00000000000E+00 0.  1.
         21   -1    0    0  501  503 -0.00000000000E+00 -0.00000000000E+00 -0.13418814571E+04  0.13418814571E+04  0.00000000000E+00 0. -1.
          6    2    1    2  501    0 -0.14195850165E+03 -0.97108876999E+02 -0.40073346993E+03  0.46999226772E+03  0.17527996921E+03 0.  0.
         24    2    3    3    0    0 -0.14687987597E+03 -0.35600069292E+02 -0.22032663944E+03  0.27926663274E+03  0.81270912483E+02 0.  0.
         -6    2    1    2    0  502  0.14195850165E+03  0.97108876999E+02 -0.89015847247E+03  0.92287870415E+03  0.17245476591E+03 0.  0.
        -24    2    5    5    0    0  0.15110272966E+03  0.83604130854E+02 -0.88473495740E+03  0.90506018597E+03  0.80971042903E+02 0.  0.
          5    1    3    3  501    0  0.49213743131E+01 -0.61508807707E+02 -0.18040683049E+03  0.19072563498E+03  0.47000000000E+01 0. -1.
        -11    1    4    4    0    0 -0.81586045675E+02 -0.49947119435E+02 -0.83481276626E+02  0.12696503903E+03  0.00000000000E+00 0.  1.
         12    1    4    4    0    0 -0.65293830291E+02  0.14347050143E+02 -0.13684536282E+03  0.15230159371E+03  0.00000000000E+00 0. -1.
         -5    1    5    5    0  502 -0.91442280078E+01  0.13504746145E+02 -0.54235150725E+01  0.17818518177E+02  0.47000000000E+01 0.  1.
         11    1    6    6    0    0  0.35565172456E+02  0.32311318182E+02 -0.44285087993E+03  0.44545011464E+03  0.00000000000E+00 0. -1.
        -12    1    6    6    0    0  0.11553755720E+03  0.51292812672E+02 -0.44188407747E+03  0.45961007134E+03  0.00000000000E+00 0.  1.
</event>
<event>
12    1  0.8563264E-002  0.2727959E+03  0.7818608E-02  0.1099840E+00
         21   -1    0    0  501  502  0.00000000000E+00  0.00000000000E+00  0.50574176658E+03  0.50574176658E+03  0.00000000000E+00 0.  1.
         21   -1    0    0  502  503 -0.00000000000E+00 -0.00000000000E+00 -0.16190136482E+03  0.16190136482E+03  0.00000000000E+00 0. -1.
         -6    2    1    2    0  503 -0.98970382536E+02  0.18690981496E+03  0.27432662937E+03  0.38612978595E+03  0.17061857011E+03 0.  0.
        -24    2    3    3    0    0 -0.34927403751E+02  0.37385181807E+02  0.46758233990E+02  0.10636455646E+03  0.80681541102E+02 0.  0.
          6    2    1    2  501    0  0.98970382536E+02 -0.18690981496E+03  0.69513772384E+02  0.28151334546E+03  0.17229969116E+03 0.  0.
         24    2    5    5    0    0 -0.23121129330E+01 -0.74356134885E+02  0.70530429359E+02  0.13002209694E+03  0.79981395122E+02 0.  0.
          5    1    5    5  501    0  0.10128249547E+03 -0.11255368007E+03 -0.10166569752E+01  0.15149124852E+03  0.47000000000E+01 0. -1.
        -11    1    6    6    0    0 -0.72359468294E+01  0.14522355604E+02 -0.35821107704E+00  0.16229172930E+02  0.00000000000E+00 0.  1.
         12    1    6    6    0    0  0.49238338964E+01 -0.88878490489E+02  0.70888640436E+02  0.11379292401E+03  0.00000000000E+00 0. -1.
         -5    1    3    3    0  503 -0.64042978786E+02  0.14952463315E+03  0.22756839538E+03  0.27976522948E+03  0.47000000000E+01 0.  1.
         11    1    4    4    0    0 -0.39511179304E+02  0.62184702458E+01  0.60067994652E+02  0.72166243104E+02  0.00000000000E+00 0. -1.
        -12    1    4    4    0    0  0.45837755537E+01  0.31166711562E+02 -0.13309760661E+02  0.34198313361E+02  0.00000000000E+00 0.  1.
</event>
<event>
12    1  0.8563264E-002  0.2011070E+03  0.7818608E-02  0.1148931E+00
         21   -1    0    0  501  502  0.00000000000E+00  0.00000000000E+00  0.48237471111E+03  0.48237471111E+03  0.00000000000E+00 0.  1.
         21   -1    0    0  502  503 -0.00000000000E+00 -0.00000000000E+00 -0.10140863136E+04  0.10140863136E+04  0.00000000000E+00 0.  1.
         -6    2    1    2    0  503  0.97072943608E+02  0.34868656234E+02 -0.98254931059E+03  0.10028025625E+04  0.17196177500E+03 0.  0.
        -24    2    3    3    0    0  0.76207056979E+02  0.71686716835E+02 -0.45849329087E+03  0.47701956866E+03  0.79906634335E+02 0.  0.
          6    2    1    2  501    0 -0.97072943608E+02 -0.34868656234E+02  0.45083770812E+03  0.49365846219E+03  0.17264141642E+03 0.  0.
         24    2    5    5    0    0 -0.73766974338E+02 -0.15273894780E+02  0.44966200816E+03  0.46282673907E+03  0.79610366480E+02 0.  0.
          5    1    5    5  501    0 -0.23305969270E+02 -0.19594761454E+02  0.11756999551E+01  0.30831723118E+02  0.47000000000E+01 0. -1.
        -11    1    6    6    0    0 -0.33931917027E+02 -0.45293603898E+02  0.29300154608E+03  0.29841714353E+03  0.00000000000E+00 0.  1.
         12    1    6    6    0    0 -0.39835057312E+02  0.30019709119E+02  0.15666046208E+03  0.16440959554E+03  0.00000000000E+00 0. -1.
         -5    1    3    3    0  503  0.20865886629E+02 -0.36818060600E+02 -0.52405601972E+03  0.52578299385E+03  0.47000000000E+01 0.  1.
         11    1    4    4    0    0  0.68073508812E+02  0.88270964678E+02 -0.41618879942E+03  0.43085830916E+03  0.00000000000E+00 0. -1.
        -12    1    4    4    0    0  0.81335481673E+01 -0.16584247843E+02 -0.42304491447E+02  0.46161259503E+02  0.00000000000E+00 0.  1.
</event>
<event>
12    1  0.8563264E-002  0.3262089E+03  0.7818608E-02  0.1072889E+00
         21   -1    0    0  501  502  0.00000000000E+00  0.00000000000E+00  0.58615740216E+03  0.58615740216E+03  0.00000000000E+00 0.  1.
         21   -1    0    0  502  503 -0.00000000000E+00 -0.00000000000E+00 -0.25591363890E+03  0.25591363890E+03  0.00000000000E+00 0. -1.
         -6    2    1    2    0  503 -0.24323296318E+03 -0.13204530477E+03  0.39266845463E+03  0.51049071955E+03  0.17266737559E+03 0.  0.
        -24    2    3    3    0    0 -0.14483745953E+03 -0.14393274647E+03  0.24134940179E+03  0.32954174286E+03  0.93025272681E+02 0.  0.
          6    2    1    2  501    0  0.24323296318E+03  0.13204530477E+03 -0.62424691373E+02  0.33158032151E+03  0.17161127769E+03 0.  0.
         24    2    5    5    0    0  0.25005022384E+03  0.13515201243E+03 -0.27677362416E+02  0.29572514692E+03  0.76786360910E+02 0.  0.
          5    1    5    5  501    0 -0.68172606586E+01 -0.31067076649E+01 -0.34747328956E+02  0.35855174592E+02  0.47000000000E+01 0. -1.
        -11    1    6    6    0    0  0.17282685623E+03  0.51216697995E+02 -0.12908599112E+02  0.18071774766E+03  0.00000000000E+00 0.  1.
         12    1    6    6    0    0  0.77223367611E+02  0.83935314437E+02 -0.14768763305E+02  0.11500739926E+03  0.00000000000E+00 0. -1.
         -5    1    3    3    0  503 -0.98395503655E+02  0.11887441703E+02  0.15131905284E+03  0.18094897669E+03  0.47000000000E+01 0.  1.
         11    1    4    4    0    0 -0.58686693192E+02 -0.45139989542E+02  0.28028643527E+02  0.79166605786E+02  0.00000000000E+00 0. -1.
        -12    1    4    4    0    0 -0.86150766333E+02 -0.98792756928E+02  0.21332075826E+03  0.25037513708E+03  0.00000000000E+00 0.  1.
</event>
<event>
12    1  0.8563264E-002  0.2147165E+03  0.7818608E-02  0.1138276E+00
         21   -1    0    0  501  502  0.00000000000E+00  0.00000000000E+00  0.17921881085E+02  0.17921881085E+02  0.00000000000E+00 0.  1.
         21   -1    0    0  502  503 -0.00000000000E+00 -0.00000000000E+00 -0.35677639123E+04  0.35677639123E+04  0.00000000000E+00 0.  1.
         -6    2    1    2    0  503  0.10713379327E+03  0.66714002016E+02 -0.27393006884E+04  0.27477029415E+04  0.17370890952E+03 0.  0.
        -24    2    3    3    0    0  0.13115243554E+03  0.28172427781E+02 -0.24381335623E+04  0.24430948720E+04  0.78883705612E+02 0.  0.
          6    2    1    2  501    0 -0.10713379327E+03 -0.66714002016E+02 -0.81054134274E+03  0.83798285186E+03  0.17120042055E+03 0.  0.
         24    2    5    5    0    0 -0.81803092727E+02 -0.17798056300E+02 -0.73489115211E+03  0.74428410332E+03  0.82977733280E+02 0.  0.
          5    1    5    5  501    0 -0.25330700547E+02 -0.48915945716E+02 -0.75650190628E+02  0.93698748538E+02  0.47000000000E+01 0. -1.
        -11    1    6    6    0    0 -0.25361278400E+01 -0.35079445318E+02 -0.28187418889E+03  0.28405995457E+03  0.00000000000E+00 0.  1.
         12    1    6    6    0    0 -0.79266964887E+02  0.17281389018E+02 -0.45301696323E+03  0.46022414876E+03  0.00000000000E+00 0. -1.
         -5    1    3    3    0  503 -0.24018642269E+02  0.38541574235E+02 -0.30116712611E+03  0.30460806945E+03  0.47000000000E+01 0.  1.
         11    1    4    4    0    0  0.93130227139E+02  0.55843077554E+02 -0.17098342123E+04  0.17132789387E+04  0.00000000000E+00 0. -1.
        -12    1    4    4    0    0  0.38022208404E+02 -0.27670649773E+02 -0.72829935006E+03  0.72981593329E+03  0.00000000000E+00 0.  1.
</event>
<event>
12    1  0.8563264E-002  0.2083074E+03  0.7818608E-02  0.1142988E+00
         21   -1    0    0  501  502  0.00000000000E+00  0.00000000000E+00  0.11437637137E+04  0.11437637137E+04  0.00000000000E+00 0.  1.
         21   -1    0    0  502  503 -0.00000000000E+00 -0.00000000000E+00 -0.37883540578E+02  0.37883540578E+02  0.00000000000E+00 0.  1.
         -6    2    1    2    0  503 -0.11600584090E+03 -0.17424704187E+02  0.54232692407E+03  0.58095651768E+03  0.17213659527E+03 0.  0.
        -24    2    3    3    0    0 -0.79002215261E+02  0.36128098542E+02  0.19778969045E+03  0.23029262399E+03  0.79795623292E+02 0.  0.
          6    2    1    2  501    0  0.11600584090E+03  0.17424704187E+02  0.56355324909E+03  0.60069073663E+03  0.17168611206E+03 0.  0.
         24    2    5    5    0    0  0.95386028030E+02  0.75068374267E+02  0.36560047735E+03  0.39343398952E+03  0.79955236927E+02 0.  0.
          5    1    5    5  501    0  0.20619812870E+02 -0.57643670079E+02  0.19795277174E+03  0.20725674711E+03  0.47000000000E+01 0. -1.
        -11    1    6    6    0    0  0.80799548235E+02  0.82329513087E+02  0.23462664541E+03  0.26145052775E+03  0.00000000000E+00 0.  1.
         12    1    6    6    0    0  0.14586479794E+02 -0.72611388198E+01  0.13097383194E+03  0.13198346178E+03  0.00000000000E+00 0. -1.
         -5    1    3    3    0  503 -0.37003625639E+02 -0.53552802730E+02  0.34453723362E+03  0.35066389369E+03  0.47000000000E+01 0.  1.
         11    1    4    4    0    0 -0.23163778725E+02  0.52584864131E+02  0.12082359702E+03  0.13379114387E+03  0.00000000000E+00 0. -1.
        -12    1    4    4    0    0 -0.55838436536E+02 -0.16456765588E+02  0.76966093430E+02  0.96501480125E+02  0.00000000000E+00 0.  1.
</event>
<event>
12    1  0.8563264E-002  0.2835161E+03  0.7818608E-02  0.1093890E+00
         21   -1    0    0  501  502  0.00000000000E+00  0.00000000000E+00  0.18789234361E+04  0.18789234361E+04  0.00000000000E+00 0. -1.
         21   -1    0    0  502  503 -0.00000000000E+00 -0.00000000000E+00 -0.11541468816E+03  0.11541468816E+03  0.00000000000E+00 0.  1.
         -6    2    1    2    0  503  0.22231654285E+03  0.33913822536E+02  0.90502812747E+02  0.29761073336E+03  0.17264587142E+03 0.  0.
        -24    2    3    3    0    0  0.14425379868E+03  0.26109804588E+02 -0.14275819850E+02  0.16663231311E+03  0.77920782922E+02 0.  0.
          6    2    1    2  501    0 -0.22231654285E+03 -0.33913822536E+02  0.16730059352E+04  0.16967273909E+04  0.17134814640E+03 0.  0.
         24    2    5    5    0    0 -0.29390876514E+02 -0.12146965944E+02  0.40938549035E+03  0.41827018497E+03  0.79637274717E+02 0.  0.
          5    1    5    5  501    0 -0.19292566633E+03 -0.21766856592E+02  0.12636204448E+04  0.12784572059E+04  0.47000000000E+01 0. -1.
        -13    1    6    6    0    0 -0.18145254526E+02 -0.46284816383E+02  0.24726587182E+03  0.25221408735E+03  0.00000000000E+00 0.  1.
         14    1    6    6    0    0 -0.11245621988E+02  0.34137850438E+02  0.16211961852E+03  0.16605609762E+03  0.00000000000E+00 0. -1.
         -5    1    3    3    0  503  0.78062744162E+02  0.78040179482E+01  0.10477863260E+03  0.13097842025E+03  0.47000000000E+01 0.  1.
         11    1    4    4    0    0  0.42585954804E+02 -0.27789761034E+02 -0.17552968802E+01  0.50881385909E+02  0.00000000000E+00 0. -1.
        -12    1    4    4    0    0  0.10166784388E+03  0.53899565622E+02 -0.12520522970E+02  0.11575092720E+03  0.00000000000E+00 0.  1.
</event>
<event>
12    1  0.8563264E-002  0.1944741E+03  0.7818608E-02  0.1154633E+00
         21   -1    0    0  501  502  0.00000000000E+00  0.00000000000E+00  0.65678414041E+03  0.65678414041E+03  0.00000000000E+00 0. -1.
         21   -1    0    0  502  503 -0.00000000000E+00 -0.00000000000E+00 -0.57798998430E+02  0.57798998430E+02  0.00000000000E+00 0. -1.
         -6    2    1    2    0  503  0.32485018924E+02 -0.84386392228E+02  0.33017068251E+03  0.38318776751E+03  0.17217388285E+03 0.  0.
        -24    2    3    3    0    0  0.72365986794E+02 -0.10316869576E+03  0.24660355661E+03  0.28858955899E+03  0.81178837120E+02 0.  0.
          6    2    1    2  501    0 -0.32485018924E+02  0.84386392228E+02  0.26881445947E+03  0.33139537132E+03  0.17142152394E+03 0.  0.
         24    2    5    5    0    0  0.10310195542E+02  0.11521216900E+03  0.17624801701E+03  0.22475440750E+03  0.77916854248E+02 0.  0.
          5    1    5    5  501    0 -0.42795214466E+02 -0.30825776773E+02  0.92566442459E+02  0.10664096382E+03  0.47000000000E+01 0. -1.
        -13    1    6    6    0    0  0.38196936973E+02  0.47617024975E+02  0.50208043403E+02  0.79039450175E+02  0.00000000000E+00 0.  1.
         14    1    6    6    0    0 -0.27886741431E+02  0.67595144025E+02  0.12603997360E+03  0.14571495733E+03  0.00000000000E+00 0. -1.
         -5    1    3    3    0  503 -0.39880967870E+02  0.18782303535E+02  0.83567125902E+02  0.94598208523E+02  0.47000000000E+01 0.  1.
         11    1    4    4    0    0 -0.24780186535E+01 -0.44428536245E+02  0.13388183707E+03  0.14108288949E+03  0.00000000000E+00 0. -1.
        -12    1    4    4    0    0  0.74844005447E+02 -0.58740159518E+02  0.11272171954E+03  0.14750666950E+03  0.00000000000E+00 0.  1.
</event>
<event>
12    1  0.8563264E-002  0.2250267E+03  0.7818608E-02  0.1130304E+00
         21   -1    0    0  503  502  0.00000000000E+00  0.00000000000E+00  0.10516638919E+03  0.10516638919E+03  0.00000000000E+00 0. -1.
         21   -1    0    0  501  503 -0.00000000000E+00 -0.00000000000E+00 -0.54548570950E+03  0.54548570950E+03  0.00000000000E+00 0.  1.
          6    2    1    2  501    0 -0.13262665359E+03  0.58856997655E+02 -0.33301633276E+03  0.40191650823E+03  0.17199716942E+03 0.  0.
         24    2    3    3    0    0 -0.14438357131E+03 -0.14149410257E+01 -0.23992708514E+03  0.29029827616E+03  0.76547143902E+02 0.  0.
         -6    2    1    2    0  502  0.13262665359E+03 -0.58856997655E+02 -0.10730298755E+03  0.24873559045E+03  0.17117677238E+03 0.  0.
        -24    2    5    5    0    0  0.32774479775E+02  0.13668719939E+02  0.13552786352E+02  0.75939049937E+02  0.65742382511E+02 0.  0.
          5    1    3    3  501    0  0.11756917722E+02  0.60271938681E+02 -0.93089247626E+02  0.11161823207E+03  0.47000000000E+01 0. -1.
        -11    1    4    4    0    0 -0.43290867078E+02 -0.27497986460E+02 -0.41082841392E+02  0.65711781961E+02  0.00000000000E+00 0.  1.
         12    1    4    4    0    0 -0.10109270423E+03  0.26083045434E+02 -0.19884424374E+03  0.22458649420E+03  0.00000000000E+00 0. -1.
         -5    1    5    5    0  502  0.99852173813E+02 -0.72525717594E+02 -0.12085577390E+03  0.17279654051E+03  0.47000000000E+01 0.  1.
         11    1    6    6    0    0  0.15641267969E+02 -0.26584389472E+02  0.77943728076E+01  0.31814010667E+02  0.00000000000E+00 0. -1.
        -12    1    6    6    0    0  0.17133211806E+02  0.40253109411E+02  0.57584135440E+01  0.44125039270E+02  0.00000000000E+00 0.  1.
</event>
<event>
12    1  0.8563264E-002  0.2153056E+03  0.7818608E-02  0.1137592E+00
         21   -1    0    0  501  502  0.00000000000E+00  0.00000000000E+00  0.72136787933E+03  0.72136787933E+03  0.00000000000E+00 0. -1.
         21   -1    0    0  502  503 -0.00000000000E+00 -0.00000000000E+00 -0.77119048679E+02  0.77119048679E+02  0.00000000000E+00 0.  1.
         -6    2    1    2    0  503  0.54588357092E+02 -0.11625464505E+03  0.15806222286E+03  0.26709578878E+03  0.17280469573E+03 0.  0.
        -24    2    3    3    0    0 -0.19147435410E+02 -0.89804430074E+02  0.14154291139E+03  0.18689878996E+03  0.80407101563E+02 0.  0.
          6    2    1    2  501    0 -0.54588357092E+02  0.11625464505E+03  0.48618660780E+03  0.53139113923E+03  0.17176755813E+03 0.  0.
         24    2    5    5    0    0 -0.96427624943E+02  0.92935164039E+02  0.42128658341E+03  0.45059246539E+03  0.87269427283E+02 0.  0.
          5    1    5    5  501    0  0.41839267850E+02  0.23319481010E+02  0.64900024391E+02  0.80798673843E+02  0.47000000000E+01 0. -1.
        -11    1    6    6    0    0 -0.20613935300E+02  0.75142051107E+02  0.16027392007E+03  0.17821052614E+03  0.00000000000E+00 0.  1.
         12    1    6    6    0    0 -0.75813689642E+02  0.17793112932E+02  0.26101266334E+03  0.27238193925E+03  0.00000000000E+00 0. -1.
         -5    1    3    3    0  503  0.73735792503E+02 -0.26450214976E+02  0.16519311469E+02  0.80196998820E+02  0.47000000000E+01 0.  1.
         13    1    4    4    0    0  0.10438255895E+02 -0.51374888238E+02  0.12517943708E+03  0.13571377158E+03  0.00000000000E+00 0. -1.
        -14    1    4    4    0    0 -0.29585691305E+02 -0.38429541835E+02  0.16363474305E+02  0.51185018385E+02  0.00000000000E+00 0.  1.
</event>
<event>
12    1  0.8563264E-002  0.1906320E+03  0.7818608E-02  0.1158099E+00
         21   -1    0    0  501  502  0.00000000000E+00  0.00000000000E+00  0.15163135425E+03  0.15163135425E+03  0.00000000000E+00 0.  1.
         21   -1    0    0  502  503 -0.00000000000E+00 -0.00000000000E+00 -0.23982712180E+03  0.23982712180E+03  0.00000000000E+00 0.  1.
         -6    2    1    2    0  503  0.78484974932E+02  0.19109322487E+02 -0.58499809475E+02  0.19852739137E+03  0.17165616772E+03 0.  0.
        -24    2    3    3    0    0 -0.24683358385E+02  0.38761870130E+01 -0.16773940016E+02  0.86104566291E+02  0.80674272638E+02 0.  0.
          6    2    1    2  501    0 -0.78484974932E+02 -0.19109322487E+02 -0.29695958071E+02  0.19293108468E+03  0.17267164219E+03 0.  0.
         24    2    5    5    0    0 -0.67096200341E+02  0.52673660572E+02 -0.60967234986E+01  0.11637055493E+03  0.78920981998E+02 0.  0.
          5    1    5    5  501    0 -0.11388774590E+02 -0.71782983059E+02 -0.23599234573E+02  0.76560529752E+02  0.47000000000E+01 0. -1.
        -11    1    6    6    0    0 -0.76001454906E+02  0.62115777227E+02  0.63852547274E+01  0.98363420062E+02  0.00000000000E+00 0.  1.
         12    1    6    6    0    0  0.89052545649E+01 -0.94421166554E+01 -0.12481978226E+02  0.18007134870E+02  0.00000000000E+00 0. -1.
         -5    1    3    3    0  503  0.10316833332E+03  0.15233135474E+02 -0.41725869459E+02  0.11242282507E+03  0.47000000000E+01 0.  1.
         13    1    4    4    0    0 -0.22829010096E+02 -0.27015181959E+02  0.17889966227E+02  0.39636279465E+02  0.00000000000E+00 0. -1.
        -14    1    4    4    0    0 -0.18543482889E+01  0.30891368972E+02 -0.34663906243E+02  0.46468286826E+02  0.00000000000E+00 0.  1.
</event>
<event>
12    1  0.8563264E-002  0.1987954E+03  0.7818608E-02  0.1151420E+00
         21   -1    0    0  501  502  0.00000000000E+00  0.00000000000E+00  0.12174244359E+04  0.12174244359E+04  0.00000000000E+00 0. -1.
         21   -1    0    0  502  503 -0.00000000000E+00 -0.00000000000E+00 -0.36701201800E+02  0.36701201800E+02  0.00000000000E+00 0. -1.
         -6    2    1    2    0  503 -0.36552820896E+02  0.85593689802E+02  0.36901851799E+03  0.41915899126E+03  0.17566218969E+03 0.  0.
        -24    2    3    3    0    0 -0.79245420984E+02  0.26863494259E+02  0.28747316979E+03  0.30987208544E+03  0.79864897894E+02 0.  0.
          6    2    1    2  501    0  0.36552820896E+02 -0.85593689802E+02  0.81170471614E+03  0.83496664647E+03  0.17216958519E+03 0.  0.
         24    2    5    5    0    0  0.33443926876E+02 -0.12509833846E+03  0.70225161536E+03  0.71846620116E+03  0.79172346175E+02 0.  0.
          5    1    5    5  501    0  0.31088940201E+01  0.39504648659E+02  0.10945310077E+03  0.11650044531E+03  0.47000000000E+01 0. -1.
        -11    1    6    6    0    0 -0.23465786696E+02 -0.64145845912E+02  0.30435968786E+03  0.31192972331E+03  0.00000000000E+00 0.  1.
         12    1    6    6    0    0  0.56909713572E+02 -0.60952492549E+02  0.39789192750E+03  0.40653647785E+03  0.00000000000E+00 0. -1.
         -5    1    3    3    0  503  0.42692600088E+02  0.58730195543E+02  0.81545348208E+02  0.10928690583E+03  0.47000000000E+01 0.  1.
         13    1    4    4    0    0 -0.74883838074E+01 -0.25415282397E+02  0.55828904466E+02  0.61797079585E+02  0.00000000000E+00 0. -1.
        -14    1    4    4    0    0 -0.71757037177E+02  0.52278776655E+02  0.23164426532E+03  0.24807500585E+03  0.00000000000E+00 0.  1.
</event>
<event>
12    1  0.8563264E-002  0.2001587E+03  0.7818608E-02  0.1149954E+00
         21   -1    0    0  503  502  0.00000000000E+00  0.00000000000E+00  0.45475307600E+02  0.45475307600E+02  0.00000000000E+00 0.  1.
         21   -1    0    0  501  503 -0.00000000000E+00 -0.00000000000E+00 -0.87670834634E+03  0.87670834634E+03  0.00000000000E+00 0.  1.
          6    2    1    2  501    0  0.97860170521E+02 -0.21899791185E+02 -0.44405523707E+03  0.48708168661E+03  0.17322615863E+03 0.  0.
         24    2    3    3    0    0  0.11519295781E+03 -0.51805435259E+02 -0.42333297016E+03  0.44650736704E+03  0.64844464280E+02 0.  0.
         -6    2    1    2    0  502 -0.97860170521E+02  0.21899791185E+02 -0.38717780166E+03  0.43510196733E+03  0.17132092120E+03 0.  0.
        -24    2    5    5    0    0 -0.13290825220E+02  0.61003592847E+02 -0.23738983306E+03  0.25863778680E+03  0.81495322237E+02 0.  0.
          5    1    3    3  501    0 -0.17332787287E+02  0.29905644074E+02 -0.20722266913E+02  0.40574319571E+02  0.47000000000E+01 0. -1.
        -13    1    4    4    0    0  0.54803954854E+02 -0.24162244800E+02 -0.10117038335E+03  0.11757012379E+03  0.00000000000E+00 0.  1.
         14    1    4    4    0    0  0.60389002954E+02 -0.27643190459E+02 -0.32216258681E+03  0.32893724325E+03  0.00000000000E+00 0. -1.
         -5    1    5    5    0  502 -0.84569345301E+02 -0.39103801662E+02 -0.14978796861E+03  0.17646418053E+03  0.47000000000E+01 0.  1.
         11    1    6    6    0    0  0.10328503867E+02  0.52959368217E+02 -0.65115840156E+02  0.84566218511E+02  0.00000000000E+00 0. -1.
        -12    1    6    6    0    0 -0.23619329087E+02  0.80442246300E+01 -0.17227399290E+03  0.17407156829E+03  0.00000000000E+00 0.  1.
</event>
<event>
12    1  0.8563264E-002  0.1859980E+03  0.7818608E-02  0.1162313E+00
         21   -1    0    0  501  502  0.00000000000E+00  0.00000000000E+00  0.23267049554E+03  0.23267049554E+03  0.00000000000E+00 0.  1.
         21   -1    0    0  502  503 -0.00000000000E+00 -0.00000000000E+00 -0.16146462065E+03  0.16146462065E+03  0.00000000000E+00 0. -1.
         -6    2    1    2    0  503  0.43497049048E+02 -0.53903078125E+02 -0.21171964598E+02  0.18719909749E+03  0.17262014630E+03 0.  0.
        -24    2    3    3    0    0  0.66463228924E+02  0.22653455583E+02 -0.86689715253E+01  0.10616353056E+03  0.79151780173E+02 0.  0.
          6    2    1    2  501    0 -0.43497049048E+02  0.53903078125E+02  0.92377839491E+02  0.20693601870E+03  0.17173035695E+03 0.  0.
         24    2    5    5    0    0 -0.20195770154E+02  0.69776101194E+02  0.12322567574E+03  0.16488151287E+03  0.82004711410E+02 0.  0.
          5    1    5    5  501    0 -0.23301278894E+02 -0.15873023068E+02 -0.30847836252E+02  0.42054505833E+02  0.47000000000E+01 0. -1.
        -11    1    6    6    0    0 -0.40428153196E+02  0.35637774150E+02  0.25935069993E+02  0.59808982375E+02  0.00000000000E+00 0.  1.
         12    1    6    6    0    0  0.20232383042E+02  0.34138327043E+02  0.97290605751E+02  0.10507253049E+03  0.00000000000E+00 0. -1.
         -5    1    3    3    0  503 -0.22966179876E+02 -0.76556533708E+02 -0.12502993073E+02  0.81035566928E+02  0.47000000000E+01 0.  1.
         11    1    4    4    0    0 -0.69959854707E+01 -0.95555142831E+01 -0.21873504247E+02  0.24873718137E+02  0.00000000000E+00 0. -1.
        -12    1    4    4    0    0  0.73459214394E+02  0.32208969866E+02  0.13204532721E+02  0.81289812422E+02  0.00000000000E+00 0.  1.
</event>
<event>
12    1  0.8563264E-002  0.1798782E+03  0.7818608E-02  0.1167953E+00
         21   -1    0    0  503  502  0.00000000000E+00  0.00000000000E+00  0.45121338185E+02  0.45121338185E+02  0.00000000000E+00 0. -1.
         21   -1    0    0  501  503 -0.00000000000E+00 -0.00000000000E+00 -0.73961841451E+03  0.73961841451E+03  0.00000000000E+00 0. -1.
          6    2    1    2  501    0 -0.47661341665E+02  0.24424134214E+02 -0.41665679145E+03  0.45382712640E+03  0.17172081112E+03 0.  0.
         24    2    3    3    0    0  0.20415997797E+02 -0.17240015478E+02 -0.11769195850E+03  0.14435582424E+03  0.79203382488E+02 0.  0.
         -6    2    1    2    0  502  0.47661341665E+02 -0.24424134214E+02 -0.27784028488E+03  0.33091262630E+03  0.17158030342E+03 0.  0.
        -24    2    5    5    0    0  0.38975541919E+02 -0.77479926994E+02 -0.13355588324E+03  0.17686575415E+03  0.76955110850E+02 0.  0.
          5    1    3    3  501    0 -0.68077339462E+02  0.41664149692E+02 -0.29896483295E+03  0.30947130215E+03  0.47000000000E+01 0. -1.
        -11    1    4    4    0    0  0.73137402419E+01  0.15009555504E+02  0.45081516644E+01  0.17294536252E+02  0.00000000000E+00 0.  1.
         12    1    4    4    0    0  0.13102257555E+02 -0.32249570982E+02 -0.12220011017E+03  0.12706128799E+03  0.00000000000E+00 0. -1.
         -5    1    5    5    0  502  0.86857997460E+01  0.53055792780E+02 -0.14428440163E+03  0.15404687215E+03  0.47000000000E+01 0.  1.
         11    1    6    6    0    0  0.13297899362E+02 -0.84592406890E+02 -0.11868660831E+03  0.14635306770E+03  0.00000000000E+00 0. -1.
        -12    1    6    6    0    0  0.25677642556E+02  0.71124798955E+01 -0.14869274929E+02  0.30512686451E+02  0.00000000000E+00 0.  1.
</event>
<event>
12    1  0.8563264E-002  0.1766424E+03  0.7818608E-02  0.1171253E+00
         21   -1    0    0  503  502  0.00000000000E+00  0.00000000000E+00  0.43465511022E+03  0.43465511022E+03  0.00000000000E+00 0.  1.
         21   -1    0    0  501  503 -0.00000000000E+00 -0.00000000000E+00 -0.75201894193E+02  0.75201894193E+02  0.00000000000E+00 0.  1.
          6    2    1    2  501    0  0.15525516529E+02  0.31839113480E+02  0.12367199006E+03  0.21563231726E+03  0.17305422361E+03 0.  0.
         24    2    3    3    0    0  0.40425984736E+02  0.55437753271E+02  0.20758567229E+02  0.10704966802E+03  0.79505399689E+02 0.  0.
         -6    2    1    2    0  502 -0.15525516529E+02 -0.31839113480E+02  0.23578122597E+03  0.29422468716E+03  0.17239666239E+03 0.  0.
        -24    2    5    5    0    0  0.91946600344E-01  0.40811550700E+02  0.18152345969E+03  0.20209423963E+03  0.78903258162E+02 0.  0.
          5    1    3    3  501    0 -0.24900468207E+02 -0.23598639790E+02  0.10291342283E+03  0.10858264924E+03  0.47000000000E+01 0. -1.
        -13    1    4    4    0    0  0.27847143471E+02  0.74246388309E+02  0.26672260923E+02  0.83662411388E+02  0.00000000000E+00 0.  1.
         14    1    4    4    0    0  0.12578841265E+02 -0.18808635039E+02 -0.59136936938E+01  0.23387256630E+02  0.00000000000E+00 0. -1.
         -5    1    5    5    0  502 -0.15617463129E+02 -0.72650664180E+02  0.54257766277E+02  0.92130447529E+02  0.47000000000E+01 0.  1.
         11    1    6    6    0    0 -0.25109666187E+02  0.34876470511E+02  0.41655750887E+02  0.59850356000E+02  0.00000000000E+00 0. -1.
        -12    1    6    6    0    0  0.25201612787E+02  0.59350801882E+01  0.13986770881E+03  0.14224388363E+03  0.00000000000E+00 0.  1.
</event>
<event>
12    1  0.8563264E-002  0.1739212E+03  0.7818608E-02  0.1173935E+00
         21   -1    0    0  503  502  0.00000000000E+00  0.00000000000E+00  0.44789645806E+02  0.44789645806E+02  0.00000000000E+00 0. -1.
         21   -1    0    0  501  503 -0.00000000000E+00 -0.00000000000E+00 -0.92709019572E+03  0.92709019572E+03  0.00000000000E+00 0. -1.
          6    2    1    2  501    0  0.19633963679E+02 -0.12676590571E+02 -0.69484011131E+03  0.71616517395E+03  0.17188248200E+03 0.  0.
         24    2    3    3    0    0  0.27215028947E+02 -0.72586810763E+02 -0.48976432839E+03  0.50233142130E+03  0.80363278699E+02 0.  0.
         -6    2    1    2    0  502 -0.19633963679E+02  0.12676590571E+02 -0.18746043861E+03  0.25571466758E+03  0.17234380375E+03 0.  0.
        -24    2    5    5    0    0 -0.10674615741E+02  0.40850188144E+02 -0.19685193132E+03  0.22434092615E+03  0.98972132390E+02 0.  0.
          5    1    3    3  501    0 -0.75810652689E+01  0.59910220192E+02 -0.20507578292E+03  0.21383375266E+03  0.47000000000E+01 0. -1.
        -13    1    4    4    0    0 -0.14284153803E+02 -0.19116164383E+01 -0.16013552973E+02  0.21543565306E+02  0.00000000000E+00 0.  1.
         14    1    4    4    0    0  0.41499182750E+02 -0.70675194325E+02 -0.47375077542E+03  0.48078785599E+03  0.00000000000E+00 0. -1.
         -5    1    5    5    0  502 -0.89593479375E+01 -0.28173597573E+02  0.93914927109E+01  0.31373741425E+02  0.47000000000E+01 0.  1.
         13    1    6    6    0    0  0.97601383254E+01  0.33957260112E+02 -0.10661376136E+02  0.36905565373E+02  0.00000000000E+00 0. -1.
        -14    1    6    6    0    0 -0.20434754066E+02  0.68929280321E+01 -0.18619055518E+03  0.18743536078E+03  0.00000000000E+00 0.  1.
</event>
<event>
12    1  0.8563264E-002  0.2017369E+03  0.7818608E-02  0.1151043E+00
         21   -1    0    0  501  502  0.00000000000E+00  0.00000000000E+00  0.44642131694E+03  0.44642131694E+03  0.00000000000E+00 0. -1.
         21   -1    0    0  502  503 -0.00000000000E+00 -0.00000000000E+00 -0.98827646945E+02  0.98827646945E+02  0.00000000000E+00 0. -1.
         -6    2    1    2    0  503 -0.33389021876E+02 -0.73461080858E+02  0.78569473628E+02  0.21649698176E+03  0.18489571045E+03 0.  0.
        -24    2    3    3    0    0 -0.75727875908E+02 -0.73839116956E+02  0.10245187841E+03  0.16765866965E+03  0.80163057185E+02 0.  0.
          6    2    1    2  501    0  0.33389021876E+02  0.73461080858E+02  0.26902419637E+03  0.32875198213E+03  0.17085810000E+03 0.  0.
         24    2    5    5    0    0  0.40159254112E+02 -0.22386459453E+02  0.10344884619E+03  0.13725818689E+03  0.77615892906E+02 0.  0.
          5    1    5    5  501    0 -0.67702322362E+01  0.95847540311E+02  0.16557535018E+03  0.19149379524E+03  0.47000000000E+01 0. -1.
        -11    1    6    6    0    0 -0.11986151872E+02 -0.23517187417E+02  0.65226617420E+01  0.27189539476E+02  0.00000000000E+00 0.  1.
         12    1    6    6    0    0  0.52145405985E+02  0.11307279633E+01  0.96926184451E+02  0.11006864741E+03  0.00000000000E+00 0. -1.
         -5    1    3    3    0  503  0.42338854032E+02  0.37803609834E+00 -0.23882404778E+02  0.48838312113E+02  0.47000000000E+01 0.  1.
         11    1    4    4    0    0 -0.63944323947E+02 -0.19825018731E+02  0.22844253714E+02  0.70737315898E+02  0.00000000000E+00 0. -1.
        -12    1    4    4    0    0 -0.11783551961E+02 -0.54014098225E+02  0.79607624691E+02  0.96921353751E+02  0.00000000000E+00 0.  1.
</event>
<event>
12    1  0.8563264E-002  0.2530863E+03  0.7818608E-02  0.1111454E+00
         21   -1    0    0  503  502  0.00000000000E+00  0.00000000000E+00  0.39173191992E+03  0.39173191992E+03  0.00000000000E+00 0. -1.
         21   -1    0    0  501  503 -0.00000000000E+00 -0.00000000000E+00 -0.16850422062E+03  0.16850422062E+03  0.00000000000E+00 0.  1.
          6    2    1    2  501    0 -0.72241317509E+02  0.17066094035E+03  0.61846632073E+02  0.26053346299E+03  0.17236216209E+03 0.  0.
         24    2    3    3    0    0 -0.91229464268E+00  0.15921756182E+03  0.33723445434E+02  0.18286890195E+03  0.83382853484E+02 0.  0.
         -6    2    1    2    0  502  0.72241317509E+02 -0.17066094035E+03  0.16138106722E+03  0.29970267755E+03  0.17156305417E+03 0.  0.
        -24    2    5    5    0    0  0.46754748818E+02 -0.19356469912E+03  0.15464369578E+03  0.26446591375E+03  0.79838885300E+02 0.  0.
          5    1    3    3  501    0 -0.71329022866E+02  0.11443378538E+02  0.28123186639E+02  0.77664561044E+02  0.47000000000E+01 0. -1.
        -11    1    4    4    0    0  0.15907797784E+02  0.16535156408E+02  0.31764864401E+02  0.39185150736E+02  0.00000000000E+00 0.  1.
         12    1    4    4    0    0 -0.16820092427E+02  0.14268240541E+03  0.19585810325E+01  0.14368375121E+03  0.00000000000E+00 0. -1.
         -5    1    5    5    0  502  0.25486568691E+02  0.22903758771E+02  0.67373714394E+01  0.35236763804E+02  0.47000000000E+01 0.  1.
         13    1    6    6    0    0  0.20313520162E+02 -0.73870450100E+02  0.10991435981E+03  0.13398003207E+03  0.00000000000E+00 0. -1.
        -14    1    6    6    0    0  0.26441228656E+02 -0.11969424902E+03  0.44729335968E+02  0.13048588168E+03  0.00000000000E+00 0.  1.
</event>
<event>
12    1  0.8563264E-002  0.1784184E+03  0.7818608E-02  0.1170848E+00
         21   -1    0    0  503  502  0.00000000000E+00  0.00000000000E+00  0.26515610426E+03  0.26515610426E+03  0.00000000000E+00 0. -1.
         21   -1    0    0  501  503 -0.00000000000E+00 -0.00000000000E+00 -0.13336140971E+03  0.13336140971E+03  0.00000000000E+00 0. -1.
          6    2    1    2  501    0  0.71195973896E+01  0.14862975382E+01 -0.49467705788E+01  0.17848698047E+03  0.17827011503E+03 0.  0.
         24    2    3    3    0    0 -0.13193362475E+02 -0.66203731654E+02 -0.18330932598E+02  0.10640520619E+03  0.80181331470E+02 0.  0.
         -6    2    1    2    0  502 -0.71195973896E+01 -0.14862975382E+01  0.13674146513E+03  0.22003053351E+03  0.17222749386E+03 0.  0.
        -24    2    5    5    0    0 -0.35775977401E+02  0.45532301352E+02  0.11340210391E+03  0.16004092992E+03  0.96953344714E+02 0.  0.
          5    1    3    3  501    0  0.20312959864E+02  0.67690029192E+02  0.13384162019E+02  0.72081774281E+02  0.47000000000E+01 0. -1.
        -13    1    4    4    0    0 -0.13186741380E+02  0.79435626568E+01  0.18125037027E+02  0.23780397455E+02  0.00000000000E+00 0.  1.
         14    1    4    4    0    0 -0.66210953201E-02 -0.74147294311E+02 -0.36455969624E+02  0.82624808736E+02  0.00000000000E+00 0. -1.
         -5    1    5    5    0  502  0.28656380012E+02 -0.47018598890E+02  0.23339361214E+02  0.59989603590E+02  0.47000000000E+01 0.  1.
         11    1    6    6    0    0 -0.35489778376E+02 -0.17447608094E+02  0.78834326656E+02  0.88197474209E+02  0.00000000000E+00 0. -1.
        -12    1    6    6    0    0 -0.28619902493E+00  0.62979909445E+02  0.34567777257E+02  0.71843455708E+02  0.00000000000E+00 0.  1.
</event>
<event>
12    1  0.8563264E-002  0.1818535E+03  0.7818608E-02  0.1167338E+00
         21   -1    0    0  503  502  0.00000000000E+00  0.00000000000E+00  0.17937000112E+03  0.17937000112E+03  0.00000000000E+00 0.  1.
         21   -1    0    0  501  503 -0.00000000000E+00 -0.00000000000E+00 -0.17893718917E+03  0.17893718917E+03  0.00000000000E+00 0.  1.
          6    2    1    2  501    0 -0.36448547430E+02  0.10099372398E+02  0.23373722751E+01  0.17644371784E+03  0.17232651660E+03 0.  0.
         24    2    3    3    0    0 -0.68256726871E+02 -0.49645877936E+01  0.50049342631E+02  0.11696930914E+03  0.80580733968E+02 0.  0.
         -6    2    1    2    0  502  0.36448547430E+02 -0.10099372398E+02 -0.19045603242E+01  0.18186347245E+03  0.17787692748E+03 0.  0.
        -24    2    5    5    0    0  0.22635059535E+01 -0.18859435540E+02 -0.68786141231E+02  0.10609678035E+03  0.78512367225E+02 0.  0.
          5    1    3    3  501    0  0.31808179441E+02  0.15063960191E+02 -0.47711970355E+02  0.59474408708E+02  0.47000000000E+01 0. -1.
        -11    1    4    4    0    0 -0.55852830176E+02  0.29179338932E+02  0.50319162171E+02  0.80641121896E+02  0.00000000000E+00 0.  1.
         12    1    4    4    0    0 -0.12403896696E+02 -0.34143926726E+02 -0.26981954012E+00  0.36328187239E+02  0.00000000000E+00 0. -1.
         -5    1    5    5    0  502  0.34185041477E+02  0.87600631421E+01  0.66881580907E+02  0.75766692099E+02  0.47000000000E+01 0.  1.
         11    1    6    6    0    0 -0.32083441139E+02 -0.13056851051E+02 -0.72554066121E+01  0.35390245546E+02  0.00000000000E+00 0. -1.
        -12    1    6    6    0    0  0.34346947093E+02 -0.58025844885E+01 -0.61530734619E+02  0.70706534805E+02  0.00000000000E+00 0.  1.
</event>
<event>
12    1  0.8563264E-002  0.1919556E+03  0.7818608E-02  0.1157693E+00
         21   -1    0    0  501  502  0.00000000000E+00  0.00000000000E+00  0.13230368560E+04  0.13230368560E+04  0.00000000000E+00 0.  1.
         21   -1    0    0  502  503 -0.00000000000E+00 -0.00000000000E+00 -0.41432666723E+02  0.41432666723E+02  0.00000000000E+00 0.  1.
         -6    2    1    2    0  503 -0.71436878888E+02 -0.47326438468E+02  0.23640714777E+03  0.30179186813E+03  0.16687412235E+03 0.  0.
        -24    2    3    3    0    0  0.15735431725E+02 -0.41745072951E+02  0.16451782830E+03  0.18856498249E+03  0.80624945666E+02 0.  0.
          6    2    1    2  501    0  0.71436878888E+02  0.47326438468E+02  0.10451970415E+04  0.10626776546E+04  0.17176705899E+03 0.  0.
         24    2    5    5    0    0 -0.59369692314E+01 -0.64434492848E+01  0.70759396950E+03  0.71214115516E+03  0.79868852304E+02 0.  0.
          5    1    5    5  501    0  0.77373848119E+02  0.53769887753E+02  0.33760307205E+03  0.35053649947E+03  0.47000000000E+01 0. -1.
        -11    1    6    6    0    0  0.27955485824E+02  0.22414847976E+02  0.31801183978E+03  0.32002416290E+03  0.00000000000E+00 0.  1.
         12    1    6    6    0    0 -0.33892455055E+02 -0.28858297261E+02  0.38958212971E+03  0.39211699226E+03  0.00000000000E+00 0. -1.
         -5    1    3    3    0  503 -0.87172310613E+02 -0.55813655171E+01  0.71889319464E+02  0.11322688564E+03  0.47000000000E+01 0.  1.
         13    1    4    4    0    0  0.36118407602E+02  0.90024921152E+01  0.60125757458E+02  0.70715563646E+02  0.00000000000E+00 0. -1.
        -14    1    4    4    0    0 -0.20382975877E+02 -0.50747565066E+02  0.10439207084E+03  0.11784941884E+03  0.00000000000E+00 0.  1.
</event>
<event>
12    1  0.8563264E-002  0.1943752E+03  0.7818608E-02  0.1154758E+00
         21   -1    0    0  503  502  0.00000000000E+00  0.00000000000E+00  0.14679359807E+03  0.14679359807E+03  0.00000000000E+00 0. -1.
         21   -1    0    0  501  503 -0.00000000000E+00 -0.00000000000E+00 -0.28005999632E+03  0.28005999632E+03  0.00000000000E+00 0.  1.
          6    2    1    2  501    0 -0.63124555569E+02 -0.64468122768E+02 -0.12897437998E+03  0.23327259327E+03  0.17216522213E+03 0.  0.
         24    2    3    3    0    0 -0.10594528177E+03 -0.62920616399E+02 -0.76958084712E+02  0.16571673237E+03  0.79725039266E+02 0.  0.
         -6    2    1    2    0  502  0.63124555569E+02  0.64468122768E+02 -0.42920182716E+01  0.19358100112E+03  0.17121429323E+03 0.  0.
        -24    2    5    5    0    0 -0.18060605525E+02  0.75228115971E+02 -0.16736711747E+01  0.11150936426E+03  0.80287497396E+02 0.  0.
          5    1    3    3  501    0  0.42820726205E+02 -0.15475063687E+01 -0.52016295268E+02  0.67555860901E+02  0.47000000000E+01 0. -1.
        -11    1    4    4    0    0 -0.39889511010E+02  0.13193554386E+02 -0.41023935116E+02  0.58721428954E+02  0.00000000000E+00 0.  1.
         12    1    4    4    0    0 -0.66055770765E+02 -0.76114170785E+02 -0.35934149596E+02  0.10699530341E+03  0.00000000000E+00 0. -1.
         -5    1    5    5    0  502  0.81185161094E+02 -0.10759993203E+02 -0.26183470970E+01  0.82071636861E+02  0.47000000000E+01 0.  1.
         13    1    6    6    0    0  0.15417174316E+02  0.11785267359E+02  0.27844422898E+02  0.33939559177E+02  0.00000000000E+00 0. -1.
        -14    1    6    6    0    0 -0.33477779840E+02  0.63442848613E+02 -0.29518094073E+02  0.77569805084E+02  0.00000000000E+00 0.  1.
</event>
<event>
12    1  0.8563264E-002  0.1714966E+03  0.7818608E-02  0.1176601E+00
         21   -1    0    0  501  502  0.00000000000E+00  0.00000000000E+00  0.14793253663E+03  0.14793253663E+03  0.00000000000E+00 0.  1.
         21   -1    0    0  502  503 -0.00000000000E+00 -0.00000000000E+00 -0.20125694530E+03  0.20125694530E+03  0.00000000000E+00 0.  1.
         -6    2    1    2    0  503 -0.87634064747E+01  0.11371678635E+01 -0.50768245339E+02  0.17885328366E+03  0.17126877093E+03 0.  0.
        -24    2    3    3    0    0 -0.44559404083E+02  0.52280411486E+02 -0.10018617737E+02  0.10415651691E+03  0.77649374733E+02 0.  0.
          6    2    1    2  501    0  0.87634064747E+01 -0.11371678635E+01 -0.25561633288E+01  0.17033619827E+03  0.17008761279E+03 0.  0.
         24    2    5    5    0    0 -0.10403579094E+02  0.51013217016E+02  0.36621036873E+02  0.10218945224E+03  0.79943736705E+02 0.  0.
          5    1    5    5  501    0  0.19166985569E+02 -0.52150384880E+02 -0.39177200202E+02  0.68146746030E+02  0.47000000000E+01 0. -1.
        -13    1    6    6    0    0  0.21888085531E+00  0.15055217357E+02 -0.25509773262E+02  0.29621883978E+02  0.00000000000E+00 0.  1.
         14    1    6    6    0    0 -0.10622459949E+02  0.35957999659E+02  0.62130810135E+02  0.72567568258E+02  0.00000000000E+00 0. -1.
         -5    1    3    3    0  503  0.35795997608E+02 -0.51143243623E+02 -0.40749627602E+02  0.74696766749E+02  0.47000000000E+01 0.  1.
         11    1    4    4    0    0 -0.41108127532E+02  0.13163394011E+02 -0.36719427335E+02  0.56669828259E+02  0.00000000000E+00 0. -1.
        -12    1    4    4    0    0 -0.34512765502E+01  0.39117017475E+02  0.26700809598E+02  0.47486688652E+02  0.00000000000E+00 0.  1.
</event>
<event>
12    1  0.8563264E-002  0.3652372E+03  0.7818608E-02  0.1056648E+00
         21   -1    0    0  501  502  0.00000000000E+00  0.00000000000E+00  0.35380873042E+03  0.35380873042E+03  0.00000000000E+00 0.  1.
         21   -1    0    0  502  503 -0.00000000000E+00 -0.00000000000E+00 -0.39105552685E+03  0.39105552685E+03  0.00000000000E+00 0. -1.
         -6    2    1    2    0  503  0.31788446590E+03 -0.44135632229E+02 -0.92267302082E+02  0.37671137004E+03  0.17435513640E+03 0.  0.
        -24    2    3    3    0    0  0.20389647629E+03 -0.82454618697E+02 -0.10435005637E+03  0.25575811687E+03  0.78426672089E+02 0.  0.
          6    2    1    2  501    0 -0.31788446590E+03  0.44135632229E+02  0.55020505650E+02  0.36815288723E+03  0.17178709101E+03 0.  0.
         24    2    5    5    0    0 -0.13375277557E+03 -0.37319310319E+02  0.16422899173E+02  0.16308886728E+03  0.83938853453E+02 0.  0.
          5    1    5    5  501    0 -0.18413169034E+03  0.81454942548E+02  0.38597606478E+02  0.20506401995E+03  0.47000000000E+01 0. -1.
        -11    1    6    6    0    0 -0.21023389962E+02 -0.29367768612E+02  0.32935471263E+02  0.48879382423E+02  0.00000000000E+00 0.  1.
         12    1    6    6    0    0 -0.11272938560E+03 -0.79515417076E+01 -0.16512572091E+02  0.11420948486E+03  0.00000000000E+00 0. -1.
         -5    1    3    3    0  503  0.11398798961E+03  0.38318986468E+02  0.12082754288E+02  0.12095325317E+03  0.47000000000E+01 0.  1.
         11    1    4    4    0    0  0.76797538528E+02 -0.10629925958E+02 -0.72898371747E+02  0.10641912353E+03  0.00000000000E+00 0. -1.
        -12    1    4    4    0    0  0.12709893776E+03 -0.71824692738E+02 -0.31451684623E+02  0.14933899334E+03  0.00000000000E+00 0.  1.
</event>
<event>
12    1  0.8563264E-002  0.2881911E+03  0.7818608E-02  0.1091303E+00
         21   -1    0    0  501  502  0.00000000000E+00  0.00000000000E+00  0.13048419399E+03  0.13048419399E+03  0.00000000000E+00 0. -1.
         21   -1    0    0  502  503 -0.00000000000E+00 -0.00000000000E+00 -0.87651006618E+03  0.87651006618E+03  0.00000000000E+00 0.  1.
         -6    2    1    2    0  503 -0.29005017959E+02  0.22879833803E+03 -0.63655541433E+03  0.69875380378E+03  0.17281236132E+03 0.  0.
        -24    2    3    3    0    0  0.13256258052E+02  0.21585301893E+03 -0.59341756870E+03  0.63681382911E+03  0.81358391924E+02 0.  0.
          6    2    1    2  501    0  0.29005017959E+02 -0.22879833803E+03 -0.10947045786E+03  0.30824045639E+03  0.17273803074E+03 0.  0.
         24    2    5    5    0    0  0.84251052223E+02 -0.14373027212E+03 -0.55854486948E+02  0.19341248734E+03  0.80821009794E+02 0.  0.
          5    1    5    5  501    0 -0.55246034264E+02 -0.85068065906E+02 -0.53615970910E+02  0.11482796905E+03  0.47000000000E+01 0. -1.
        -11    1    6    6    0    0  0.17113141263E+01 -0.44356399522E+02 -0.45891265154E+02  0.63846902760E+02  0.00000000000E+00 0.  1.
         12    1    6    6    0    0  0.82539738097E+02 -0.99373872598E+02 -0.99632217941E+01  0.12956558458E+03  0.00000000000E+00 0. -1.
         -5    1    3    3    0  503 -0.42261276011E+02  0.12945319099E+02 -0.43137845630E+02  0.61939974671E+02  0.47000000000E+01 0.  1.
         13    1    4    4    0    0  0.14738333319E+02  0.82191369202E+02 -0.13003738450E+03  0.15453918923E+03  0.00000000000E+00 0. -1.
        -14    1    4    4    0    0 -0.14820752670E+01  0.13366164972E+03 -0.46338018420E+03  0.48227463988E+03  0.00000000000E+00 0.  1.
</event>
<event>
12    1  0.8563264E-002  0.2166370E+03  0.7818608E-02  0.1136594E+00
         21   -1    0    0  503  502  0.00000000000E+00  0.00000000000E+00  0.53838648079E+03  0.53838648079E+03  0.00000000000E+00 0.  1.
         21   -1    0    0  501  503 -0.00000000000E+00 -0.00000000000E+00 -0.78808556651E+03  0.78808556651E+03  0.00000000000E+00 0.  1.
          6    2    1    2  501    0 -0.11072443752E+03 -0.68408309485E+02 -0.75052855013E+03  0.78116879258E+03  0.17318192767E+03 0.  0.
         24    2    3    3    0    0 -0.46918327605E+02 -0.74571300580E+02 -0.25828547497E+03  0.28474705941E+03  0.81285256518E+02 0.  0.
         -6    2    1    2    0  502  0.11072443752E+03  0.68408309485E+02  0.50082946440E+03  0.54530325472E+03  0.17200549216E+03 0.  0.
        -24    2    5    5    0    0 -0.12294674212E+02  0.10515947352E+02  0.18769410651E+03  0.20389284217E+03  0.77983775905E+02 0.  0.
          5    1    3    3  501    0 -0.63806109911E+02  0.61629910948E+01 -0.49224307515E+03  0.49642173317E+03  0.47000000000E+01 0. -1.
        -13    1    4    4    0    0  0.79010804162E+01  0.10331080927E+02 -0.68567392830E+02  0.69790011208E+02  0.00000000000E+00 0.  1.
         14    1    4    4    0    0 -0.54819408021E+02 -0.84902381507E+02 -0.18971808214E+03  0.21495704820E+03  0.00000000000E+00 0. -1.
         -5    1    5    5    0  502  0.12301911173E+03  0.57892362133E+02  0.31313535788E+03  0.34141041256E+03  0.47000000000E+01 0.  1.
         11    1    6    6    0    0 -0.11557473279E+02  0.10191676042E+02 -0.76859350887E+00  0.15428421342E+02  0.00000000000E+00 0. -1.
        -12    1    6    6    0    0 -0.73720093355E+00  0.32427130975E+00  0.18846270002E+03  0.18846442082E+03  0.00000000000E+00 0.  1.
</event>
<event>
12    1  0.8563264E-002  0.2100521E+03  0.7818608E-02  0.1142530E+00
         21   -1    0    0  503  502  0.00000000000E+00  0.00000000000E+00  0.40218986246E+03  0.40218986246E+03  0.00000000000E+00 0. -1.
         21   -1    0    0  501  503 -0.00000000000E+00 -0.00000000000E+00 -0.12968231008E+03  0.12968231008E+03  0.00000000000E+00 0. -1.
          6    2    1    2  501    0 -0.85058184281E+02 -0.80630068331E+02  0.26650894084E+02  0.21173600165E+03  0.17431512157E+03 0.  0.
         24    2    3    3    0    0  0.10960604402E+02  0.23832486158E+01  0.33347828866E+02  0.84544187818E+02  0.76875401013E+02 0.  0.
         -6    2    1    2    0  502  0.85058184281E+02  0.80630068331E+02  0.24585665830E+03  0.32013617088E+03  0.16824258928E+03 0.  0.
        -24    2    5    5    0    0  0.10796685550E+03  0.94528266952E+02  0.24215697234E+03  0.29268175743E+03  0.80188382804E+02 0.  0.
          5    1    3    3  501    0 -0.96018788683E+02 -0.83013316947E+02 -0.66969347818E+01  0.12719181383E+03  0.47000000000E+01 0. -1.
        -11    1    4    4    0    0 -0.22584123809E+02  0.15535626757E+02 -0.90845999956E+01  0.28877816815E+02  0.00000000000E+00 0.  1.
         12    1    4    4    0    0  0.33544728211E+02 -0.13152378142E+02  0.42432428862E+02  0.55666371003E+02  0.00000000000E+00 0. -1.
         -5    1    5    5    0  502 -0.22908671222E+02 -0.13898198620E+02  0.36996859535E+01  0.27454413456E+02  0.47000000000E+01 0.  1.
         11    1    6    6    0    0  0.79372993024E+02  0.17404943791E+02  0.13541424728E+03  0.15792410347E+03  0.00000000000E+00 0. -1.
        -12    1    6    6    0    0  0.28593862480E+02  0.77123323161E+02  0.10674272506E+03  0.13475765396E+03  0.00000000000E+00 0.  1.
</event>
<event>
12    1  0.8563264E-002  0.2359673E+03  0.7818608E-02  0.1122669E+00
         21   -1    0    0  501  502  0.00000000000E+00  0.00000000000E+00  0.42108873084E+03  0.42108873084E+03  0.00000000000E+00 0. -1.
         21   -1    0    0  502  503 -0.00000000000E+00 -0.00000000000E+00 -0.15721631898E+03  0.15721631898E+03  0.00000000000E+00 0.  1.
         -6    2    1    2    0  503  0.15869823155E+03 -0.18231201250E+02  0.24863961483E+03  0.34278596543E+03  0.17367514111E+03 0.  0.
        -24    2    3    3    0    0  0.12382118565E+03  0.36761214378E+02  0.22840196699E+03  0.27443227865E+03  0.80389950499E+02 0.  0.
          6    2    1    2  501    0 -0.15869823155E+03  0.18231201250E+02  0.15232797028E+02  0.23551908438E+03  0.17239401268E+03 0.  0.
         24    2    5    5    0    0 -0.18900061419E+02  0.30731115541E+01 -0.31072304961E+02  0.87399036701E+02  0.79413142139E+02 0.  0.
          5    1    5    5  501    0 -0.13979817013E+03  0.15158089696E+02  0.46305101989E+02  0.14812004768E+03  0.47000000000E+01 0. -1.
        -11    1    6    6    0    0 -0.50014177860E+02 -0.12787051444E+01 -0.22335583744E+02  0.54789883875E+02  0.00000000000E+00 0.  1.
         12    1    6    6    0    0  0.31114116440E+02  0.43518166985E+01 -0.87367212172E+01  0.32609152827E+02  0.00000000000E+00 0. -1.
         -5    1    3    3    0  503  0.34877045895E+02 -0.54992415628E+02  0.20237647846E+02  0.68353686786E+02  0.47000000000E+01 0.  1.
         11    1    4    4    0    0  0.31191634270E+02 -0.18326492542E+02  0.10253294652E+03  0.10872802537E+03  0.00000000000E+00 0. -1.
        -12    1    4    4    0    0  0.92629551383E+02  0.55087706920E+02  0.12586902046E+03  0.16570425328E+03  0.00000000000E+00 0.  1.
</event>
<event>
12    1  0.8563264E-002  0.2065026E+03  0.7818608E-02  0.1144621E+00
         21   -1    0    0  501  502  0.00000000000E+00  0.00000000000E+00  0.90597108898E+03  0.90597108898E+03  0.00000000000E+00 0.  1.
         21   -1    0    0  502  503 -0.00000000000E+00 -0.00000000000E+00 -0.47847217485E+02  0.47847217485E+02  0.00000000000E+00 0.  1.
         -6    2    1    2    0  503  0.10201924045E+03 -0.49002706470E+02  0.35920783109E+03  0.41433510463E+03  0.17272556947E+03 0.  0.
        -24    2    3    3    0    0  0.83031658027E+02 -0.88030248745E+02  0.33123667360E+03  0.36248770360E+03  0.83880989476E+02 0.  0.
          6    2    1    2  501    0 -0.10201924045E+03  0.49002706470E+02  0.49891604040E+03  0.53948320183E+03  0.17121833729E+03 0.  0.
         24    2    5    5    0    0 -0.11814204489E+03  0.66458208309E+02  0.30043503152E+03  0.33952960658E+03  0.81516313446E+02 0.  0.
          5    1    5    5  501    0  0.16122804438E+02 -0.17455501839E+02  0.19848100888E+03  0.19995359525E+03  0.47000000000E+01 0. -1.
        -13    1    6    6    0    0 -0.84340570284E+02  0.80567845680E+02  0.26004204823E+03  0.28500241473E+03  0.00000000000E+00 0.  1.
         14    1    6    6    0    0 -0.33801474604E+02 -0.14109637370E+02  0.40392983289E+02  0.54527191851E+02  0.00000000000E+00 0. -1.
         -5    1    3    3    0  503  0.18987582424E+02  0.39027542275E+02  0.27971157495E+02  0.51847401034E+02  0.47000000000E+01 0.  1.
         13    1    4    4    0    0  0.41643729038E+01 -0.57045040252E+02  0.88386178936E+02  0.10527865522E+03  0.00000000000E+00 0. -1.
        -14    1    4    4    0    0  0.78867285123E+02 -0.30985208493E+02  0.24285049466E+03  0.25720904838E+03  0.00000000000E+00 0.  1.
</event>
<event>
12    1  0.8563264E-002  0.1886380E+03  0.7818608E-02  0.1159764E+00
         21   -1    0    0  501  502  0.00000000000E+00  0.00000000000E+00  0.27713386453E+03  0.27713386453E+03  0.00000000000E+00 0.  1.
         21   -1    0    0  502  503 -0.00000000000E+00 -0.00000000000E+00 -0.23855520690E+03  0.23855520690E+03  0.00000000000E+00 0.  1.
         -6    2    1    2    0  503  0.23709748853E+01  0.76467734589E+02 -0.15609339326E+03  0.24461433066E+03  0.17209906273E+03 0.  0.
        -24    2    3    3    0    0 -0.23155542705E+02  0.11266613857E+03 -0.10180236635E+03  0.17438945505E+03  0.82571921987E+02 0.  0.
          6    2    1    2  501    0 -0.23709748853E+01 -0.76467734589E+02  0.19467205089E+03  0.27107474076E+03  0.17242787398E+03 0.  0.
         24    2    5    5    0    0 -0.13685010954E+01  0.19007778042E+02  0.43895408287E+02  0.92546691368E+02  0.79214359766E+02 0.  0.
          5    1    5    5  501    0 -0.10024737899E+01 -0.95475512631E+02  0.15077664261E+03  0.17852804940E+03  0.47000000000E+01 0. -1.
        -13    1    6    6    0    0  0.36223062735E+02 -0.53662736516E+01  0.18068342073E+02  0.40833468528E+02  0.00000000000E+00 0.  1.
         14    1    6    6    0    0 -0.37591563830E+02  0.24374051694E+02  0.25827066214E+02  0.51713222839E+02  0.00000000000E+00 0. -1.
         -5    1    3    3    0  503  0.25526517590E+02 -0.36198403986E+02 -0.54291026910E+02  0.70224875610E+02  0.47000000000E+01 0.  1.
         11    1    4    4    0    0  0.23068323187E+02  0.21859371146E+02 -0.21301109981E+01  0.31851483708E+02  0.00000000000E+00 0. -1.
        -12    1    4    4    0    0 -0.46223865891E+02  0.90806767429E+02 -0.99672255350E+02  0.14253797135E+03  0.00000000000E+00 0.  1.
</event>
<event>
12    1  0.8563264E-002  0.2098458E+03  0.7818608E-02  0.1141730E+00
         21   -1    0    0  503  502  0.00000000000E+00  0.00000000000E+00  0.16541664494E+04  0.16541664494E+04  0.00000000000E+00 0. -1.
         21   -1    0    0  501  503 -0.00000000000E+00 -0.00000000000E+00 -0.30442414008E+02  0.30442414008E+02  0.00000000000E+00 0.  1.
          6    2    1    2  501    0 -0.50138824997E+02  0.10917811833E+03  0.51274151411E+03  0.55402087709E+03  0.17205088976E+03 0.  0.
         24    2    3    3    0    0 -0.93881737089E+02  0.74469770701E+02  0.41443826265E+03  0.44086730445E+03  0.90804070825E+02 0.  0.
         -6    2    1    2    0  502  0.50138824997E+02 -0.10917811833E+03  0.11109825213E+04  0.11305879863E+04  0.17179426334E+03 0.  0.
        -24    2    5    5    0    0  0.62920343923E+02 -0.39028434679E+01  0.51510030769E+03  0.52532444603E+03  0.81628700526E+02 0.  0.
          5    1    3    3  501    0  0.43742912092E+02  0.34708347634E+02  0.98303251464E+02  0.11315357264E+03  0.47000000000E+01 0. -1.
        -11    1    4    4    0    0 -0.71325223603E+01  0.18372834669E+02  0.76090673405E+01  0.21126567038E+02  0.00000000000E+00 0.  1.
         12    1    4    4    0    0 -0.86749214729E+02  0.56096936032E+02  0.40682919531E+03  0.41974073741E+03  0.00000000000E+00 0. -1.
         -5    1    5    5    0  502 -0.12781518926E+02 -0.10527527487E+03  0.59588221361E+03  0.60526354030E+03  0.47000000000E+01 0.  1.
         11    1    6    6    0    0  0.19575129816E+02 -0.41289699758E+02  0.24508587635E+03  0.24930926938E+03  0.00000000000E+00 0. -1.
        -12    1    6    6    0    0  0.43345214107E+02  0.37386856290E+02  0.27001443135E+03  0.27601517666E+03  0.00000000000E+00 0.  1.
</event>
<event>
12    1  0.8563264E-002  0.1930771E+03  0.7818608E-02  0.1156016E+00
         21   -1    0    0  503  502  0.00000000000E+00  0.00000000000E+00  0.79689583908E+02  0.79689583908E+02  0.00000000000E+00 0.  1.
         21   -1    0    0  501  503 -0.00000000000E+00 -0.00000000000E+00 -0.10961539986E+04  0.10961539986E+04  0.00000000000E+00 0.  1.
          6    2    1    2  501    0  0.46562039859E+02 -0.72184325217E+02 -0.95376256582E+03  0.97284038115E+03  0.17139654275E+03 0.  0.
         24    2    3    3    0    0  0.73790837464E+02 -0.15555556404E+02 -0.37862771332E+03  0.39426418614E+03  0.79989000144E+02 0.  0.
         -6    2    1    2    0  502 -0.46562039859E+02  0.72184325217E+02 -0.62701848887E+02  0.20300320138E+03  0.17291667806E+03 0.  0.
        -24    2    5    5    0    0 -0.38933241686E+02  0.38756009632E+02 -0.10806900705E+03  0.14594253292E+03  0.81255689277E+02 0.  0.
          5    1    3    3  501    0 -0.27228797605E+02 -0.56628768812E+02 -0.57513485250E+03  0.57857619501E+03  0.47000000000E+01 0. -1.
        -13    1    4    4    0    0  0.58969873112E+02  0.21001087938E+01 -0.35949871507E+03  0.36430918535E+03  0.00000000000E+00 0.  1.
         14    1    4    4    0    0  0.14820964352E+02 -0.17655665198E+02 -0.19128998248E+02  0.29955000783E+02  0.00000000000E+00 0. -1.
         -5    1    5    5    0  502 -0.76287981726E+01  0.33428315585E+02  0.45367158165E+02  0.57060668454E+02  0.47000000000E+01 0.  1.
         13    1    6    6    0    0  0.21555199593E+02  0.91071428443E+01 -0.68968133828E+01  0.24395342079E+02  0.00000000000E+00 0. -1.
        -14    1    6    6    0    0 -0.60488441280E+02  0.29648866788E+02 -0.10117219367E+03  0.12154719084E+03  0.00000000000E+00 0.  1.
</event>
<event>
12    1  0.8563264E-002  0.1903047E+03  0.7818608E-02  0.1158702E+00
         21   -1    0    0  501  502  0.00000000000E+00  0.00000000000E+00  0.61971582351E+02  0.61971582351E+02  0.00000000000E+00 0. -1.
         21   -1    0    0  502  503 -0.00000000000E+00 -0.00000000000E+00 -0.57986294836E+03  0.57986294836E+03  0.00000000000E+00 0.  1.
         -6    2    1    2    0  503 -0.76883634364E+02 -0.27217338704E+02 -0.28129114411E+03  0.33961829376E+03  0.17194185336E+03 0.  0.
        -24    2    3    3    0    0 -0.10922357076E+03 -0.27189608103E+02 -0.14787600043E+03  0.20225904645E+03  0.79826982719E+02 0.  0.
          6    2    1    2  501    0  0.76883634364E+02  0.27217338704E+02 -0.23660022189E+03  0.30221623695E+03  0.16941992834E+03 0.  0.
         24    2    5    5    0    0  0.88024642799E+02  0.18269010667E+01 -0.24540392723E+03  0.27274775175E+03  0.80103516004E+02 0.  0.
          5    1    5    5  501    0 -0.11141008435E+02  0.25390437638E+02  0.88037053398E+01  0.29468485202E+02  0.47000000000E+01 0. -1.
        -11    1    6    6    0    0  0.85708276304E+01  0.32686266745E+02 -0.70540032650E+02  0.78216029855E+02  0.00000000000E+00 0.  1.
         12    1    6    6    0    0  0.79453815169E+02 -0.30859365679E+02 -0.17486389458E+03  0.19453172189E+03  0.00000000000E+00 0. -1.
         -5    1    3    3    0  503  0.32339936399E+02 -0.27730600965E-01 -0.13341514368E+03  0.13735924730E+03  0.47000000000E+01 0.  1.
         13    1    4    4    0    0 -0.58092436898E+02 -0.21735091046E+02 -0.13601163210E+03  0.14948682040E+03  0.00000000000E+00 0. -1.
        -14    1    4    4    0    0 -0.51131133866E+02 -0.54545170574E+01 -0.11864368333E+02  0.52772226054E+02  0.00000000000E+00 0.  1.
</event>
<event>
12    1  0.8563264E-002  0.1838058E+03  0.7818608E-02  0.1164309E+00
         21   -1    0    0  503  502  0.00000000000E+00  0.00000000000E+00  0.10593442799E+04  0.10593442799E+04  0.00000000000E+00 0.  1.
         21   -1    0    0  501  503 -0.00000000000E+00 -0.00000000000E+00 -0.53166166315E+02  0.53166166315E+02  0.00000000000E+00 0.  1.
          6    2    1    2  501    0 -0.58040092156E+02  0.22735587318E+02  0.14988690358E+03  0.23671412784E+03  0.17228446020E+03 0.  0.
         24    2    3    3    0    0  0.15538827880E+02  0.23344403888E+02  0.13228030883E+02  0.81433846996E+02  0.75299895557E+02 0.  0.
         -6    2    1    2    0  502  0.58040092156E+02 -0.22735587318E+02  0.85629120996E+03  0.87579631833E+03  0.17291326069E+03 0.  0.
        -24    2    5    5    0    0  0.69354254295E+02 -0.13834076543E+02  0.27744179282E+03  0.29674883765E+03  0.78003397249E+02 0.  0.
          5    1    3    3  501    0 -0.73578920036E+02 -0.60881656959E+00  0.13665887270E+03  0.15528028084E+03  0.47000000000E+01 0. -1.
        -13    1    4    4    0    0 -0.14459613060E+02  0.42338182540E+02  0.52853275630E+01  0.45050380665E+02  0.00000000000E+00 0.  1.
         14    1    4    4    0    0  0.29998440939E+02 -0.18993778652E+02  0.79427033203E+01  0.36383466332E+02  0.00000000000E+00 0. -1.
         -5    1    5    5    0  502 -0.11314162138E+02 -0.89015107750E+01  0.57884941714E+03  0.57904748068E+03  0.47000000000E+01 0.  1.
         11    1    6    6    0    0  0.45265172022E+02  0.29809327831E+02  0.16707389618E+03  0.17564514969E+03  0.00000000000E+00 0. -1.
        -12    1    6    6    0    0  0.24089082272E+02 -0.43643404374E+02  0.11036789664E+03  0.12110368796E+03  0.00000000000E+00 0.  1.
</event>
<event>
12    1  0.8563264E-002  0.1988026E+03  0.7818608E-02  0.1152208E+00
         21   -1    0    0  501  502  0.00000000000E+00  0.00000000000E+00  0.50584502646E+03  0.50584502646E+03  0.00000000000E+00 0. -1.
         21   -1    0    0  502  503 -0.00000000000E+00 -0.00000000000E+00 -0.82631257640E+02  0.82631257640E+02  0.00000000000E+00 0. -1.
         -6    2    1    2    0  503 -0.72070998631E+02  0.37795410962E+02  0.12193198122E+03  0.22751480631E+03  0.17399096847E+03 0.  0.
        -24    2    3    3    0    0 -0.78712716512E+02  0.31568256921E+02  0.11542297261E+02  0.11665064533E+03  0.79258449672E+02 0.  0.
          6    2    1    2  501    0  0.72070998631E+02 -0.37795410962E+02  0.30128178760E+03  0.36096147779E+03  0.18138288503E+03 0.  0.
         24    2    5    5    0    0  0.46733597399E+02 -0.86868852207E+02  0.24887182360E+03  0.28467857760E+03  0.96821905317E+02 0.  0.
          5    1    5    5  501    0  0.25337401233E+02  0.49073441244E+02  0.52409963995E+02  0.76282900198E+02  0.47000000000E+01 0. -1.
        -13    1    6    6    0    0 -0.23748522519E+02  0.30613469785E+01  0.41521915914E+02  0.47931551908E+02  0.00000000000E+00 0.  1.
         14    1    6    6    0    0  0.70482119917E+02 -0.89930199185E+02  0.20734990769E+03  0.23674702569E+03  0.00000000000E+00 0. -1.
         -5    1    3    3    0  503  0.66417178804E+01  0.62271540416E+01  0.11038968396E+03  0.11086416098E+03  0.47000000000E+01 0.  1.
         13    1    4    4    0    0 -0.12362301505E+02  0.26559076230E+02  0.35412576024E+02  0.45959346921E+02  0.00000000000E+00 0. -1.
        -14    1    4    4    0    0 -0.66350415006E+02  0.50091806907E+01 -0.23870278763E+02  0.70691298410E+02  0.00000000000E+00 0.  1.
</event>
<event>
12    1  0.8563264E-002  0.1800661E+03  0.7818608E-02  0.1167866E+00
         21   -1    0    0  501  502  0.00000000000E+00  0.00000000000E+00  0.12388740402E+04  0.12388740402E+04  0.00000000000E+00 0.  1.
         21   -1    0    0  502  503 -0.00000000000E+00 -0.00000000000E+00 -0.26228723896E+02  0.26228723896E+02  0.00000000000E+00 0.  1.
         -6    2    1    2    0  503  0.40042742799E+02  0.38159780551E+02  0.65225119095E+03  0.67665013179E+03  0.17135983967E+03 0.  0.
        -24    2    3    3    0    0  0.62128675695E+02  0.48551724123E+02  0.63831026520E+03  0.64815065225E+03  0.80262264449E+02 0.  0.
          6    2    1    2  501    0 -0.40042742799E+02 -0.38159780551E+02  0.56039412539E+03  0.58845263235E+03  0.17080788810E+03 0.  0.
         24    2    5    5    0    0 -0.75284896082E+02  0.16473618847E+02  0.39042439555E+03  0.40641248084E+03  0.82466358267E+02 0.  0.
          5    1    5    5  501    0  0.35242153282E+02 -0.54633399398E+02  0.16996972984E+03  0.18204015151E+03  0.47000000000E+01 0. -1.
        -11    1    6    6    0    0 -0.16947293544E+02 -0.27918200999E+02  0.63925162829E+02  0.71784839264E+02  0.00000000000E+00 0.  1.
         12    1    6    6    0    0 -0.58337602538E+02  0.44391819846E+02  0.32649923272E+03  0.33462764157E+03  0.00000000000E+00 0. -1.
         -5    1    3    3    0  503 -0.22085932896E+02 -0.10391943572E+02  0.13940925748E+02  0.28499479535E+02  0.47000000000E+01 0.  1.
         11    1    4    4    0    0  0.35894137537E+02  0.98219759336E+01  0.51375170323E+03  0.51509773140E+03  0.00000000000E+00 0. -1.
        -12    1    4    4    0    0  0.26234538158E+02  0.38729748189E+02  0.12455856197E+03  0.13305292085E+03  0.00000000000E+00 0.  1.
</event>
<event>
12    1  0.8563264E-002  0.2278049E+03  0.7818608E-02  0.1128679E+00
         21   -1    0    0  501  502  0.00000000000E+00  0.00000000000E+00  0.15400550170E+04  0.15400550170E+04  0.00000000000E+00 0. -1.
         21   -1    0    0  502  503 -0.00000000000E+00 -0.00000000000E+00 -0.36887402437E+02  0.36887402437E+02  0.00000000000E+00 0.  1.
         -6    2    1    2    0  503 -0.18388683656E+02 -0.14735303080E+03  0.50968885510E+03  0.55828112283E+03  0.17275422922E+03 0.  0.
        -24    2    3    3    0    0 -0.72741038693E+01 -0.94472850320E+02  0.48149874133E+03  0.49715322506E+03  0.79638302604E+02 0.  0.
          6    2    1    2  501    0  0.18388683656E+02  0.14735303080E+03  0.99347875949E+03  0.10186612966E+04  0.16917367509E+03 0.  0.
         24    2    5    5    0    0 -0.38732254803E+02  0.49314913380E+02  0.32670367222E+03  0.34228464042E+03  0.80568836289E+02 0.  0.
          5    1    5    5  501    0  0.57120938459E+02  0.98038117420E+02  0.66677508727E+03  0.67637665622E+03  0.47000000000E+01 0. -1.
        -13    1    6    6    0    0  0.23981834841E+02  0.89108790018E+01  0.11528497414E+03  0.11808961609E+03  0.00000000000E+00 0.  1.
         14    1    6    6    0    0 -0.62714089645E+02  0.40404034378E+02  0.21141869808E+03  0.22419502432E+03  0.00000000000E+00 0. -1.
         -5    1    3    3    0  503 -0.11114579787E+02 -0.52880180480E+02  0.28190113768E+02  0.61127897770E+02  0.47000000000E+01 0.  1.
         11    1    4    4    0    0  0.35972098603E+02 -0.39100022691E+02  0.22695541168E+03  0.23309131803E+03  0.00000000000E+00 0. -1.
        -12    1    4    4    0    0 -0.43246202472E+02 -0.55372827629E+02  0.25454332966E+03  0.26406190702E+03  0.00000000000E+00 0.  1.
</event>
<event>
12    1  0.8563264E-002  0.2434884E+03  0.7818608E-02  0.1117822E+00
         21   -1    0    0  501  502  0.00000000000E+00  0.00000000000E+00  0.23821381750E+04  0.23821381750E+04  0.00000000000E+00 0. -1.
         21   -1    0    0  502  503 -0.00000000000E+00 -0.00000000000E+00 -0.34523176664E+02  0.34523176664E+02  0.00000000000E+00 0.  1.
         -6    2    1    2    0  503  0.11987258689E+02 -0.17065804943E+03  0.53216514413E+03  0.58522332174E+03  0.17325914544E+03 0.  0.
        -24    2    3    3    0    0 -0.85209573459E+01 -0.15984168379E+03  0.53226318620E+03  0.56156575841E+03  0.80187474359E+02 0.  0.
          6    2    1    2  501    0 -0.11987258689E+02  0.17065804943E+03  0.18154498542E+04  0.18314380299E+04  0.17040897892E+03 0.  0.
         24    2    5    5    0    0 -0.70222561605E+02  0.13873723879E+03  0.13292948485E+04  0.13407455924E+04  0.79966991511E+02 0.  0.
          5    1    5    5  501    0  0.58235302917E+02  0.31920810636E+02  0.48615500574E+03  0.49069243754E+03  0.47000000000E+01 0. -1.
        -11    1    6    6    0    0  0.13092582740E+02  0.53678586991E+02  0.47172012658E+03  0.47494492759E+03  0.00000000000E+00 0.  1.
         12    1    6    6    0    0 -0.83315144346E+02  0.85058651800E+02  0.85757472190E+03  0.86580066479E+03  0.00000000000E+00 0. -1.
         -5    1    3    3    0  503  0.20508216035E+02 -0.10816365634E+02 -0.98042072034E-01  0.23657563330E+02  0.47000000000E+01 0.  1.
         11    1    4    4    0    0 -0.45565778512E+01  0.77038394805E+01  0.55204078227E+02  0.55924965778E+02  0.00000000000E+00 0. -1.
        -12    1    4    4    0    0 -0.39643794947E+01 -0.16754552327E+03  0.47705910797E+03  0.50564079263E+03  0.00000000000E+00 0.  1.
</event>
<event>
12    1  0.8563264E-002  0.2025461E+03  0.7818608E-02  0.1147656E+00
         21   -1    0    0  501  502  0.00000000000E+00  0.00000000000E+00  0.36472172373E+03  0.36472172373E+03  0.00000000000E+00 0. -1.
         21   -1    0    0  502  503 -0.00000000000E+00 -0.00000000000E+00 -0.12346006915E+03  0.12346006915E+03  0.00000000000E+00 0. -1.
         -6    2    1    2    0  503 -0.85974029102E+02 -0.63285570930E+02  0.47485389110E+02  0.20803797321E+03  0.17212884404E+03 0.  0.
        -24    2    3    3    0    0 -0.10910766635E+03 -0.83136236897E+02  0.95544383968E+01  0.15914972173E+03  0.80132576966E+02 0.  0.
          6    2    1    2  501    0  0.85974029102E+02  0.63285570930E+02  0.19377626547E+03  0.28014381966E+03  0.17185668875E+03 0.  0.
         24    2    5    5    0    0  0.56778916961E+02  0.68223867945E+02  0.21341581432E+03  0.24430329470E+03  0.79116676070E+02 0.  0.
          5    1    5    5  501    0  0.29195112142E+02 -0.49382970150E+01 -0.19639548850E+02  0.35840524960E+02  0.47000000000E+01 0. -1.
        -11    1    6    6    0    0 -0.46176241973E+01  0.44801579346E+02  0.45655617195E+02  0.64132202103E+02  0.00000000000E+00 0.  1.
         12    1    6    6    0    0  0.61396541158E+02  0.23422288599E+02  0.16776019712E+03  0.18017109260E+03  0.00000000000E+00 0. -1.
         -5    1    3    3    0  503  0.23133637244E+02  0.19850665967E+02  0.37930950713E+02  0.48888251487E+02  0.47000000000E+01 0.  1.
         13    1    4    4    0    0 -0.87994634618E+01  0.13161109015E+02 -0.10008798119E+02  0.18730226574E+02  0.00000000000E+00 0. -1.
        -14    1    4    4    0    0 -0.10030820288E+03 -0.96297345913E+02  0.19563236515E+02  0.14041949515E+03  0.00000000000E+00 0.  1.
</event>
<event>
12    1  0.8563264E-002  0.1914985E+03  0.7818608E-02  0.1157433E+00
         21   -1    0    0  503  502  0.00000000000E+00  0.00000000000E+00  0.10637501321E+03  0.10637501321E+03  0.00000000000E+00 0.  1.
         21   -1    0    0  501  503 -0.00000000000E+00 -0.00000000000E+00 -0.43324048200E+03  0.43324048200E+03  0.00000000000E+00 0.  1.
          6    2    1    2  501    0  0.68910508622E+02 -0.47896550795E+02 -0.28663581059E+03  0.34393688745E+03  0.17055719527E+03 0.  0.
         24    2    3    3    0    0  0.25005949109E+02 -0.90538605336E+02 -0.16215577210E+03  0.20514450602E+03  0.83469978892E+02 0.  0.
         -6    2    1    2    0  502 -0.68910508622E+02  0.47896550795E+02 -0.40229658200E+02  0.19567860777E+03  0.17213063168E+03 0.  0.
        -24    2    5    5    0    0 -0.97595613248E+01 -0.36300394374E+02 -0.21828740329E+02  0.91042839886E+02  0.79995856900E+02 0.  0.
          5    1    3    3  501    0  0.43904559513E+02  0.42642054542E+02 -0.12448003848E+03  0.13879238143E+03  0.47000000000E+01 0. -1.
        -13    1    4    4    0    0  0.36250990364E+02 -0.10038301129E+03 -0.12092050685E+03  0.16128438311E+03  0.00000000000E+00 0.  1.
         14    1    4    4    0    0 -0.11245041255E+02  0.98444059508E+01 -0.41235265251E+02  0.43860122910E+02  0.00000000000E+00 0. -1.
         -5    1    5    5    0  502 -0.59150947297E+02  0.84196945169E+02 -0.18400917870E+02  0.10463576788E+03  0.47000000000E+01 0.  1.
         13    1    6    6    0    0 -0.29133871160E+02 -0.53738389338E+02 -0.22028735262E+02  0.64975857937E+02  0.00000000000E+00 0. -1.
        -14    1    6    6    0    0  0.19374309835E+02  0.17437994964E+02  0.19999493261E+00  0.26066981949E+02  0.00000000000E+00 0.  1.
</event>
<event>
12    1  0.8563264E-002  0.1790526E+03  0.7818608E-02  0.1169362E+00
         21   -1    0    0  501  502  0.00000000000E+00  0.00000000000E+00  0.94045244881E+03  0.94045244881E+03  0.00000000000E+00 0. -1.
         21   -1    0    0  502  503 -0.00000000000E+00 -0.00000000000E+00 -0.34402111646E+02  0.34402111646E+02  0.00000000000E+00 0. -1.
         -6    2    1    2    0  503  0.10551863763E+02 -0.37966864256E+02  0.53087697327E+03  0.56025902975E+03  0.17466251762E+03 0.  0.
        -24    2    3    3    0    0 -0.22158744433E+02 -0.66421212758E+02  0.48855280815E+03  0.49948848763E+03  0.76825226727E+02 0.  0.
          6    2    1    2  501    0 -0.10551863763E+02  0.37966864256E+02  0.37517336390E+03  0.41459553071E+03  0.17199295478E+03 0.  0.
         24    2    5    5    0    0 -0.52124266905E+02  0.35869045830E+02  0.35214766724E+03  0.36679450298E+03  0.80787995542E+02 0.  0.
          5    1    5    5  501    0  0.41572403142E+02  0.20978184254E+01  0.23025696658E+02  0.47801027727E+02  0.47000000000E+01 0. -1.
        -13    1    6    6    0    0 -0.14546710512E+02  0.48023058559E+02  0.28077414950E+03  0.28522262176E+03  0.00000000000E+00 0.  1.
         14    1    6    6    0    0 -0.37577556393E+02 -0.12154012729E+02  0.71373517742E+02  0.81571881213E+02  0.00000000000E+00 0. -1.
         -5    1    3    3    0  503  0.32710608196E+02  0.28454348503E+02  0.42324165121E+02  0.60770542127E+02  0.47000000000E+01 0.  1.
         13    1    4    4    0    0 -0.44647437007E+02 -0.26255934661E+02  0.34131284271E+03  0.34522054449E+03  0.00000000000E+00 0. -1.
        -14    1    4    4    0    0  0.22488692574E+02 -0.40165278097E+02  0.14723996543E+03  0.15426794314E+03  0.00000000000E+00 0.  1.
</event>
<event>
12    1  0.8563264E-002  0.2247104E+03  0.7818608E-02  0.1131901E+00
         21   -1    0    0  501  502  0.00000000000E+00  0.00000000000E+00  0.53671741662E+02  0.53671741662E+02  0.00000000000E+00 0. -1.
         21   -1    0    0  502  503 -0.00000000000E+00 -0.00000000000E+00 -0.11415993663E+04  0.11415993663E+04  0.00000000000E+00 0. -1.
         -6    2    1    2    0  503 -0.93931844568E+02 -0.11041052647E+03 -0.80667685132E+03  0.83527563381E+03  0.16107192867E+03 0.  0.
        -24    2    3    3    0    0 -0.12186746657E+03 -0.11152866139E+03 -0.62289983437E+03  0.64932475008E+03  0.79549391479E+02 0.  0.
          6    2    1    2  501    0  0.93931844568E+02  0.11041052647E+03 -0.28125077334E+03  0.35999547417E+03  0.17170051876E+03 0.  0.
         24    2    5    5    0    0  0.27171100518E+01  0.99784691490E+02 -0.12969389467E+03  0.18272558493E+03  0.81263557201E+02 0.  0.
          5    1    5    5  501    0  0.91214734516E+02  0.10625834980E+02 -0.15155687867E+03  0.17726988925E+03  0.47000000000E+01 0. -1.
        -11    1    6    6    0    0  0.23344407362E+02  0.81394115359E+01 -0.62549857760E+02  0.67258427584E+02  0.00000000000E+00 0.  1.
         12    1    6    6    0    0 -0.20627297310E+02  0.91645279954E+02 -0.67144036912E+02  0.11546715734E+03  0.00000000000E+00 0. -1.
         -5    1    3    3    0  503  0.27935622002E+02  0.11181349226E+01 -0.18377701695E+03  0.18595088373E+03  0.47000000000E+01 0.  1.
         13    1    4    4    0    0 -0.12321475524E+03 -0.11859245222E+03 -0.54760857050E+03  0.57369085065E+03  0.00000000000E+00 0. -1.
        -14    1    4    4    0    0  0.13472886700E+01  0.70637908305E+01 -0.75291263866E+02  0.75633899425E+02  0.00000000000E+00 0.  1.
</event>
<event>
12    1  0.8563264E-002  0.1758184E+03  0.7818608E-02  0.1172544E+00
         21   -1    0    0  501  502  0.00000000000E+00  0.00000000000E+00  0.46232582949E+03  0.46232582949E+03  0.00000000000E+00 0. -1.
         21   -1    0    0  502  503 -0.00000000000E+00 -0.00000000000E+00 -0.70073012258E+02  0.70073012258E+02  0.00000000000E+00 0. -1.
         -6    2    1    2    0  503 -0.17133516580E+02 -0.82014123534E+01  0.25968023030E+03  0.31219985981E+03  0.17226174822E+03 0.  0.
        -24    2    3    3    0    0  0.62403462550E+01  0.58696404533E+02  0.18184320142E+03  0.20683217770E+03  0.78920149530E+02 0.  0.
          6    2    1    2  501    0  0.17133516580E+02  0.82014123534E+01  0.13257258694E+03  0.22019898195E+03  0.17478924535E+03 0.  0.
         24    2    5    5    0    0 -0.25186915460E+02  0.42713581598E+02  0.13750408533E+03  0.16516700515E+03  0.76902115332E+02 0.  0.
          5    1    5    5  501    0  0.42320432040E+02 -0.34512169244E+02 -0.49314983982E+01  0.55031976799E+02  0.47000000000E+01 0. -1.
        -13    1    6    6    0    0 -0.27633452715E+02  0.62303312169E+02  0.84221571009E+02  0.10834474348E+03  0.00000000000E+00 0.  1.
         14    1    6    6    0    0  0.24465372553E+01 -0.19589730571E+02  0.53282514325E+02  0.56822261669E+02  0.00000000000E+00 0. -1.
         -5    1    3    3    0  503 -0.23373862835E+02 -0.66897816887E+02  0.77837028878E+02  0.10536768211E+03  0.47000000000E+01 0.  1.
         11    1    4    4    0    0 -0.58332344687E+01  0.60969428272E+02  0.18438063117E+03  0.19428719710E+03  0.00000000000E+00 0. -1.
        -12    1    4    4    0    0  0.12073580724E+02 -0.22730237387E+01 -0.25374297473E+01  0.12544980595E+02  0.00000000000E+00 0.  1.
</event>
<event>
12    1  0.8563264E-002  0.1722221E+03  0.7818608E-02  0.1175654E+00
         21   -1    0    0  503  502  0.00000000000E+00  0.00000000000E+00  0.11242729257E+04  0.11242729257E+04  0.00000000000E+00 0.  1.
         21   -1    0    0  501  503 -0.00000000000E+00 -0.00000000000E+00 -0.27090818492E+02  0.27090818492E+02  0.00000000000E+00 0.  1.
          6    2    1    2  501    0  0.67273121374E+00  0.70249311665E+01  0.64632496000E+03  0.66887697832E+03  0.17207747088E+03 0.  0.
         24    2    3    3    0    0 -0.42871645741E+02 -0.45635108653E+02  0.43322364790E+03  0.44503897490E+03  0.80351844575E+02 0.  0.
         -6    2    1    2    0  502 -0.67273121374E+00 -0.70249311665E+01  0.45085714718E+03  0.48248676585E+03  0.17167268224E+03 0.  0.
        -24    2    5    5    0    0 -0.35732793763E+02 -0.15713728891E+02  0.43382315215E+03  0.44227544681E+03  0.76689566966E+02 0.  0.
          5    1    3    3  501    0  0.43544376955E+02  0.52660039820E+02  0.21310131210E+03  0.22383800342E+03  0.47000000000E+01 0. -1.
        -11    1    4    4    0    0 -0.18015983247E+02 -0.12437680512E+02  0.36169954074E+03  0.36236146224E+03  0.00000000000E+00 0.  1.
         12    1    4    4    0    0 -0.24855662495E+02 -0.33197428141E+02  0.71524107164E+02  0.82677512655E+02  0.00000000000E+00 0. -1.
         -5    1    5    5    0  502  0.35060062549E+02  0.86887977243E+01  0.17033995027E+02  0.40211319034E+02  0.47000000000E+01 0.  1.
         13    1    6    6    0    0  0.10118008623E+02 -0.34795439534E+02  0.19614554130E+03  0.19946470886E+03  0.00000000000E+00 0. -1.
        -14    1    6    6    0    0 -0.45850802386E+02  0.19081710644E+02  0.23767761086E+03  0.24281073795E+03  0.00000000000E+00 0.  1.
</event>
<event>
12    1  0.8563264E-002  0.2088905E+03  0.7818608E-02  0.1143637E+00
         21   -1    0    0  503  502  0.00000000000E+00  0.00000000000E+00  0.63528767210E+02  0.63528767210E+02  0.00000000000E+00 0.  1.
         21   -1    0    0  501  503 -0.00000000000E+00 -0.00000000000E+00 -0.77008111053E+03  0.77008111053E+03  0.00000000000E+00 0.  1.
          6    2    1    2  501    0  0.97084819705E+02 -0.47190717729E+02 -0.50962659453E+03  0.55077626990E+03  0.17883737745E+03 0.  0.
         24    2    3    3    0    0  0.12822760879E+03 -0.22790083065E+02 -0.29265363169E+03  0.33017567858E+03  0.80050752932E+02 0.  0.
         -6    2    1    2    0  502 -0.97084819705E+02  0.47190717729E+02 -0.19692574879E+03  0.28283360784E+03  0.17193799211E+03 0.  0.
        -24    2    5    5    0    0  0.18079931615E+02  0.18269555618E+02 -0.71501768528E+02  0.11005450497E+03  0.79616773183E+02 0.  0.
          5    1    3    3  501    0 -0.31142789082E+02 -0.24400634664E+02 -0.21697296285E+03  0.22060059132E+03  0.47000000000E+01 0. -1.
        -13    1    4    4    0    0  0.10606582246E+03  0.15265020565E+02 -0.18388350047E+03  0.21282885446E+03  0.00000000000E+00 0.  1.
         14    1    4    4    0    0  0.22161786327E+02 -0.38055103629E+02 -0.10877013122E+03  0.11734682412E+03  0.00000000000E+00 0. -1.
         -5    1    5    5    0  502 -0.11516475132E+03  0.28921162111E+02 -0.12542398026E+03  0.17277910287E+03  0.47000000000E+01 0.  1.
         11    1    6    6    0    0  0.14009015743E+02  0.39475431765E+02 -0.77103300830E+02  0.87746687881E+02  0.00000000000E+00 0. -1.
        -12    1    6    6    0    0  0.40709158723E+01 -0.21205876147E+02  0.56015323024E+01  0.22307817090E+02  0.00000000000E+00 0.  1.
</event>
<event>
12    1  0.8563264E-002  0.2279906E+03  0.7818608E-02  0.1128289E+00
         21   -1    0    0  503  502  0.00000000000E+00  0.00000000000E+00  0.55297301167E+03  0.55297301167E+03  0.00000000000E+00 0.  1.
         21   -1    0    0  501  503 -0.00000000000E+00 -0.00000000000E+00 -0.96939989453E+02  0.96939989453E+02  0.00000000000E+00 0.  1.
          6    2    1    2  501    0  0.14090602384E+03  0.51290598984E+02  0.16721772537E+03  0.28273922405E+03  0.17173953545E+03 0.  0.
         24    2    3    3    0    0  0.50396574694E+02 -0.26701607095E+02  0.11717119446E+03  0.15311866298E+03  0.80395556969E+02 0.  0.
         -6    2    1    2    0  502 -0.14090602384E+03 -0.51290598984E+02  0.28881529684E+03  0.36717377707E+03  0.17005020959E+03 0.  0.
        -24    2    5    5    0    0 -0.38286536196E+02 -0.77450116545E+02  0.19146184982E+03  0.22324718728E+03  0.75612745499E+02 0.  0.
          5    1    3    3  501    0  0.90509449149E+02  0.77992206080E+02  0.50046530911E+02  0.12962056106E+03  0.47000000000E+01 0. -1.
        -11    1    4    4    0    0 -0.57329757875E+01 -0.44385089820E+01 -0.99929918195E+01  0.12346143482E+02  0.00000000000E+00 0.  1.
         12    1    4    4    0    0  0.56129550481E+02 -0.22263098113E+02  0.12716418628E+03  0.14077251950E+03  0.00000000000E+00 0. -1.
         -5    1    5    5    0  502 -0.10261948765E+03  0.26159517561E+02  0.97353447018E+02  0.14392658980E+03  0.47000000000E+01 0.  1.
         11    1    6    6    0    0  0.17085962681E+02 -0.30258821227E+02  0.29080501748E+02  0.45312271679E+02  0.00000000000E+00 0. -1.
        -12    1    6    6    0    0 -0.55372498877E+02 -0.47191295319E+02  0.16238134808E+03  0.17793491560E+03  0.00000000000E+00 0.  1.
</event>
<event>
12    1  0.8563264E-002  0.1867131E+03  0.7818608E-02  0.1162102E+00
         21   -1    0    0  503  502  0.00000000000E+00  0.00000000000E+00  0.21664040238E+04  0.21664040238E+04  0.00000000000E+00 0. -1.
         21   -1    0    0  501  503 -0.00000000000E+00 -0.00000000000E+00 -0.21982492536E+02  0.21982492536E+02  0.00000000000E+00 0. -1.
          6    2    1    2  501    0  0.53739684283E+02  0.49555972158E+02  0.50028307242E+03  0.53398965293E+03  0.17180817455E+03 0.  0.
         24    2    3    3    0    0 -0.25044344375E+02 -0.45905432066E+01  0.30967491228E+03  0.32070034469E+03  0.79384302705E+02 0.  0.
         -6    2    1    2    0  502 -0.53739684283E+02 -0.49555972158E+02  0.16441384589E+04  0.16543968634E+04  0.16880154548E+03 0.  0.
        -24    2    5    5    0    0 -0.11570622112E+02 -0.92181372140E+02  0.10105477104E+04  0.10179579574E+04  0.80002771407E+02 0.  0.
          5    1    3    3  501    0  0.78784028658E+02  0.54146515364E+02  0.19060816014E+03  0.21328930824E+03  0.47000000000E+01 0. -1.
        -13    1    4    4    0    0  0.11384733889E+02  0.28069195278E+01  0.25078963157E+03  0.25106359805E+03  0.00000000000E+00 0.  1.
         14    1    4    4    0    0 -0.36429078265E+02 -0.73974627343E+01  0.58885280710E+02  0.69636746638E+02  0.00000000000E+00 0. -1.
         -5    1    5    5    0  502 -0.42169062171E+02  0.42625399983E+02  0.63359074844E+03  0.63643890598E+03  0.47000000000E+01 0.  1.
         13    1    6    6    0    0  0.20321955979E+02 -0.28482491440E+02  0.61863023032E+03  0.61961891198E+03  0.00000000000E+00 0. -1.
        -14    1    6    6    0    0 -0.31892578091E+02 -0.63698880700E+02  0.39191748009E+03  0.39833904546E+03  0.00000000000E+00 0.  1.
</event>
<event>
12    1  0.8563264E-002  0.1818869E+03  0.7818608E-02  0.1166344E+00
         21   -1    0    0  503  502  0.00000000000E+00  0.00000000000E+00  0.15011197390E+03  0.15011197390E+03  0.00000000000E+00 0. -1.
         21   -1    0    0  501  503 -0.00000000000E+00 -0.00000000000E+00 -0.30748459424E+03  0.30748459424E+03  0.00000000000E+00 0. -1.
          6    2    1    2  501    0  0.15101486866E+02  0.51434354181E+02  0.44557233924E+02  0.18582731775E+03  0.17225822834E+03 0.  0.
         24    2    3    3    0    0 -0.10590836632E+02  0.44860523399E+02  0.94338486989E+02  0.12922719501E+03  0.75334490254E+02 0.  0.
         -6    2    1    2    0  502 -0.15101486866E+02 -0.51434354181E+02 -0.20192985426E+03  0.27176925039E+03  0.17380826136E+03 0.  0.
        -24    2    5    5    0    0  0.18672639282E+01 -0.32058779714E+02 -0.22168634395E+03  0.23897046575E+03  0.83251404633E+02 0.  0.
          5    1    3    3  501    0  0.25692323498E+02  0.65738307815E+01 -0.49781253066E+02  0.56600122744E+02  0.47000000000E+01 0. -1.
        -11    1    4    4    0    0  0.28844342488E+02  0.20308991260E+02  0.65933822233E+02  0.74777805088E+02  0.00000000000E+00 0.  1.
         12    1    4    4    0    0 -0.39435179120E+02  0.24551532139E+02  0.28404664756E+02  0.54449389919E+02  0.00000000000E+00 0. -1.
         -5    1    5    5    0  502 -0.16968750794E+02 -0.19375574466E+02  0.19756489686E+02  0.32798784644E+02  0.47000000000E+01 0.  1.
         11    1    6    6    0    0  0.30864908999E+02 -0.47166570831E+02 -0.14720151724E+03  0.15762491773E+03  0.00000000000E+00 0. -1.
        -12    1    6    6    0    0 -0.28997645071E+02  0.15107791116E+02 -0.74484826709E+02  0.81345548015E+02  0.00000000000E+00 0.  1.
</event>
<event>
12    1  0.8563264E-002  0.1998919E+03  0.7818608E-02  0.1149883E+00
         21   -1    0    0  503  502  0.00000000000E+00  0.00000000000E+00  0.33894393130E+03  0.33894393130E+03  0.00000000000E+00 0.  1.
         21   -1    0    0  501  503 -0.00000000000E+00 -0.00000000000E+00 -0.12131100467E+03  0.12131100467E+03  0.00000000000E+00 0.  1.
          6    2    1    2  501    0 -0.97932302293E+02 -0.32657627401E+02  0.69394486705E+02  0.21159479137E+03  0.17117098028E+03 0.  0.
         24    2    3    3    0    0 -0.54140053703E+02 -0.63679366886E+02  0.96920845955E+02  0.15109768556E+03  0.80315957441E+02 0.  0.
         -6    2    1    2    0  502  0.97932302293E+02  0.32657627401E+02  0.14823843993E+03  0.24866014460E+03  0.17088000462E+03 0.  0.
        -24    2    5    5    0    0 -0.11610744301E+02  0.82250220219E+01  0.84045197348E+02  0.11927894946E+03  0.83435077856E+02 0.  0.
          5    1    3    3  501    0 -0.43792248590E+02  0.31021739485E+02 -0.27526359250E+02  0.60497105805E+02  0.47000000000E+01 0. -1.
        -11    1    4    4    0    0 -0.14382355062E+02 -0.63626159976E+02  0.26865938558E+02  0.70547282195E+02  0.00000000000E+00 0.  1.
         12    1    4    4    0    0 -0.39757698641E+02 -0.53206909624E-01  0.70054907397E+02  0.80550403367E+02  0.00000000000E+00 0. -1.
         -5    1    5    5    0  502  0.10954304659E+03  0.24432605379E+02  0.64193242586E+02  0.12938119514E+03  0.47000000000E+01 0.  1.
         11    1    6    6    0    0  0.40410973600E+01  0.44703877052E+02  0.46812570619E+02  0.64855098946E+02  0.00000000000E+00 0. -1.
        -12    1    6    6    0    0 -0.15651841661E+02 -0.36478855030E+02  0.37232626729E+02  0.54423850514E+02  0.00000000000E+00 0.  1.
</event>
<event>
12    1  0.8563264E-002  0.1723279E+03  0.7818608E-02  0.1175664E+00
         21   -1    0    0  501  502  0.00000000000E+00  0.00000000000E+00  0.17616251111E+03  0.17616251111E+03  0.00000000000E+00 0.  1.
         21   -1    0    0  502  503 -0.00000000000E+00 -0.00000000000E+00 -0.16773552806E+03  0.16773552806E+03  0.00000000000E+00 0.  1.
         -6    2    1    2    0  503  0.84434317846E+01 -0.21286839543E+01  0.33721855484E+01  0.17236084120E+03  0.17210771368E+03 0.  0.
        -24    2    3    3    0    0  0.42150033695E+02  0.26039955197E+02 -0.50073076745E+02  0.10302042509E+03  0.75174399658E+02 0.  0.
          6    2    1    2  501    0 -0.84434317846E+01  0.21286839543E+01  0.50547974994E+01  0.17153719798E+03  0.17124145665E+03 0.  0.
         24    2    5    5    0    0 -0.30824706066E+02  0.56400349601E+02  0.30530746294E+02  0.10736984571E+03  0.80405194847E+02 0.  0.
          5    1    5    5  501    0  0.22381274281E+02 -0.54271665647E+02 -0.25475948795E+02  0.64167352271E+02  0.47000000000E+01 0. -1.
        -13    1    6    6    0    0 -0.35028260982E+02  0.38380043742E+02 -0.18347931722E+02  0.55105838380E+02  0.00000000000E+00 0.  1.
         14    1    6    6    0    0  0.42035549160E+01  0.18020305859E+02  0.48878678016E+02  0.52264007326E+02  0.00000000000E+00 0. -1.
         -5    1    3    3    0  503 -0.33706601911E+02 -0.28168639151E+02  0.53445262293E+02  0.69340416105E+02  0.47000000000E+01 0.  1.
         11    1    4    4    0    0  0.53937020773E+02  0.23223241903E+02 -0.80360730766E+01  0.59271406638E+02  0.00000000000E+00 0. -1.
        -12    1    4    4    0    0 -0.11786987078E+02  0.28167132940E+01 -0.42037003668E+02  0.43749018452E+02  0.00000000000E+00 0.  1.
</event>
<event>
12    1  0.8563264E-002  0.2164667E+03  0.7818608E-02  0.1137073E+00
         21   -1    0    0  501  502  0.00000000000E+00  0.00000000000E+00  0.87990258816E+02  0.87990258816E+02  0.00000000000E+00 0.  1.
         21   -1    0    0  502  503 -0.00000000000E+00 -0.00000000000E+00 -0.82027551290E+03  0.82027551290E+03  0.00000000000E+00 0.  1.
         -6    2    1    2    0  503 -0.13057239225E+03 -0.76701190134E+01 -0.63975012927E+03  0.67537994920E+03  0.17248149910E+03 0.  0.
        -24    2    3    3    0    0 -0.49266477216E+02  0.12003287786E+02 -0.52645199689E+03  0.53446773697E+03  0.77024620318E+02 0.  0.
          6    2    1    2  501    0  0.13057239225E+03  0.76701190134E+01 -0.92535124808E+02  0.23288582252E+03  0.16901206070E+03 0.  0.
         24    2    5    5    0    0  0.81564225586E+02 -0.57936704579E+02 -0.76935141219E+02  0.14939028258E+03  0.79931570371E+02 0.  0.
          5    1    5    5  501    0  0.49008166660E+02  0.65606823593E+02 -0.15599983589E+02  0.83495539936E+02  0.47000000000E+01 0. -1.
        -11    1    6    6    0    0  0.70524218787E+02 -0.19623134942E+01 -0.36271768263E+02  0.79329422554E+02  0.00000000000E+00 0.  1.
         12    1    6    6    0    0  0.11040006799E+02 -0.55974391085E+02 -0.40663372956E+02  0.70060860027E+02  0.00000000000E+00 0. -1.
         -5    1    3    3    0  503 -0.81305915030E+02 -0.19673406799E+02 -0.11329813239E+03  0.14091221223E+03  0.47000000000E+01 0.  1.
         11    1    4    4    0    0 -0.18019296027E+01 -0.29205352588E+02 -0.15588583514E+03  0.15860830107E+03  0.00000000000E+00 0. -1.
        -12    1    4    4    0    0 -0.47464547613E+02  0.41208640374E+02 -0.37056616175E+03  0.37585943590E+03  0.00000000000E+00 0.  1.
</event>
<event>
12    1  0.8563264E-002  0.1783221E+03  0.7818608E-02  0.1169695E+00
         21   -1    0    0  501  502  0.00000000000E+00  0.00000000000E+00  0.14240065280E+03  0.14240065280E+03  0.00000000000E+00 0. -1.
         21   -1    0    0  502  503 -0.00000000000E+00 -0.00000000000E+00 -0.22205523471E+03  0.22205523471E+03  0.00000000000E+00 0. -1.
         -6    2    1    2    0  503 -0.35474966100E+01 -0.43383452962E+02 -0.43016507369E+02  0.18343717348E+03  0.17292792714E+03 0.  0.
        -24    2    3    3    0    0 -0.64001059785E+02  0.17486223245E+01 -0.35822125515E+02  0.10750703025E+03  0.78583354108E+02 0.  0.
          6    2    1    2  501    0  0.35474966100E+01  0.43383452962E+02 -0.36638074543E+02  0.18101871403E+03  0.17184503950E+03 0.  0.
         24    2    5    5    0    0 -0.47233339634E+02  0.95349362805E+01 -0.64965432822E+02  0.11357284953E+03  0.79726917078E+02 0.  0.
          5    1    5    5  501    0  0.50780836244E+02  0.33848516681E+02  0.28327358279E+02  0.67445864500E+02  0.47000000000E+01 0. -1.
        -11    1    6    6    0    0 -0.51532858766E+02  0.12394540080E+00 -0.39475746412E+01  0.51683984372E+02  0.00000000000E+00 0.  1.
         12    1    6    6    0    0  0.42995191317E+01  0.94109908797E+01 -0.61017858181E+02  0.61888865162E+02  0.00000000000E+00 0. -1.
         -5    1    3    3    0  503  0.60453563175E+02 -0.45132075286E+02 -0.71943818532E+01  0.75930143227E+02  0.47000000000E+01 0.  1.
         11    1    4    4    0    0 -0.66609606145E+02 -0.12090175621E+01  0.47068484761E+01  0.66786643701E+02  0.00000000000E+00 0. -1.
        -12    1    4    4    0    0  0.26085463604E+01  0.29576398866E+01 -0.40528973992E+02  0.40720386548E+02  0.00000000000E+00 0.  1.
</event>
<event>
12    1  0.8563264E-002  0.1797838E+03  0.7818608E-02  0.1168370E+00
         21   -1    0    0  503  502  0.00000000000E+00  0.00000000000E+00  0.20984459172E+03  0.20984459172E+03  0.00000000000E+00 0.  1.
         21   -1    0    0  501  503 -0.00000000000E+00 -0.00000000000E+00 -0.16562078355E+03  0.16562078355E+03  0.00000000000E+00 0.  1.
          6    2    1    2  501    0 -0.40309599544E+02  0.21304433540E+02 -0.30258060320E+02  0.18086382022E+03  0.17238743732E+03 0.  0.
         24    2    3    3    0    0 -0.23176310765E+02  0.80013922259E+02 -0.18630259687E+02  0.11843266295E+03  0.82096528199E+02 0.  0.
         -6    2    1    2    0  502  0.40309599544E+02 -0.21304433540E+02  0.74481868491E+02  0.19460155505E+03  0.17390650876E+03 0.  0.
        -24    2    5    5    0    0  0.30665552296E+02  0.51590539105E+02  0.65077194302E+02  0.12032354632E+03  0.81490826221E+02 0.  0.
          5    1    3    3  501    0 -0.17133288779E+02 -0.58709488719E+02 -0.11627800633E+02  0.62431157266E+02  0.47000000000E+01 0. -1.
        -11    1    4    4    0    0 -0.17250909326E+02  0.55434243769E+02 -0.51057225156E+02  0.77313578985E+02  0.00000000000E+00 0.  1.
         12    1    4    4    0    0 -0.59254014395E+01  0.24579678490E+02  0.32426965469E+02  0.41119083969E+02  0.00000000000E+00 0. -1.
         -5    1    5    5    0  502  0.96440472481E+01 -0.72894972645E+02  0.94046741889E+01  0.74278008729E+02  0.47000000000E+01 0.  1.
         11    1    6    6    0    0  0.56181993414E+02  0.36899495493E+02  0.27595391687E+02  0.72660132080E+02  0.00000000000E+00 0. -1.
        -12    1    6    6    0    0 -0.25516441118E+02  0.14691043612E+02  0.37481802616E+02  0.47663414241E+02  0.00000000000E+00 0.  1.
</event>
<event>
12    1  0.8563264E-002  0.2233169E+03  0.7818608E-02  0.1131547E+00
         21   -1    0    0  501  502  0.00000000000E+00  0.00000000000E+00  0.21863872378E+03  0.21863872378E+03  0.00000000000E+00 0.  1.
         21   -1    0    0  502  503 -0.00000000000E+00 -0.00000000000E+00 -0.46922675929E+03  0.46922675929E+03  0.00000000000E+00 0.  1.
         -6    2    1    2    0  503 -0.12905114628E+03  0.59088267372E+02 -0.37225299539E+03  0.43409991341E+03  0.17240887607E+03 0.  0.
        -24    2    3    3    0    0 -0.34871868551E+02  0.69215723946E+02 -0.28134134353E+03  0.30272518154E+03  0.80515342028E+02 0.  0.
          6    2    1    2  501    0  0.12905114628E+03 -0.59088267372E+02  0.12166495989E+03  0.25376556966E+03  0.17160705167E+03 0.  0.
         24    2    5    5    0    0  0.12723539417E+03  0.41588261004E+01  0.11625503250E+03  0.19008787260E+03  0.80075123262E+02 0.  0.
          5    1    5    5  501    0  0.18157521152E+01 -0.63247093472E+02  0.54099273842E+01  0.63677697059E+02  0.47000000000E+01 0. -1.
        -13    1    6    6    0    0  0.82354932955E+02 -0.86249617150E+01  0.23210637535E+02  0.85996852508E+02  0.00000000000E+00 0.  1.
         14    1    6    6    0    0  0.44880461211E+02  0.12783787815E+02  0.93044394968E+02  0.10409102009E+03  0.00000000000E+00 0. -1.
         -5    1    3    3    0  503 -0.94179277729E+02 -0.10127456574E+02 -0.90911651865E+02  0.13137473187E+03  0.47000000000E+01 0.  1.
         13    1    4    4    0    0  0.26415467590E+02  0.19740896827E+02 -0.85308820210E+02  0.91460782531E+02  0.00000000000E+00 0. -1.
        -14    1    4    4    0    0 -0.61287336141E+02  0.49474827119E+02 -0.19603252332E+03  0.21126439901E+03  0.00000000000E+00 0.  1.
</event>
<event>
12    1  0.8563264E-002  0.2108486E+03  0.7818608E-02  0.1141067E+00
         21   -1    0    0  501  502  0.00000000000E+00  0.00000000000E+00  0.19503009538E+03  0.19503009538E+03  0.00000000000E+00 0.  1.
         21   -1    0    0  502  503 -0.00000000000E+00 -0.00000000000E+00 -0.49540892169E+03  0.49540892169E+03  0.00000000000E+00 0.  1.
         -6    2    1    2    0  503 -0.59883727838E+00  0.12200319561E+03 -0.40414613686E+03  0.45543949543E+03  0.17089732505E+03 0.  0.
        -24    2    3    3    0    0  0.20592977160E+02  0.56905420046E+02 -0.95692032213E+02  0.13944449854E+03  0.81397208827E+02 0.  0.
          6    2    1    2  501    0  0.59883727838E+00 -0.12200319561E+03  0.10376731055E+03  0.23499952164E+03  0.17196506066E+03 0.  0.
         24    2    5    5    0    0 -0.10316746301E+02 -0.15535169341E+03  0.75242738055E+02  0.18953510141E+03  0.77598332038E+02 0.  0.
          5    1    5    5  501    0  0.10915583579E+02  0.33348497808E+02  0.28524572497E+02  0.45464420232E+02  0.47000000000E+01 0. -1.
        -13    1    6    6    0    0  0.18427005277E+02 -0.10161962781E+03  0.15930645615E+02  0.10449827151E+03  0.00000000000E+00 0.  1.
         14    1    6    6    0    0 -0.28743751578E+02 -0.53732065605E+02  0.59312092440E+02  0.85036829895E+02  0.00000000000E+00 0. -1.
         -5    1    3    3    0  503 -0.21191814439E+02  0.65097775561E+02 -0.30845410465E+03  0.31599499689E+03  0.47000000000E+01 0.  1.
         13    1    4    4    0    0 -0.25509931652E+02  0.20984808526E+02 -0.66193008510E+02  0.73977247701E+02  0.00000000000E+00 0. -1.
        -14    1    4    4    0    0  0.46102908812E+02  0.35920611520E+02 -0.29499023702E+02  0.65467250838E+02  0.00000000000E+00 0.  1.
</event>
<event>
12    1  0.8563264E-002  0.2298490E+03  0.7818608E-02  0.1127008E+00
         21   -1    0    0  501  502  0.00000000000E+00  0.00000000000E+00  0.47695705742E+02  0.47695705742E+02  0.00000000000E+00 0.  1.
         21   -1    0    0  502  503 -0.00000000000E+00 -0.00000000000E+00 -0.12628750611E+04  0.12628750611E+04  0.00000000000E+00 0.  1.
         -6    2    1    2    0  503 -0.13641140627E+03 -0.61624230323E+02 -0.84082508703E+03  0.87128535826E+03  0.17246950752E+03 0.  0.
        -24    2    3    3    0    0 -0.14744887932E+03 -0.71625231280E+01 -0.55742876026E+03  0.58245414218E+03  0.82058096616E+02 0.  0.
          6    2    1    2  501    0  0.13641140627E+03  0.61624230323E+02 -0.37435426830E+03  0.43928540855E+03  0.17442744752E+03 0.  0.
         24    2    5    5    0    0  0.58504029792E+02  0.89729531349E+02 -0.29893288921E+03  0.32716965730E+03  0.78771835745E+02 0.  0.
          5    1    5    5  501    0  0.77907376476E+02 -0.28105301026E+02 -0.75421379092E+02  0.11211575125E+03  0.47000000000E+01 0. -1.
        -11    1    6    6    0    0  0.49616061171E+02  0.81832225747E+02 -0.30032041727E+03  0.31519933332E+03  0.00000000000E+00 0.  1.
         12    1    6    6    0    0  0.88879686215E+01  0.78973056018E+01  0.13875280599E+01  0.11970323976E+02  0.00000000000E+00 0. -1.
         -5    1    3    3    0  503  0.11037473053E+02 -0.54461707195E+02 -0.28339632676E+03  0.28883121608E+03  0.47000000000E+01 0.  1.
         11    1    4    4    0    0  0.59643213425E+01  0.81478043864E+01 -0.82779721770E+02  0.83393298182E+02  0.00000000000E+00 0. -1.
        -12    1    4    4    0    0 -0.15341320066E+03 -0.15310327514E+02 -0.47464903849E+03  0.49906084400E+03  0.00000000000E+00 0.  1.
</event>
<event>
12    1  0.8563264E-002  0.2202000E+03  0.7818608E-02  0.1133815E+00
         21   -1    0    0  501  502  0.00000000000E+00  0.00000000000E+00  0.13875976156E+03  0.13875976156E+03  0.00000000000E+00 0.  1.
         21   -1    0    0  502  503 -0.00000000000E+00 -0.00000000000E+00 -0.55610146384E+03  0.55610146384E+03  0.00000000000E+00 0. -1.
         -6    2    1    2    0  503 -0.77683083703E+02 -0.11459693513E+03 -0.42095346587E+03  0.47506824980E+03  0.17123347365E+03 0.  0.
        -24    2    3    3    0    0 -0.10478707063E+03 -0.91326057204E+02 -0.20375831624E+03  0.25490471310E+03  0.64328706097E+02 0.  0.
          6    2    1    2  501    0  0.77683083703E+02  0.11459693513E+03  0.36117636013E+01  0.21979297561E+03  0.17067158010E+03 0.  0.
         24    2    5    5    0    0  0.84589497983E+02  0.19561137227E+02  0.28315702583E+02  0.12124412456E+03  0.79751723926E+02 0.  0.
          5    1    5    5  501    0 -0.69064142800E+01  0.95035797901E+02 -0.24703938982E+02  0.98548851044E+02  0.47000000000E+01 0. -1.
        -13    1    6    6    0    0  0.83608550930E+02  0.40356668437E+02  0.35243056835E+02  0.99303189934E+02  0.00000000000E+00 0.  1.
         14    1    6    6    0    0  0.98094705263E+00 -0.20795531209E+02 -0.69273542517E+01  0.21940934627E+02  0.00000000000E+00 0. -1.
         -5    1    3    3    0  503  0.27103986925E+02 -0.23270877924E+02 -0.21719514963E+03  0.22016353670E+03  0.47000000000E+01 0.  1.
         13    1    4    4    0    0 -0.19415816740E+02 -0.64866779627E+01 -0.78776015226E+02  0.81392330754E+02  0.00000000000E+00 0. -1.
        -14    1    4    4    0    0 -0.85371253888E+02 -0.84839379242E+02 -0.12498230101E+03  0.17351238235E+03  0.00000000000E+00 0.  1.
</event>
<event>
12    1  0.8563264E-002  0.2588588E+03  0.7818608E-02  0.1107978E+00
         21   -1    0    0  501  502  0.00000000000E+00  0.00000000000E+00  0.24392307877E+03  0.24392307877E+03  0.00000000000E+00 0.  1.
         21   -1    0    0  502  503 -0.00000000000E+00 -0.00000000000E+00 -0.30068433256E+03  0.30068433256E+03  0.00000000000E+00 0. -1.
         -6    2    1    2    0  503  0.19015572133E+03  0.25979463241E+02  0.53175853912E+02  0.26426415753E+03  0.17370590851E+03 0.  0.
        -24    2    3    3    0    0  0.20249492671E+03  0.34304166196E+02  0.80112903688E+02  0.23313135619E+03  0.75836539622E+02 0.  0.
          6    2    1    2  501    0 -0.19015572133E+03 -0.25979463241E+02 -0.10993710771E+03  0.28034325380E+03  0.17225574427E+03 0.  0.
         24    2    5    5    0    0 -0.12911388459E+03  0.49929613934E+02 -0.59642547710E+02  0.17061665449E+03  0.79934021232E+02 0.  0.
          5    1    5    5  501    0 -0.61041836748E+02 -0.75909077176E+02 -0.50294559997E+02  0.10972659931E+03  0.47000000000E+01 0. -1.
        -11    1    6    6    0    0 -0.93166161052E+02 -0.48717348521E+01 -0.25492569186E+02  0.96713693184E+02  0.00000000000E+00 0.  1.
         12    1    6    6    0    0 -0.35947723534E+02  0.54801348786E+02 -0.34149978524E+02  0.73902961302E+02  0.00000000000E+00 0. -1.
         -5    1    3    3    0  503 -0.12339205374E+02 -0.83247029542E+01 -0.26937049776E+02  0.31132801338E+02  0.47000000000E+01 0.  1.
         13    1    4    4    0    0  0.12447031495E+03 -0.16894002399E+02  0.45896446090E+02  0.13373387897E+03  0.00000000000E+00 0. -1.
        -14    1    4    4    0    0  0.78024611753E+02  0.51198168594E+02  0.34216457598E+02  0.99397477217E+02  0.00000000000E+00 0.  1.
</event>
<event>
12    1  0.8563264E-002  0.1857928E+03  0.7818608E-02  0.1162531E+00
         21   -1    0    0  501  502  0.00000000000E+00  0.00000000000E+00  0.57499465191E+02  0.57499465191E+02  0.00000000000E+00 0. -1.
         21   -1    0    0  502  503 -0.00000000000E+00 -0.00000000000E+00 -0.92342323031E+03  0.92342323031E+03  0.00000000000E+00 0. -1.
         -6    2    1    2    0  503 -0.67669902770E+02 -0.84866861888E+01 -0.72514965285E+03  0.74857261939E+03  0.17282276441E+03 0.  0.
        -24    2    3    3    0    0  0.15403116269E+02 -0.40624464358E+02 -0.19299521409E+03  0.20899463618E+03  0.67409214475E+02 0.  0.
          6    2    1    2  501    0  0.67669902770E+02  0.84866861888E+01 -0.14077411227E+03  0.23235007610E+03  0.17180793811E+03 0.  0.
         24    2    5    5    0    0  0.73915550370E+02  0.61732212144E+02 -0.12392724795E+03  0.17595857865E+03  0.79555540421E+02 0.  0.
          5    1    5    5  501    0 -0.62456476006E+01 -0.53245525955E+02 -0.16846864316E+02  0.56391497457E+02  0.47000000000E+01 0. -1.
        -11    1    6    6    0    0 -0.17257676303E+02  0.77176599348E+01 -0.20316513774E+02  0.27751583706E+02  0.00000000000E+00 0.  1.
         12    1    6    6    0    0  0.91173226674E+02  0.54014552209E+02 -0.10361073418E+03  0.14820699494E+03  0.00000000000E+00 0. -1.
         -5    1    3    3    0  503 -0.83073019038E+02  0.32137778169E+02 -0.53215443875E+03  0.53957798321E+03  0.47000000000E+01 0.  1.
         13    1    4    4    0    0 -0.10657166152E+02 -0.39491263766E+02 -0.16785444464E+03  0.17276645997E+03  0.00000000000E+00 0. -1.
        -14    1    4    4    0    0  0.26060282420E+02 -0.11332005914E+01 -0.25140769455E+02  0.36228176220E+02  0.00000000000E+00 0.  1.
</event>
<event>
12    1  0.8563264E-002  0.1784871E+03  0.7818608E-02  0.1170275E+00
         21   -1    0    0  501  502  0.00000000000E+00  0.00000000000E+00  0.24993960966E+03  0.24993960966E+03  0.00000000000E+00 0.  1.
         21   -1    0    0  502  503 -0.00000000000E+00 -0.00000000000E+00 -0.12530608011E+03  0.12530608011E+03  0.00000000000E+00 0.  1.
         -6    2    1    2    0  503 -0.15314001955E+01  0.48024960075E+02  0.77155583555E+02  0.19444958538E+03  0.17189797906E+03 0.  0.
        -24    2    3    3    0    0 -0.20725975619E+02  0.85851072212E+02  0.18832199165E+02  0.12217958018E+03  0.82299607666E+02 0.  0.
          6    2    1    2  501    0  0.15314001955E+01 -0.48024960075E+02  0.47477945995E+02  0.18079610439E+03  0.16770311276E+03 0.  0.
         24    2    5    5    0    0  0.67683810571E+02 -0.44917052357E+02  0.35755255392E+02  0.11337717556E+03  0.70550023702E+02 0.  0.
          5    1    5    5  501    0 -0.66152410376E+02 -0.31079077185E+01  0.11722690603E+02  0.67418928825E+02  0.47000000000E+01 0. -1.
        -11    1    6    6    0    0  0.23152783940E+01  0.11811041466E+01  0.33248436050E+02  0.33349872875E+02  0.00000000000E+00 0.  1.
         12    1    6    6    0    0  0.65368532177E+02 -0.46098156503E+02  0.25068193424E+01  0.80027302686E+02  0.00000000000E+00 0. -1.
         -5    1    3    3    0  503  0.19194575424E+02 -0.37826112137E+02  0.58323384390E+02  0.72270005201E+02  0.47000000000E+01 0.  1.
         13    1    4    4    0    0 -0.12731427648E+02  0.39322733905E+02  0.50555513007E+02  0.65301045528E+02  0.00000000000E+00 0. -1.
        -14    1    4    4    0    0 -0.79945479714E+01  0.46528338308E+02 -0.31723313842E+02  0.56878534651E+02  0.00000000000E+00 0.  1.
</event>
<event>
12    1  0.8563264E-002  0.2122063E+03  0.7818608E-02  0.1140292E+00
         21   -1    0    0  503  502  0.00000000000E+00  0.00000000000E+00  0.17694056222E+03  0.17694056222E+03  0.00000000000E+00 0.  1.
         21   -1    0    0  501  503 -0.00000000000E+00 -0.00000000000E+00 -0.36571256632E+03  0.36571256632E+03  0.00000000000E+00 0. -1.
          6    2    1    2  501    0 -0.12083701716E+03 -0.22426776139E+02 -0.24552329829E+03  0.32298920469E+03  0.17010523609E+03 0.  0.
         24    2    3    3    0    0 -0.66629819198E+01 -0.48880149847E+02 -0.12215297330E+03  0.15276048094E+03  0.77335317121E+02 0.  0.
         -6    2    1    2    0  502  0.12083701716E+03  0.22426776139E+02  0.56751294189E+02  0.21966392385E+03  0.17299417633E+03 0.  0.
        -24    2    5    5    0    0  0.11878649911E+03  0.68333484676E+02  0.63953597728E+01  0.15133061832E+03  0.63877679329E+02 0.  0.
          5    1    3    3  501    0 -0.11417403524E+03  0.26453373708E+02 -0.12337032498E+03  0.17022872375E+03  0.47000000000E+01 0. -1.
        -11    1    4    4    0    0 -0.32409174892E+02 -0.31805887638E+02 -0.27254613781E+02  0.52960202776E+02  0.00000000000E+00 0.  1.
         12    1    4    4    0    0  0.25746192973E+02 -0.17074262209E+02 -0.94898359521E+02  0.99800278168E+02  0.00000000000E+00 0. -1.
         -5    1    5    5    0  502  0.20505180495E+01 -0.45906708537E+02  0.50355934416E+02  0.68333305524E+02  0.47000000000E+01 0.  1.
         11    1    6    6    0    0  0.10550181321E+03  0.33398557986E+02  0.18170771118E+02  0.11214398419E+03  0.00000000000E+00 0. -1.
        -12    1    6    6    0    0  0.13284685894E+02  0.34934926690E+02 -0.11775411346E+02  0.39186634131E+02  0.00000000000E+00 0.  1.
</event>
<event>
12    1  0.8563264E-002  0.2102974E+03  0.7818608E-02  0.1141465E+00
         21   -1    0    0  503  502  0.00000000000E+00  0.00000000000E+00  0.10825273956E+04  0.10825273956E+04  0.00000000000E+00 0. -1.
         21   -1    0    0  501  503 -0.00000000000E+00 -0.00000000000E+00 -0.41169431992E+02  0.41169431992E+02  0.00000000000E+00 0.  1.
          6    2    1    2  501    0  0.97406442789E+02 -0.72321518667E+02  0.58007403556E+03  0.61701772904E+03  0.17177477714E+03 0.  0.
         24    2    3    3    0    0  0.13189537598E+03 -0.82227652307E+02  0.46921117654E+03  0.50039748420E+03  0.77979080516E+02 0.  0.
         -6    2    1    2    0  502 -0.97406442789E+02  0.72321518667E+02  0.46128392800E+03  0.50667909851E+03  0.17094569159E+03 0.  0.
        -24    2    5    5    0    0 -0.55952848108E+02  0.98470352310E+02  0.21398665183E+03  0.25452796364E+03  0.78530666733E+02 0.  0.
          5    1    3    3  501    0 -0.34488933187E+02  0.99061336407E+01  0.11086285902E+03  0.11662024484E+03  0.47000000000E+01 0. -1.
        -11    1    4    4    0    0 -0.57390650021E+01  0.40193859117E+01  0.55559818511E+02  0.55999872885E+02  0.00000000000E+00 0.  1.
         12    1    4    4    0    0  0.13763444098E+03 -0.86247038219E+02  0.41365135803E+03  0.44439761132E+03  0.00000000000E+00 0. -1.
         -5    1    5    5    0  502 -0.41453594681E+02 -0.26148833644E+02  0.24729727617E+03  0.25215113487E+03  0.47000000000E+01 0.  1.
         13    1    6    6    0    0 -0.95183735684E+01  0.21487103467E+02  0.12035050439E+01  0.23531754613E+02  0.00000000000E+00 0. -1.
        -14    1    6    6    0    0 -0.46434474539E+02  0.76983248843E+02  0.21278314679E+03  0.23099620903E+03  0.00000000000E+00 0.  1.
</event>
<event>
12    1  0.8563264E-002  0.2066420E+03  0.7818608E-02  0.1144618E+00
         21   -1    0    0  503  502  0.00000000000E+00  0.00000000000E+00  0.16685999196E+03  0.16685999196E+03  0.00000000000E+00 0. -1.
         21   -1    0    0  501  503 -0.00000000000E+00 -0.00000000000E+00 -0.37036418483E+03  0.37036418483E+03  0.00000000000E+00 0.  1.
          6    2    1    2  501    0  0.41761293957E+02  0.10656593335E+03 -0.25281868183E+03  0.32652444875E+03  0.17204832438E+03 0.  0.
         24    2    3    3    0    0  0.89834808989E+02  0.84353147828E+02 -0.14452227092E+03  0.20588169801E+03  0.79465969633E+02 0.  0.
         -6    2    1    2    0  502 -0.41761293957E+02 -0.10656593335E+03  0.49314488966E+02  0.21069972805E+03  0.16988864810E+03 0.  0.
        -24    2    5    5    0    0  0.36400474912E+02 -0.83449544967E+02  0.15972698021E+02  0.12251019041E+03  0.80403970946E+02 0.  0.
          5    1    3    3  501    0 -0.48073515032E+02  0.22212785518E+02 -0.10829641091E+03  0.12064275074E+03  0.47000000000E+01 0. -1.
        -11    1    4    4    0    0  0.22387244671E+02  0.50426515698E+02 -0.10958520148E+03  0.12269041769E+03  0.00000000000E+00 0.  1.
         12    1    4    4    0    0  0.67447564318E+02  0.33926632130E+02 -0.34937069433E+02  0.83191280316E+02  0.00000000000E+00 0. -1.
         -5    1    5    5    0  502 -0.78161768869E+02 -0.23116388379E+02  0.33341790945E+02  0.88189537632E+02  0.47000000000E+01 0.  1.
         13    1    6    6    0    0 -0.73306453128E+01 -0.67936535425E+02  0.29128053098E+02  0.74280244235E+02  0.00000000000E+00 0. -1.
        -14    1    6    6    0    0  0.43731120225E+02 -0.15513009542E+02 -0.13155355078E+02  0.48229946178E+02  0.00000000000E+00 0.  1.
</event>
<event>
12    1  0.8563264E-002  0.2046278E+03  0.7818608E-02  0.1146154E+00
         21   -1    0    0  503  502  0.00000000000E+00  0.00000000000E+00  0.39584075171E+03  0.39584075171E+03  0.00000000000E+00 0.  1.
         21   -1    0    0  501  503 -0.00000000000E+00 -0.00000000000E+00 -0.14074123918E+03  0.14074123918E+03  0.00000000000E+00 0.  1.
          6    2    1    2  501    0 -0.54756344814E+02 -0.91155260337E+02 -0.77121006012E+01  0.20350171111E+03  0.17333762184E+03 0.  0.
         24    2    3    3    0    0 -0.72676188431E+02  0.82872562467E+01  0.75767013890E+01  0.10119935353E+03  0.69522627761E+02 0.  0.
         -6    2    1    2    0  502  0.54756344814E+02  0.91155260337E+02  0.26281161313E+03  0.33308027978E+03  0.17482845878E+03 0.  0.
        -24    2    5    5    0    0 -0.12526573312E+02  0.10461314090E+03  0.12088690944E+03  0.17536909711E+03  0.70991908431E+02 0.  0.
          5    1    3    3  501    0  0.17919843617E+02 -0.99442516584E+02 -0.15288801990E+02  0.10230235758E+03  0.47000000000E+01 0. -1.
        -11    1    4    4    0    0 -0.34510387258E+02 -0.20144829578E+02 -0.21551459797E+02  0.45400951607E+02  0.00000000000E+00 0.  1.
         12    1    4    4    0    0 -0.38165801173E+02  0.28432085825E+02  0.29128161186E+02  0.55798401927E+02  0.00000000000E+00 0. -1.
         -5    1    5    5    0  502  0.67282918126E+02 -0.13457880558E+02  0.14192470369E+03  0.15771118267E+03  0.47000000000E+01 0.  1.
         13    1    6    6    0    0 -0.22064737501E+01  0.79218776642E+02  0.12464100742E+03  0.14770194254E+03  0.00000000000E+00 0. -1.
        -14    1    6    6    0    0 -0.10320099562E+02  0.25394364254E+02 -0.37540979802E+01  0.27667154579E+02  0.00000000000E+00 0.  1.
</event>
<event>
12    1  0.8563264E-002  0.3753441E+03  0.7818608E-02  0.1052744E+00
         21   -1    0    0  503  502  0.00000000000E+00  0.00000000000E+00  0.17009172534E+03  0.17009172534E+03  0.00000000000E+00 0. -1.
         21   -1    0    0  501  503 -0.00000000000E+00 -0.00000000000E+00 -0.13111534655E+04  0.13111534655E+04  0.00000000000E+00 0.  1.
          6    2    1    2  501    0  0.33249909438E+03  0.29307474788E+02 -0.10204258276E+04  0.10869911736E+04  0.16990104780E+03 0.  0.
         24    2    3    3    0    0  0.94817927354E+02  0.53776300929E+02 -0.34060712803E+03  0.36638960902E+03  0.79660530030E+02 0.  0.
         -6    2    1    2    0  502 -0.33249909438E+03 -0.29307474788E+02 -0.12063591255E+03  0.39425401720E+03  0.17166429693E+03 0.  0.
        -24    2    5    5    0    0 -0.98128307345E+02  0.28258285735E+02 -0.70307423820E+02  0.14768043918E+03  0.80241403638E+02 0.  0.
          5    1    3    3  501    0  0.23768116703E+03 -0.24468826141E+02 -0.67981869954E+03  0.72060156457E+03  0.47000000000E+01 0. -1.
        -13    1    4    4    0    0  0.17882431399E+02  0.26053977025E+02 -0.20949247116E+03  0.21186242363E+03  0.00000000000E+00 0.  1.
         14    1    4    4    0    0  0.76935495955E+02  0.27722323903E+02 -0.13111465687E+03  0.15452718540E+03  0.00000000000E+00 0. -1.
         -5    1    5    5    0  502 -0.23437078704E+03 -0.57565760523E+02 -0.50328488727E+02  0.24657357802E+03  0.47000000000E+01 0.  1.
         13    1    6    6    0    0 -0.36838905654E+02 -0.11188204755E+02  0.94423305316E+01  0.39641373605E+02  0.00000000000E+00 0. -1.
        -14    1    6    6    0    0 -0.61289401691E+02  0.39446490490E+02 -0.79749754351E+02  0.10803906558E+03  0.00000000000E+00 0.  1.
</event>
<event>
12    1  0.8563264E-002  0.3638947E+03  0.7818608E-02  0.1057061E+00
         21   -1    0    0  503  502  0.00000000000E+00  0.00000000000E+00  0.19797607586E+03  0.19797607586E+03  0.00000000000E+00 0. -1.
         21   -1    0    0  501  503 -0.00000000000E+00 -0.00000000000E+00 -0.75129763231E+03  0.75129763231E+03  0.00000000000E+00 0.  1.
          6    2    1    2  501    0  0.22038698194E+01  0.32072458741E+03 -0.43406912827E+03  0.56642330693E+03  0.17190182230E+03 0.  0.
         24    2    3    3    0    0 -0.38932152101E+02  0.10235245450E+03 -0.20273767056E+03  0.24561979377E+03  0.85057525353E+02 0.  0.
         -6    2    1    2    0  502 -0.22038698194E+01 -0.32072458741E+03 -0.11925242819E+03  0.38285040124E+03  0.17170955155E+03 0.  0.
        -24    2    5    5    0    0  0.16130542921E+02 -0.56517356864E+02 -0.46836423792E+02  0.10824563243E+03  0.77904173862E+02 0.  0.
          5    1    3    3  501    0  0.41136021920E+02  0.21837213290E+03 -0.23133145771E+03  0.32080351316E+03  0.47000000000E+01 0. -1.
        -13    1    4    4    0    0 -0.17973494337E+02  0.87982037224E+02 -0.79958223437E+02  0.12023810905E+03  0.00000000000E+00 0.  1.
         14    1    4    4    0    0 -0.20958657763E+02  0.14370417278E+02 -0.12277944712E+03  0.12538168472E+03  0.00000000000E+00 0. -1.
         -5    1    5    5    0  502 -0.18334412741E+02 -0.26420723054E+03 -0.72416004394E+02  0.27460476881E+03  0.47000000000E+01 0.  1.
         13    1    6    6    0    0  0.25826595078E+02 -0.24362719074E+02  0.14472402913E+02  0.38340651273E+02  0.00000000000E+00 0. -1.
        -14    1    6    6    0    0 -0.96960521562E+01 -0.32154637790E+02 -0.61308826705E+02  0.69904981159E+02  0.00000000000E+00 0.  1.
</event>
<event>
12    1  0.8563264E-002  0.1807622E+03  0.7818608E-02  0.1167578E+00
         21   -1    0    0  501  502  0.00000000000E+00  0.00000000000E+00  0.26074253780E+03  0.26074253780E+03  0.00000000000E+00 0.  1.
         21   -1    0    0  502  503 -0.00000000000E+00 -0.00000000000E+00 -0.20269574612E+03  0.20269574612E+03  0.00000000000E+00 0.  1.
         -6    2    1    2    0  503  0.15673476875E+02  0.53193815842E+02 -0.11559157817E+03  0.21278859806E+03  0.16983031118E+03 0.  0.
        -24    2    3    3    0    0  0.44865749640E+02  0.68694390279E+02 -0.13304375839E+03  0.17511731999E+03  0.78953019986E+02 0.  0.
          6    2    1    2  501    0 -0.15673476875E+02 -0.53193815842E+02  0.17363836986E+03  0.25064968586E+03  0.17204575442E+03 0.  0.
         24    2    5    5    0    0  0.54969633275E+01 -0.93661042568E+02  0.15948559884E+03  0.20260621695E+03  0.82528876223E+02 0.  0.
          5    1    5    5  501    0 -0.21170440203E+02  0.40467226725E+02  0.14152771020E+02  0.48043468909E+02  0.47000000000E+01 0. -1.
        -13    1    6    6    0    0  0.85626680755E+01 -0.68149097561E+02  0.16280181684E+03  0.17669762406E+03  0.00000000000E+00 0.  1.
         14    1    6    6    0    0 -0.30657047480E+01 -0.25511945007E+02 -0.33162180039E+01  0.25908592889E+02  0.00000000000E+00 0. -1.
         -5    1    3    3    0  503 -0.29192272764E+02 -0.15500574437E+02  0.17452180220E+02  0.37671278070E+02  0.47000000000E+01 0.  1.
         11    1    4    4    0    0  0.87162013613E+01 -0.15207531835E+02 -0.57789461247E+01  0.18456365000E+02  0.00000000000E+00 0. -1.
        -12    1    4    4    0    0  0.36149548279E+02  0.83901922114E+02 -0.12726481227E+03  0.15666095499E+03  0.00000000000E+00 0.  1.
</event>
<event>
12    1  0.8563264E-002  0.1718928E+03  0.7818608E-02  0.1176080E+00
         21   -1    0    0  501  502  0.00000000000E+00  0.00000000000E+00  0.30178941226E+02  0.30178941226E+02  0.00000000000E+00 0. -1.
         21   -1    0    0  502  503 -0.00000000000E+00 -0.00000000000E+00 -0.17274407681E+04  0.17274407681E+04  0.00000000000E+00 0. -1.
         -6    2    1    2    0  503  0.20460220814E+02  0.84360620033E+01 -0.14276573708E+04  0.14378796777E+04  0.16971332158E+03 0.  0.
        -24    2    3    3    0    0  0.33501941268E+02  0.71280023709E+02 -0.70193737278E+03  0.70931186655E+03  0.64838467564E+02 0.  0.
          6    2    1    2  501    0 -0.20460220814E+02 -0.84360620033E+01 -0.26960445607E+03  0.31974003156E+03  0.17046212857E+03 0.  0.
         24    2    5    5    0    0 -0.25522498564E+02  0.25077692650E+02 -0.27200646083E+03  0.28543758218E+03  0.78783310326E+02 0.  0.
          5    1    5    5  501    0  0.50622777503E+01 -0.33513754653E+02  0.24020047608E+01  0.34302449386E+02  0.47000000000E+01 0. -1.
        -11    1    6    6    0    0 -0.50391038435E+01 -0.27363935291E+02 -0.60942187063E+02  0.66993489879E+02  0.00000000000E+00 0.  1.
         12    1    6    6    0    0 -0.20483394720E+02  0.52441627941E+02 -0.21106427376E+03  0.21844409230E+03  0.00000000000E+00 0. -1.
         -5    1    3    3    0  503 -0.13041720454E+02 -0.62843961706E+02 -0.72571999801E+03  0.72856781120E+03  0.47000000000E+01 0.  1.
         13    1    4    4    0    0  0.15863855511E+01  0.52787708386E+02 -0.23226904675E+03  0.23819733175E+03  0.00000000000E+00 0. -1.
        -14    1    4    4    0    0  0.31915555717E+02  0.18492315323E+02 -0.46966832603E+03  0.47111453480E+03  0.00000000000E+00 0.  1.
</event>
<event>
12    1  0.8563264E-002  0.2014594E+03  0.7818608E-02  0.1149913E+00
         21   -1    0    0  503  502  0.00000000000E+00  0.00000000000E+00  0.15407694922E+03  0.15407694922E+03  0.00000000000E+00 0.  1.
         21   -1    0    0  501  503 -0.00000000000E+00 -0.00000000000E+00 -0.25906178689E+03  0.25906178689E+03  0.00000000000E+00 0.  1.
          6    2    1    2  501    0  0.69788498196E+02 -0.77641817032E+02 -0.25397857464E+02  0.19652852981E+03  0.16455918581E+03 0.  0.
         24    2    3    3    0    0  0.20871420575E+02 -0.92198581949E+02  0.23692196565E+02  0.12555879477E+03  0.79167518940E+02 0.  0.
         -6    2    1    2    0  502 -0.69788498196E+02  0.77641817032E+02 -0.79586980208E+02  0.21661020630E+03  0.17229976153E+03 0.  0.
        -24    2    5    5    0    0 -0.15180337576E+02  0.27333363714E+02  0.24219495593E+02  0.88896205114E+02  0.79614043335E+02 0.  0.
          5    1    3    3  501    0  0.48917077621E+02  0.14556764917E+02 -0.49090054029E+02  0.70969735045E+02  0.47000000000E+01 0. -1.
        -13    1    4    4    0    0  0.31898934939E+02 -0.16880793600E+02 -0.16267417946E+02  0.39587019709E+02  0.00000000000E+00 0.  1.
         14    1    4    4    0    0 -0.11027514363E+02 -0.75317788349E+02  0.39959614511E+02  0.85971775059E+02  0.00000000000E+00 0. -1.
         -5    1    5    5    0  502 -0.54608160620E+02  0.50308453318E+02 -0.10380647580E+03  0.12771400119E+03  0.47000000000E+01 0.  1.
         13    1    6    6    0    0  0.32446843962E+02  0.13112644962E+02  0.16140507815E+02  0.38539007947E+02  0.00000000000E+00 0. -1.
        -14    1    6    6    0    0 -0.47627181538E+02  0.14220718752E+02  0.80789877783E+01  0.50357197168E+02  0.00000000000E+00 0.  1.
</event>
<event>
12    1  0.8563264E-002  0.2217798E+03  0.7818608E-02  0.1132883E+00
         21   -1    0    0  501  502  0.00000000000E+00  0.00000000000E+00  0.65563280591E+03  0.65563280591E+03  0.00000000000E+00 0.  1.
         21   -1    0    0  502  503 -0.00000000000E+00 -0.00000000000E+00 -0.95731991242E+02  0.95731991242E+02  0.00000000000E+00 0.  1.
         -6    2    1    2    0  503  0.54959302505E+02  0.12667281661E+03  0.10191342215E+03  0.24250454852E+03  0.17133471054E+03 0.  0.
        -24    2    3    3    0    0  0.56943622751E+02  0.89544427916E+02  0.13772049302E+03  0.19067124746E+03  0.78280327467E+02 0.  0.
          6    2    1    2  501    0 -0.54959302505E+02 -0.12667281661E+03  0.45798739252E+03  0.50886024864E+03  0.17355049275E+03 0.  0.
         24    2    5    5    0    0 -0.66830894924E+02 -0.10883774137E+03  0.46182791668E+03  0.48659223927E+03  0.84705136979E+02 0.  0.
          5    1    5    5  501    0  0.11871592419E+02 -0.17835075247E+02 -0.38405241538E+01  0.22268009372E+02  0.47000000000E+01 0. -1.
        -11    1    6    6    0    0  0.17299629353E+02 -0.20472004716E+02  0.13718852701E+03  0.13978223098E+03  0.00000000000E+00 0.  1.
         12    1    6    6    0    0 -0.84130524277E+02 -0.88365736649E+02  0.32463938966E+03  0.34681000829E+03  0.00000000000E+00 0. -1.
         -5    1    3    3    0  503 -0.19843202461E+01  0.37128388696E+02 -0.35807070870E+02  0.51833301055E+02  0.47000000000E+01 0.  1.
         13    1    4    4    0    0  0.45961028452E+01  0.75168587891E+02  0.62256914615E+02  0.97710614491E+02  0.00000000000E+00 0. -1.
        -14    1    4    4    0    0  0.52347519906E+02  0.14375840025E+02  0.75463578405E+02  0.92960632971E+02  0.00000000000E+00 0.  1.
</event>
<event>
12    1  0.8563264E-002  0.2101697E+03  0.7818608E-02  0.1142019E+00
         21   -1    0    0  503  502  0.00000000000E+00  0.00000000000E+00  0.14349111383E+03  0.14349111383E+03  0.00000000000E+00 0.  1.
         21   -1    0    0  501  503 -0.00000000000E+00 -0.00000000000E+00 -0.70107833451E+03  0.70107833451E+03  0.00000000000E+00 0.  1.
          6    2    1    2  501    0  0.20634793278E+00 -0.12000214846E+03 -0.59593048228E+03  0.63093067761E+03  0.16893733167E+03 0.  0.
         24    2    3    3    0    0  0.98347976628E+01 -0.14730453899E+03 -0.55925521852E+03  0.58397013519E+03  0.80370199096E+02 0.  0.
         -6    2    1    2    0  502 -0.20634793278E+00  0.12000214846E+03  0.38343261600E+02  0.21363877073E+03  0.17254205411E+03 0.  0.
        -24    2    5    5    0    0  0.37793030346E+02  0.19438884538E+02  0.53777291340E+02  0.10493172370E+03  0.79451156064E+02 0.  0.
          5    1    3    3  501    0 -0.96284497301E+01  0.27302390530E+02 -0.36675263759E+02  0.46960542423E+02  0.47000000000E+01 0. -1.
        -11    1    4    4    0    0  0.13112712561E+02 -0.10201699426E+03 -0.23463014753E+03  0.25618492633E+03  0.00000000000E+00 0.  1.
         12    1    4    4    0    0 -0.32779148980E+01 -0.45287544728E+02 -0.32462507099E+03  0.32778520886E+03  0.00000000000E+00 0. -1.
         -5    1    5    5    0  502 -0.37999378278E+02  0.10056326392E+03 -0.15434029740E+02  0.10870704703E+03  0.47000000000E+01 0.  1.
         13    1    6    6    0    0  0.21114701971E+02  0.18058655396E+02 -0.16752473740E+02  0.32443659633E+02  0.00000000000E+00 0. -1.
        -14    1    6    6    0    0  0.16678328375E+02  0.13802291419E+01  0.70529765080E+02  0.72488064066E+02  0.00000000000E+00 0.  1.
</event>
<event>
12    1  0.8563264E-002  0.2430100E+03  0.7818608E-02  0.1117925E+00
         21   -1    0    0  503  502  0.00000000000E+00  0.00000000000E+00  0.30130952176E+04  0.30130952176E+04  0.00000000000E+00 0. -1.
         21   -1    0    0  501  503 -0.00000000000E+00 -0.00000000000E+00 -0.70538157318E+02  0.70538157318E+02  0.00000000000E+00 0. -1.
          6    2    1    2  501    0 -0.90456136929E+02  0.14535901223E+03  0.16090721048E+03  0.29145322965E+03  0.17245955915E+03 0.  0.
         24    2    3    3    0    0 -0.70504048510E+02  0.79837665709E+02  0.17635604061E+03  0.22108356975E+03  0.80197369223E+02 0.  0.
         -6    2    1    2    0  502  0.90456136929E+02 -0.14535901223E+03  0.27816498498E+04  0.27921801453E+04  0.17141330640E+03 0.  0.
        -24    2    5    5    0    0 -0.98122664115E+01 -0.10774838213E+03  0.16828905668E+04  0.16882044371E+04  0.78788116305E+02 0.  0.
          5    1    3    3  501    0 -0.19952088419E+02  0.65521346521E+02 -0.15448830127E+02  0.70369659900E+02  0.47000000000E+01 0. -1.
        -11    1    4    4    0    0 -0.41820478470E+01 -0.15800289952E+02  0.29239658774E+02  0.33497706369E+02  0.00000000000E+00 0.  1.
         12    1    4    4    0    0 -0.66322000663E+02  0.95637955661E+02  0.14711638183E+03  0.18758586338E+03  0.00000000000E+00 0. -1.
         -5    1    5    5    0  502  0.10026840334E+03 -0.37610630095E+02  0.10987592830E+04  0.11039757082E+04  0.47000000000E+01 0.  1.
         13    1    6    6    0    0 -0.84829301205E+00 -0.94849373212E+02  0.16361074067E+04  0.16388546518E+04  0.00000000000E+00 0. -1.
        -14    1    6    6    0    0 -0.89639733994E+01 -0.12899008923E+02  0.46783160056E+02  0.49349785360E+02  0.00000000000E+00 0.  1.
</event>
<event>
12    1  0.8563264E-002  0.1780039E+03  0.7818608E-02  0.1169938E+00
         21   -1    0    0  503  502  0.00000000000E+00  0.00000000000E+00  0.89054699090E+03  0.89054699090E+03  0.00000000000E+00 0.  1.
         21   -1    0    0  501  503 -0.00000000000E+00 -0.00000000000E+00 -0.11928670270E+03  0.11928670270E+03  0.00000000000E+00 0.  1.
          6    2    1    2  501    0 -0.19845463779E+02 -0.43579196182E+02 -0.37474319873E+02  0.18190576345E+03  0.17144209913E+03 0.  0.
         24    2    3    3    0    0  0.35059544290E+02 -0.37571373563E+02  0.26105331592E+02  0.97554616905E+02  0.78706004756E+02 0.  0.
         -6    2    1    2    0  502  0.19845463779E+02  0.43579196182E+02  0.80873460807E+03  0.82792793015E+03  0.17064583926E+03 0.  0.
        -24    2    5    5    0    0 -0.72728073505E+01 -0.59329768048E+01  0.18173773424E+03  0.19837727635E+03  0.78973703128E+02 0.  0.
          5    1    3    3  501    0 -0.54905008069E+02 -0.60078226194E+01 -0.63579651465E+02  0.84351146549E+02  0.47000000000E+01 0. -1.
        -11    1    4    4    0    0 -0.12926253988E+02 -0.43033312262E+02  0.63690613610E+01  0.45381923153E+02  0.00000000000E+00 0.  1.
         12    1    4    4    0    0  0.47985798278E+02  0.54619386989E+01  0.19736270231E+02  0.52172693753E+02  0.00000000000E+00 0. -1.
         -5    1    5    5    0  502  0.27118271129E+02  0.49512172987E+02  0.62699687383E+03  0.62955065380E+03  0.47000000000E+01 0.  1.
         11    1    6    6    0    0 -0.33048406052E+02 -0.23515647753E+02  0.58061804249E+02  0.70826237684E+02  0.00000000000E+00 0. -1.
        -12    1    6    6    0    0  0.25775598702E+02  0.17582670949E+02  0.12367592999E+03  0.12755103867E+03  0.00000000000E+00 0.  1.
</event>
<event>
12    1  0.8563264E-002  0.1856117E+03  0.7818608E-02  0.1162486E+00
         21   -1    0    0  503  502  0.00000000000E+00  0.00000000000E+00  0.27665287761E+03  0.27665287761E+03  0.00000000000E+00 0.  1.
         21   -1    0    0  501  503 -0.00000000000E+00 -0.00000000000E+00 -0.18356072427E+03  0.18356072427E+03  0.00000000000E+00 0.  1.
          6    2    1    2  501    0 -0.68059403410E+02 -0.16236698584E+02 -0.83960205347E+02  0.20371795169E+03  0.17191851263E+03 0.  0.
         24    2    3    3    0    0 -0.10453535567E+03 -0.31649015170E+02 -0.32964751196E+02  0.13898263721E+03  0.79373785832E+02 0.  0.
         -6    2    1    2    0  502  0.68059403410E+02  0.16236698584E+02  0.17705235869E+03  0.25649565020E+03  0.17189173360E+03 0.  0.
        -24    2    5    5    0    0 -0.28190296457E+01 -0.34495999510E+02  0.52342074383E+02  0.10427113201E+03  0.83275778643E+02 0.  0.
          5    1    3    3  501    0  0.36475952264E+02  0.15412316586E+02 -0.50995454151E+02  0.64735314475E+02  0.47000000000E+01 0. -1.
        -13    1    4    4    0    0 -0.74303419348E+02 -0.50496529407E+02 -0.46145684834E+02  0.10099664271E+03  0.00000000000E+00 0.  1.
         14    1    4    4    0    0 -0.30231936326E+02  0.18847514238E+02  0.13180933637E+02  0.37985994505E+02  0.00000000000E+00 0. -1.
         -5    1    5    5    0  502  0.70878433056E+02  0.50732698094E+02  0.12471028430E+03  0.15222451819E+03  0.47000000000E+01 0.  1.
         13    1    6    6    0    0  0.24007899131E+02 -0.40071490185E+02  0.17619744603E+01  0.46746209475E+02  0.00000000000E+00 0. -1.
        -14    1    6    6    0    0 -0.26826928777E+02  0.55754906751E+01  0.50580099923E+02  0.57524922530E+02  0.00000000000E+00 0.  1.
</event>
<event>
12    1  0.8563264E-002  0.1811930E+03  0.7818608E-02  0.1166734E+00
         21   -1    0    0  501  502  0.00000000000E+00  0.00000000000E+00  0.10060505243E+03  0.10060505243E+03  0.00000000000E+00 0.  1.
         21   -1    0    0  502  503 -0.00000000000E+00 -0.00000000000E+00 -0.33159238622E+03  0.33159238622E+03  0.00000000000E+00 0. -1.
         -6    2    1    2    0  503 -0.56192966966E+02 -0.13886983932E+02 -0.14432469375E+03  0.23164739063E+03  0.17169856872E+03 0.  0.
        -24    2    3    3    0    0 -0.73125761352E+02  0.33568769589E+02 -0.47426676911E+02  0.12233095209E+03  0.79002106880E+02 0.  0.
          6    2    1    2  501    0  0.56192966966E+02  0.13886983932E+02 -0.86662640038E+02  0.20055004802E+03  0.17134588038E+03 0.  0.
         24    2    5    5    0    0  0.32099550507E+02  0.72525192871E+02 -0.33239865517E+02  0.11751382037E+03  0.80089478550E+02 0.  0.
          5    1    5    5  501    0  0.24093416459E+02 -0.58638208939E+02 -0.53422774520E+02  0.83036227646E+02  0.47000000000E+01 0. -1.
        -13    1    6    6    0    0 -0.10109755912E+02 -0.11842523600E+02 -0.14615314329E+02  0.21355559996E+02  0.00000000000E+00 0.  1.
         14    1    6    6    0    0  0.42209306419E+02  0.84367716472E+02 -0.18624551189E+02  0.96158260373E+02  0.00000000000E+00 0. -1.
         -5    1    3    3    0  503  0.16932794386E+02 -0.47455753521E+02 -0.96898016839E+02  0.10931643854E+03  0.47000000000E+01 0.  1.
         13    1    4    4    0    0 -0.68013158836E+02  0.56758147487E+02 -0.32918921636E+02  0.94503610950E+02  0.00000000000E+00 0. -1.
        -14    1    4    4    0    0 -0.51126025161E+01 -0.23189377898E+02 -0.14507755275E+02  0.27827341140E+02  0.00000000000E+00 0.  1.
</event>
<event>
12    1  0.8563264E-002  0.2443161E+03  0.7818608E-02  0.1117119E+00
         21   -1    0    0  503  502  0.00000000000E+00  0.00000000000E+00  0.15103285525E+04  0.15103285525E+04  0.00000000000E+00 0.  1.
         21   -1    0    0  501  503 -0.00000000000E+00 -0.00000000000E+00 -0.66089518464E+02  0.66089518464E+02  0.00000000000E+00 0. -1.
          6    2    1    2  501    0 -0.65715354684E+02  0.16088882022E+03  0.21989414306E+03  0.32793468479E+03  0.17024688844E+03 0.  0.
         24    2    3    3    0    0 -0.23176980419E+02  0.17609502993E+03  0.15927640033E+03  0.25218943522E+03  0.81755168318E+02 0.  0.
         -6    2    1    2    0  502  0.65715354684E+02 -0.16088882022E+03  0.12243448910E+04  0.12484833862E+04  0.17171672363E+03 0.  0.
        -24    2    5    5    0    0  0.64505043013E+02 -0.44273721615E+02  0.81619195640E+03  0.82397018958E+03  0.81464720124E+02 0.  0.
          5    1    3    3  501    0 -0.42538374265E+02 -0.15206209714E+02  0.60617742725E+02  0.75745249567E+02  0.47000000000E+01 0. -1.
        -11    1    4    4    0    0  0.25869740347E+02  0.22483315426E+02  0.27908655772E+02  0.44199954809E+02  0.00000000000E+00 0.  1.
         12    1    4    4    0    0 -0.49046720766E+02  0.15361171451E+03  0.13136774456E+03  0.20798948041E+03  0.00000000000E+00 0. -1.
         -5    1    5    5    0  502  0.12103116704E+01 -0.11661509860E+03  0.40815293458E+03  0.42451319659E+03  0.47000000000E+01 0.  1.
         13    1    6    6    0    0  0.65791177638E+02 -0.60333032052E+02  0.54170187303E+03  0.54900771676E+03  0.00000000000E+00 0. -1.
        -14    1    6    6    0    0 -0.12861346244E+01  0.16059310437E+02  0.27449008337E+03  0.27496247283E+03  0.00000000000E+00 0.  1.
</event>
<event>
12    1  0.8563264E-002  0.2330978E+03  0.7818608E-02  0.1124831E+00
         21   -1    0    0  503  502  0.00000000000E+00  0.00000000000E+00  0.69435574954E+02  0.69435574954E+02  0.00000000000E+00 0. -1.
         21   -1    0    0  501  503 -0.00000000000E+00 -0.00000000000E+00 -0.11098417807E+04  0.11098417807E+04  0.00000000000E+00 0. -1.
          6    2    1    2  501    0  0.15535795999E+03  0.10474836908E+02 -0.19827144910E+03  0.30601661766E+03  0.17346119110E+03 0.  0.
         24    2    3    3    0    0  0.37237808454E+01 -0.13845185297E+02 -0.71171002048E+02  0.10661500933E+03  0.78076199842E+02 0.  0.
         -6    2    1    2    0  502 -0.15535795999E+03 -0.10474836908E+02 -0.84213475665E+03  0.87326073800E+03  0.17072653637E+03 0.  0.
        -24    2    5    5    0    0 -0.17603346179E+03  0.76716203619E+01 -0.61842955573E+03  0.64782143972E+03  0.78554878502E+02 0.  0.
          5    1    3    3  501    0  0.15163417915E+03  0.24320022205E+02 -0.12710044705E+03  0.19940160833E+03  0.47000000000E+01 0. -1.
        -11    1    4    4    0    0  0.35289354781E+02 -0.26485568103E+02 -0.30680798589E+02  0.53741374012E+02  0.00000000000E+00 0.  1.
         12    1    4    4    0    0 -0.31565573936E+02  0.12640382806E+02 -0.40490203459E+02  0.52873635316E+02  0.00000000000E+00 0. -1.
         -5    1    5    5    0  502  0.20675501794E+02 -0.18146457269E+02 -0.22370520092E+03  0.22543929827E+03  0.47000000000E+01 0.  1.
         11    1    6    6    0    0 -0.53602251991E+02 -0.17607678615E+02 -0.10292002709E+03  0.11737019954E+03  0.00000000000E+00 0. -1.
        -12    1    6    6    0    0 -0.12243120980E+03  0.25279298977E+02 -0.51550952864E+03  0.53045124018E+03  0.00000000000E+00 0.  1.
</event>
<event>
12    1  0.8563264E-002  0.1966907E+03  0.7818608E-02  0.1152727E+00
         21   -1    0    0  501  502  0.00000000000E+00  0.00000000000E+00  0.58597569406E+02  0.58597569406E+02  0.00000000000E+00 0. -1.
         21   -1    0    0  502  503 -0.00000000000E+00 -0.00000000000E+00 -0.69613351041E+03  0.69613351041E+03  0.00000000000E+00 0. -1.
         -6    2    1    2    0  503  0.92712455342E+02 -0.11963084159E+02 -0.40690136393E+03  0.45161467791E+03  0.17218705694E+03 0.  0.
        -24    2    3    3    0    0  0.44160573116E+02 -0.20487475805E+02 -0.91215011097E+02  0.13206825892E+03  0.82170273719E+02 0.  0.
          6    2    1    2  501    0 -0.92712455342E+02  0.11963084159E+02 -0.23063457707E+03  0.30311640190E+03  0.17305643647E+03 0.  0.
         24    2    5    5    0    0 -0.16572809548E+02  0.54509828313E+02 -0.17104713506E+03  0.19737982193E+03  0.80347322875E+02 0.  0.
          5    1    5    5  501    0 -0.76139645794E+02 -0.42546744154E+02 -0.59587442012E+02  0.10573657998E+03  0.47000000000E+01 0. -1.
        -13    1    6    6    0    0  0.24594882817E+02  0.42607352070E+02 -0.55625871161E+02  0.74259896671E+02  0.00000000000E+00 0.  1.
         14    1    6    6    0    0 -0.41167692366E+02  0.11902476244E+02 -0.11542126390E+03  0.12311992526E+03  0.00000000000E+00 0. -1.
         -5    1    3    3    0  503  0.48551882227E+02  0.85243916454E+01 -0.31568635283E+03  0.31954641898E+03  0.47000000000E+01 0.  1.
         11    1    4    4    0    0  0.39974453127E+02  0.24579352043E+02 -0.63634492077E+02  0.79066111777E+02  0.00000000000E+00 0. -1.
        -12    1    4    4    0    0  0.41861199888E+01 -0.45066827847E+02 -0.27580519020E+02  0.53002147147E+02  0.00000000000E+00 0.  1.
</event>
<event>
12    1  0.8563264E-002  0.1737046E+03  0.7818608E-02  0.1174423E+00
         21   -1    0    0  501  502  0.00000000000E+00  0.00000000000E+00  0.63313491526E+03  0.63313491526E+03  0.00000000000E+00 0.  1.
         21   -1    0    0  502  503 -0.00000000000E+00 -0.00000000000E+00 -0.47720111330E+02  0.47720111330E+02  0.00000000000E+00 0.  1.
         -6    2    1    2    0  503  0.72583907780E+01 -0.20226021765E+02  0.32798334108E+03  0.37114195647E+03  0.17237025158E+03 0.  0.
        -24    2    3    3    0    0  0.33868667041E+01  0.44931534907E+02  0.26001541424E+03  0.27679035357E+03  0.83513894002E+02 0.  0.
          6    2    1    2  501    0 -0.72583907780E+01  0.20226021765E+02  0.25743146285E+03  0.30971307012E+03  0.17084920704E+03 0.  0.
         24    2    5    5    0    0 -0.11325718234E+02  0.49884478684E+02  0.65031566815E+02  0.11494146744E+03  0.79785356719E+02 0.  0.
          5    1    5    5  501    0  0.40673274557E+01 -0.29658456920E+02  0.19239989603E+03  0.19477160269E+03  0.47000000000E+01 0. -1.
        -11    1    6    6    0    0 -0.12109688759E+02 -0.15571800427E+02  0.40474898883E+02  0.45026025474E+02  0.00000000000E+00 0.  1.
         12    1    6    6    0    0  0.78397052521E+00  0.65456279111E+02  0.24556667932E+02  0.69915441962E+02  0.00000000000E+00 0. -1.
         -5    1    3    3    0  503  0.38715240739E+01 -0.65157556672E+02  0.67967926835E+02  0.94351602892E+02  0.47000000000E+01 0.  1.
         13    1    4    4    0    0 -0.19548736643E+02 -0.51684780353E+01  0.13790091679E+02  0.24475148581E+02  0.00000000000E+00 0. -1.
        -14    1    4    4    0    0  0.22935603348E+02  0.50100012943E+02  0.24622532257E+03  0.25231520499E+03  0.00000000000E+00 0.  1.
</event>
<event>
12    1  0.8563264E-002  0.2183701E+03  0.7818608E-02  0.1135586E+00
         21   -1    0    0  501  502  0.00000000000E+00  0.00000000000E+00  0.28481489043E+03  0.28481489043E+03  0.00000000000E+00 0.  1.
         21   -1    0    0  502  503 -0.00000000000E+00 -0.00000000000E+00 -0.19702482150E+03  0.19702482150E+03  0.00000000000E+00 0. -1.
         -6    2    1    2    0  503  0.18038382006E+02 -0.12889131556E+03  0.14007866713E+03  0.25729662788E+03  0.17216610376E+03 0.  0.
        -24    2    3    3    0    0 -0.53657066362E+02 -0.60366763927E+02  0.97062787767E+02  0.14909169560E+03  0.79271192569E+02 0.  0.
          6    2    1    2  501    0 -0.18038382006E+02  0.12889131556E+03 -0.52288598197E+02  0.22454308404E+03  0.17534863740E+03 0.  0.
         24    2    5    5    0    0  0.55128506562E+02  0.95184714042E+02 -0.18330831538E+02  0.13699453474E+03  0.79575128902E+02 0.  0.
          5    1    5    5  501    0 -0.73166888568E+02  0.33706601514E+02 -0.33957766660E+02  0.87548549302E+02  0.47000000000E+01 0. -1.
        -13    1    6    6    0    0  0.31670345924E+02 -0.56979923524E+01 -0.36529855751E+01  0.32385525029E+02  0.00000000000E+00 0.  1.
         14    1    6    6    0    0  0.23458160638E+02  0.10088270639E+03 -0.14677845963E+02  0.10460900971E+03  0.00000000000E+00 0. -1.
         -5    1    3    3    0  503  0.71695448367E+02 -0.68524551629E+02  0.43015879359E+02  0.10820493228E+03  0.47000000000E+01 0.  1.
         11    1    4    4    0    0 -0.21974497802E+02  0.12574954757E+02  0.23609667888E+01  0.25427980749E+02  0.00000000000E+00 0. -1.
        -12    1    4    4    0    0 -0.31682568560E+02 -0.72941718684E+02  0.94701820979E+02  0.12366371486E+03  0.00000000000E+00 0.  1.
</event>
<event>
12    1  0.8563264E-002  0.2179569E+03  0.7818608E-02  0.1135538E+00
         21   -1    0    0  501  502  0.00000000000E+00  0.00000000000E+00  0.98371489922E+02  0.98371489922E+02  0.00000000000E+00 0. -1.
         21   -1    0    0  502  503 -0.00000000000E+00 -0.00000000000E+00 -0.58326427917E+03  0.58326427917E+03  0.00000000000E+00 0. -1.
         -6    2    1    2    0  503 -0.13343183452E+03 -0.11914105690E+02 -0.10037048931E+03  0.23995715603E+03  0.17192789543E+03 0.  0.
        -24    2    3    3    0    0 -0.15444929640E+03 -0.79980852560E+01 -0.44448206578E+02  0.17990334161E+03  0.80442617619E+02 0.  0.
          6    2    1    2  501    0  0.13343183452E+03  0.11914105690E+02 -0.38452229993E+03  0.44167861306E+03  0.17110405522E+03 0.  0.
         24    2    5    5    0    0  0.91365366263E+02  0.57615221502E+02 -0.16303610555E+03  0.21159948745E+03  0.80786307486E+02 0.  0.
          5    1    5    5  501    0  0.42066468259E+02 -0.45701115812E+02 -0.22148619439E+03  0.23007912561E+03  0.47000000000E+01 0. -1.
        -13    1    6    6    0    0 -0.84940053031E+01  0.16554077079E+02 -0.34559918211E+01  0.18924309062E+02  0.00000000000E+00 0.  1.
         14    1    6    6    0    0  0.99859371566E+02  0.41061144423E+02 -0.15958011372E+03  0.19267517839E+03  0.00000000000E+00 0. -1.
         -5    1    3    3    0  503  0.21017461875E+02 -0.39160204341E+01 -0.55922282735E+02  0.60053814417E+02  0.47000000000E+01 0.  1.
         11    1    4    4    0    0 -0.10620209157E+03  0.13834080395E+02 -0.62442067366E+02  0.12397289144E+03  0.00000000000E+00 0. -1.
        -12    1    4    4    0    0 -0.48247204827E+02 -0.21832165651E+02  0.17993860788E+02  0.55930450174E+02  0.00000000000E+00 0.  1.
</event>
<event>
12    1  0.8563264E-002  0.2838941E+03  0.7818608E-02  0.1094118E+00
         21   -1    0    0  501  502  0.00000000000E+00  0.00000000000E+00  0.21904710721E+03  0.21904710721E+03  0.00000000000E+00 0.  1.
         21   -1    0    0  502  503 -0.00000000000E+00 -0.00000000000E+00 -0.54814209823E+03  0.54814209823E+03  0.00000000000E+00 0. -1.
         -6    2    1    2    0  503 -0.15941271143E+03 -0.15891510899E+03 -0.38682776404E+03  0.47748431977E+03  0.16640051731E+03 0.  0.
        -24    2    3    3    0    0 -0.81718601329E+02 -0.67422253948E+02 -0.30467872017E+03  0.33195812736E+03  0.78379752912E+02 0.  0.
          6    2    1    2  501    0  0.15941271143E+03  0.15891510899E+03  0.57732773017E+02  0.28970488567E+03  0.17300122333E+03 0.  0.
         24    2    5    5    0    0  0.11438710796E+03  0.15619701918E+03  0.96073128889E+02  0.23031830581E+03  0.79589927932E+02 0.  0.
          5    1    5    5  501    0  0.45025603466E+02  0.27180898132E+01 -0.38340355872E+02  0.59386579865E+02  0.47000000000E+01 0. -1.
        -13    1    6    6    0    0  0.74655581044E+02  0.45345626334E+02  0.63959663283E+02  0.10826135107E+03  0.00000000000E+00 0.  1.
         14    1    6    6    0    0  0.39731526919E+02  0.11085139284E+03  0.32113465606E+02  0.12205695474E+03  0.00000000000E+00 0. -1.
         -5    1    3    3    0  503 -0.77694110100E+02 -0.91492855040E+02 -0.82149043876E+02  0.14552619241E+03  0.47000000000E+01 0.  1.
         13    1    4    4    0    0 -0.96507963176E+02 -0.63298433300E+02 -0.25372681038E+03  0.27874320246E+03  0.00000000000E+00 0. -1.
        -14    1    4    4    0    0  0.14789361847E+02 -0.41238206484E+01 -0.50951909791E+02  0.53214924899E+02  0.00000000000E+00 0.  1.
</event>
<event>
12    1  0.8563264E-002  0.2055698E+03  0.7818608E-02  0.1145596E+00
         21   -1    0    0  503  502  0.00000000000E+00  0.00000000000E+00  0.14738868735E+03  0.14738868735E+03  0.00000000000E+00 0.  1.
         21   -1    0    0  501  503 -0.00000000000E+00 -0.00000000000E+00 -0.29799889423E+03  0.29799889423E+03  0.00000000000E+00 0.  1.
          6    2    1    2  501    0  0.91700760974E+02 -0.60304823236E+02 -0.12482264080E+03  0.24049874794E+03  0.17381960429E+03 0.  0.
         24    2    3    3    0    0  0.73599982251E+02 -0.10781963122E+03 -0.10737331129E+03  0.18653705534E+03  0.78898762813E+02 0.  0.
         -6    2    1    2    0  502 -0.91700760974E+02  0.60304823236E+02 -0.25787566085E+02  0.20488883364E+03  0.17108107528E+03 0.  0.
        -24    2    5    5    0    0 -0.12677352129E+03  0.57657319498E+02 -0.36469952949E+02  0.16783062023E+03  0.86262201619E+02 0.  0.
          5    1    3    3  501    0  0.18100778723E+02  0.47514807983E+02 -0.17449329507E+02  0.53961692600E+02  0.47000000000E+01 0. -1.
        -11    1    4    4    0    0  0.38007813667E+02 -0.50226695116E+02 -0.10033744611E+03  0.11846905880E+03  0.00000000000E+00 0.  1.
         12    1    4    4    0    0  0.35592168584E+02 -0.57592936103E+02 -0.70358651809E+01  0.68067996535E+02  0.00000000000E+00 0. -1.
         -5    1    5    5    0  502  0.35072760314E+02  0.26475037387E+01  0.10682386864E+02  0.37058213411E+02  0.47000000000E+01 0.  1.
         13    1    6    6    0    0 -0.15943290432E+02  0.34922217690E+02  0.17840265162E+02  0.42332314598E+02  0.00000000000E+00 0. -1.
        -14    1    6    6    0    0 -0.11083023086E+03  0.22735101808E+02 -0.54310218111E+02  0.12549830563E+03  0.00000000000E+00 0.  1.
</event>
<event>
12    1  0.8563264E-002  0.1757101E+03  0.7818608E-02  0.1172137E+00
         21   -1    0    0  501  502  0.00000000000E+00  0.00000000000E+00  0.96263447184E+02  0.96263447184E+02  0.00000000000E+00 0.  1.
         21   -1    0    0  502  503 -0.00000000000E+00 -0.00000000000E+00 -0.39434992138E+03  0.39434992138E+03  0.00000000000E+00 0.  1.
         -6    2    1    2    0  503  0.32860154624E+02 -0.26635976720E+01 -0.42277142167E+02  0.18027088229E+03  0.17211435076E+03 0.  0.
        -24    2    3    3    0    0 -0.32934155040E+02 -0.37415762293E+02 -0.35783754447E+02  0.10543200059E+03  0.85736992186E+02 0.  0.
          6    2    1    2  501    0 -0.32860154624E+02  0.26635976720E+01 -0.25580933202E+03  0.31034248627E+03  0.17258957072E+03 0.  0.
         24    2    5    5    0    0  0.40302722611E+02 -0.13918755385E+02 -0.81009284767E+02  0.12006656147E+03  0.77688054188E+02 0.  0.
          5    1    5    5  501    0 -0.73162877236E+02  0.16582353057E+02 -0.17480004726E+03  0.19027592480E+03  0.47000000000E+01 0. -1.
        -11    1    6    6    0    0 -0.98045330795E+01 -0.14787381247E+02 -0.65119091832E+02  0.67492900620E+02  0.00000000000E+00 0.  1.
         12    1    6    6    0    0  0.50107255691E+02  0.86862586202E+00 -0.15890192935E+02  0.52573660851E+02  0.00000000000E+00 0. -1.
         -5    1    3    3    0  503  0.65794309665E+02  0.34752164621E+02 -0.64933877201E+01  0.74838881701E+02  0.47000000000E+01 0.  1.
         11    1    4    4    0    0  0.87339635009E+01 -0.37387580069E+02 -0.48508448282E+02  0.61864228894E+02  0.00000000000E+00 0. -1.
        -12    1    4    4    0    0 -0.41668118541E+02 -0.28182223689E-01  0.12724693836E+02  0.43567771692E+02  0.00000000000E+00 0.  1.
</event>
<event>
12    1  0.8563264E-002  0.1787759E+03  0.7818608E-02  0.1169198E+00
         21   -1    0    0  503  502  0.00000000000E+00  0.00000000000E+00  0.75992107277E+03  0.75992107277E+03  0.00000000000E+00 0.  1.
         21   -1    0    0  501  503 -0.00000000000E+00 -0.00000000000E+00 -0.48779368837E+02  0.48779368837E+02  0.00000000000E+00 0.  1.
          6    2    1    2  501    0 -0.45197003474E+02 -0.14388035252E+02  0.50712743238E+03  0.53743921913E+03  0.17150188601E+03 0.  0.
         24    2    3    3    0    0 -0.83790000706E+02 -0.47462348526E+02  0.35076425356E+03  0.37295559282E+03  0.82382485359E+02 0.  0.
         -6    2    1    2    0  502  0.45197003474E+02  0.14388035252E+02  0.20401427155E+03  0.27126122248E+03  0.17236891582E+03 0.  0.
        -24    2    5    5    0    0  0.55364615160E+02  0.21984258897E+02  0.22512158533E+03  0.24618749846E+03  0.79874952078E+02 0.  0.
          5    1    3    3  501    0  0.38592997232E+02  0.33074313273E+02  0.15636317882E+03  0.16448362631E+03  0.47000000000E+01 0. -1.
        -11    1    4    4    0    0  0.95939022136E+01 -0.29406368631E+02  0.10372338111E+03  0.10823731918E+03  0.00000000000E+00 0.  1.
         12    1    4    4    0    0 -0.93383902919E+02 -0.18055979894E+02  0.24704087245E+03  0.26471827363E+03  0.00000000000E+00 0. -1.
         -5    1    5    5    0  502 -0.10167611687E+02 -0.75962236450E+01 -0.21107313773E+02  0.25073724011E+02  0.47000000000E+01 0.  1.
         11    1    6    6    0    0  0.31704621841E+02 -0.10109524877E+02  0.23692392479E+02  0.40849908209E+02  0.00000000000E+00 0. -1.
        -12    1    6    6    0    0  0.23659993319E+02  0.32093783775E+02  0.20142919285E+03  0.20533759025E+03  0.00000000000E+00 0.  1.
</event>
<event>
12    1  0.8563264E-002  0.3157753E+03  0.7818608E-02  0.1077802E+00
         21   -1    0    0  501  502  0.00000000000E+00  0.00000000000E+00  0.39195876230E+03  0.39195876230E+03  0.00000000000E+00 0. -1.
         21   -1    0    0  502  503 -0.00000000000E+00 -0.00000000000E+00 -0.29891255507E+03  0.29891255507E+03  0.00000000000E+00 0. -1.
         -6    2    1    2    0  503  0.14959439151E+03 -0.21609243684E+03 -0.88836980172E+02  0.32646013979E+03  0.17207495633E+03 0.  0.
        -24    2    3    3    0    0  0.11179874522E+03 -0.10101483539E+03  0.10566190126E+02  0.16969775432E+03  0.77348090129E+02 0.  0.
          6    2    1    2  501    0 -0.14959439151E+03  0.21609243684E+03  0.18188318741E+03  0.36441117758E+03  0.17504167862E+03 0.  0.
         24    2    5    5    0    0 -0.26968980091E+02  0.14625998327E+03  0.63636865743E+02  0.18024319534E+03  0.79489937666E+02 0.  0.
          5    1    5    5  501    0 -0.12262541142E+03  0.69832453568E+02  0.11824632166E+03  0.18416798224E+03  0.47000000000E+01 0. -1.
        -11    1    6    6    0    0 -0.22355020831E+02  0.91896207022E+02 -0.23709601271E+01  0.94605926206E+02  0.00000000000E+00 0.  1.
         12    1    6    6    0    0 -0.46139592602E+01  0.54363776248E+02  0.66007825870E+02  0.85637269131E+02  0.00000000000E+00 0. -1.
         -5    1    3    3    0  503  0.37795646296E+02 -0.11507760144E+03 -0.99403170298E+02  0.15676238547E+03  0.47000000000E+01 0.  1.
         13    1    4    4    0    0  0.81614599061E+02 -0.88383983253E+02 -0.23375815655E+02  0.12255243789E+03  0.00000000000E+00 0. -1.
        -14    1    4    4    0    0  0.30184146154E+02 -0.12630852141E+02  0.33942005781E+02  0.47145316430E+02  0.00000000000E+00 0.  1.
</event>
<event>
12    1  0.8563264E-002  0.1728441E+03  0.7818608E-02  0.1175252E+00
         21   -1    0    0  501  502  0.00000000000E+00  0.00000000000E+00  0.64695384599E+02  0.64695384599E+02  0.00000000000E+00 0.  1.
         21   -1    0    0  502  503 -0.00000000000E+00 -0.00000000000E+00 -0.77394039896E+03  0.77394039896E+03  0.00000000000E+00 0.  1.
         -6    2    1    2    0  503 -0.96059572169E+01 -0.13589525458E+02 -0.62322609375E+03  0.64675022517E+03  0.17204110035E+03 0.  0.
        -24    2    3    3    0    0 -0.37852666895E+02 -0.37219769170E+01 -0.60558693922E+03  0.61170061897E+03  0.77430154301E+02 0.  0.
          6    2    1    2  501    0  0.96059572169E+01  0.13589525458E+02 -0.86018920619E+02  0.19188555840E+03  0.17071573800E+03 0.  0.
         24    2    5    5    0    0 -0.35888621216E+02 -0.31571650898E+01  0.44419490697E+01  0.89145754739E+02  0.81420352813E+02 0.  0.
          5    1    5    5  501    0  0.45494578433E+02  0.16746690548E+02 -0.90460869689E+02  0.10273980366E+03  0.47000000000E+01 0. -1.
        -11    1    6    6    0    0  0.13726661606E+02 -0.88805306537E+01  0.29151728311E+02  0.33423170511E+02  0.00000000000E+00 0.  1.
         12    1    6    6    0    0 -0.49615282822E+02  0.57233655639E+01 -0.24709779241E+02  0.55722584228E+02  0.00000000000E+00 0. -1.
         -5    1    3    3    0  503  0.28246709679E+02 -0.98675485412E+01 -0.17639154528E+02  0.35049606194E+02  0.47000000000E+01 0.  1.
         11    1    4    4    0    0 -0.44961172785E+02  0.14558813250E+00 -0.16433980417E+03  0.17037928128E+03  0.00000000000E+00 0. -1.
        -12    1    4    4    0    0  0.71085058898E+01 -0.38675650495E+01 -0.44124713505E+03  0.44132133769E+03  0.00000000000E+00 0.  1.
</event>
<event>
12    1  0.8563264E-002  0.2158744E+03  0.7818608E-02  0.1137102E+00
         21   -1    0    0  501  502  0.00000000000E+00  0.00000000000E+00  0.13322253127E+04  0.13322253127E+04  0.00000000000E+00 0. -1.
         21   -1    0    0  502  503 -0.00000000000E+00 -0.00000000000E+00 -0.43584803585E+02  0.43584803585E+02  0.00000000000E+00 0. -1.
         -6    2    1    2    0  503 -0.46149598071E+02  0.11823890489E+03  0.33774859930E+03  0.40084393845E+03  0.17461821964E+03 0.  0.
        -24    2    3    3    0    0 -0.16485903077E+02  0.14928387535E+03  0.28376032110E+03  0.33170242289E+03  0.83361364433E+02 0.  0.
          6    2    1    2  501    0  0.46149598071E+02 -0.11823890489E+03  0.95089190983E+03  0.97496617785E+03  0.17393504459E+03 0.  0.
         24    2    5    5    0    0  0.61176728163E+02 -0.13069890466E+03  0.57758575873E+03  0.60112043602E+03  0.83160532509E+02 0.  0.
          5    1    5    5  501    0 -0.15027130092E+02  0.12459999767E+02  0.37330615110E+03  0.37384574183E+03  0.47000000000E+01 0. -1.
        -11    1    6    6    0    0  0.44843922660E+02 -0.43655731337E+02  0.37262890953E+03  0.37784799126E+03  0.00000000000E+00 0.  1.
         12    1    6    6    0    0  0.16332805503E+02 -0.87043173325E+02  0.20495684920E+03  0.22327244476E+03  0.00000000000E+00 0. -1.
         -5    1    3    3    0  503 -0.29663694995E+02 -0.31044970453E+02  0.53988278197E+02  0.69141515560E+02  0.47000000000E+01 0.  1.
         13    1    4    4    0    0 -0.34441207888E+02  0.65544607060E+02  0.19395346730E+03  0.20760597244E+03  0.00000000000E+00 0. -1.
        -14    1    4    4    0    0  0.17955304812E+02  0.83739268288E+02  0.89806853803E+02  0.12409645045E+03  0.00000000000E+00 0.  1.
</event>
<event>
12    1  0.8563264E-002  0.2695302E+03  0.7818608E-02  0.1101634E+00
         21   -1    0    0  503  502  0.00000000000E+00  0.00000000000E+00  0.10834522080E+03  0.10834522080E+03  0.00000000000E+00 0.  1.
         21   -1    0    0  501  503 -0.00000000000E+00 -0.00000000000E+00 -0.68123582431E+03  0.68123582431E+03  0.00000000000E+00 0.  1.
          6    2    1    2  501    0 -0.32089365522E+02 -0.20486062931E+03 -0.33960614067E+03  0.43356531489E+03  0.17218869497E+03 0.  0.
         24    2    3    3    0    0  0.11615037525E+02 -0.20937666261E+03 -0.27869196453E+03  0.35831176842E+03  0.82125613233E+02 0.  0.
         -6    2    1    2    0  502  0.32089365522E+02  0.20486062931E+03 -0.23328446283E+03  0.35601573022E+03  0.17125406489E+03 0.  0.
        -24    2    5    5    0    0 -0.39222445514E+02  0.87985144372E+02 -0.14831660063E+03  0.19481126074E+03  0.81693496835E+02 0.  0.
          5    1    3    3  501    0 -0.43704403047E+02  0.45160333004E+01 -0.60914176143E+02  0.75253546479E+02  0.47000000000E+01 0. -1.
        -11    1    4    4    0    0  0.15408458141E+02 -0.40494970018E+02 -0.11581343520E+03  0.12365280002E+03  0.00000000000E+00 0.  1.
         12    1    4    4    0    0 -0.37934206160E+01 -0.16888169260E+03 -0.16287852932E+03  0.23465896840E+03  0.00000000000E+00 0. -1.
         -5    1    5    5    0  502  0.71311811036E+02  0.11687548494E+03 -0.84967862198E+02  0.16120446948E+03  0.47000000000E+01 0.  1.
         11    1    6    6    0    0 -0.24833291560E+02  0.11672502230E+01 -0.78906518513E+02  0.82730245416E+02  0.00000000000E+00 0. -1.
        -12    1    6    6    0    0 -0.14389153954E+02  0.86817894149E+02 -0.69410082122E+02  0.11208101532E+03  0.00000000000E+00 0.  1.
</event>
<event>
12    1  0.8563264E-002  0.1796119E+03  0.7818608E-02  0.1168273E+00
         21   -1    0    0  501  502  0.00000000000E+00  0.00000000000E+00  0.23316634505E+03  0.23316634505E+03  0.00000000000E+00 0.  1.
         21   -1    0    0  502  503 -0.00000000000E+00 -0.00000000000E+00 -0.38785901832E+03  0.38785901832E+03  0.00000000000E+00 0.  1.
         -6    2    1    2    0  503 -0.49722751180E+02 -0.22547809371E+02 -0.32651049257E+03  0.37246595064E+03  0.17070743083E+03 0.  0.
        -24    2    3    3    0    0  0.26173424840E+02 -0.47629999541E+02 -0.14456624365E+03  0.17368178248E+03  0.79449970034E+02 0.  0.
          6    2    1    2  501    0  0.49722751180E+02  0.22547809371E+02  0.17181781930E+03  0.24855941273E+03  0.17111301217E+03 0.  0.
         24    2    5    5    0    0  0.99340715436E+02  0.16042268830E+02  0.11073929983E+03  0.16945859114E+03  0.79543003790E+02 0.  0.
          5    1    5    5  501    0 -0.49617964256E+02  0.65055405411E+01  0.61078519470E+02  0.79100821584E+02  0.47000000000E+01 0. -1.
        -11    1    6    6    0    0  0.37059978370E+02 -0.13426004997E+02  0.45390967155E+00  0.39419609853E+02  0.00000000000E+00 0.  1.
         12    1    6    6    0    0  0.62280737066E+02  0.29468273827E+02  0.11028539016E+03  0.13003898129E+03  0.00000000000E+00 0. -1.
         -5    1    3    3    0  503 -0.75896176021E+02  0.25082190170E+02 -0.18194424891E+03  0.19878416816E+03  0.47000000000E+01 0.  1.
         13    1    4    4    0    0  0.45873412929E+02 -0.52609776913E+02 -0.13324604631E+03  0.15042163241E+03  0.00000000000E+00 0. -1.
        -14    1    4    4    0    0 -0.19699988089E+02  0.49797773720E+01 -0.11320197344E+02  0.23260150070E+02  0.00000000000E+00 0.  1.
</event>
<event>
12    1  0.8563264E-002  0.1811498E+03  0.7818608E-02  0.1166873E+00
         21   -1    0    0  501  502  0.00000000000E+00  0.00000000000E+00  0.48692081667E+03  0.48692081667E+03  0.00000000000E+00 0.  1.
         21   -1    0    0  502  503 -0.00000000000E+00 -0.00000000000E+00 -0.34202239001E+03  0.34202239001E+03  0.00000000000E+00 0.  1.
         -6    2    1    2    0  503  0.36026235971E+02 -0.27908944641E+02 -0.29910618596E+03  0.34968521974E+03  0.17532382485E+03 0.  0.
        -24    2    3    3    0    0  0.63625988122E+02  0.10739234482E+02 -0.89673646061E+02  0.13488413307E+03  0.77387137395E+02 0.  0.
          6    2    1    2  501    0 -0.36026235971E+02  0.27908944641E+02  0.44400461262E+03  0.47925798694E+03  0.17456037106E+03 0.  0.
         24    2    5    5    0    0 -0.37021587017E+01  0.44863092534E+02  0.43039614397E+03  0.44002063839E+03  0.79692649680E+02 0.  0.
          5    1    5    5  501    0 -0.32324077269E+02 -0.16954147893E+02  0.13608468652E+02  0.39237348549E+02  0.47000000000E+01 0. -1.
        -13    1    6    6    0    0  0.30893898244E+02  0.13821975084E+02  0.84667207184E+02  0.91181225679E+02  0.00000000000E+00 0.  1.
         14    1    6    6    0    0 -0.34596056945E+02  0.31041117450E+02  0.34572893679E+03  0.34883941271E+03  0.00000000000E+00 0. -1.
         -5    1    3    3    0  503 -0.27599752151E+02 -0.38648179123E+02 -0.20943253990E+03  0.21480108667E+03  0.47000000000E+01 0.  1.
         11    1    4    4    0    0  0.56542605498E+02  0.23212255878E+02 -0.10000667125E+03  0.11720584181E+03  0.00000000000E+00 0. -1.
        -12    1    4    4    0    0  0.70833826247E+01 -0.12473021396E+02  0.10333025193E+02  0.17678291258E+02  0.00000000000E+00 0.  1.
</event>
<event>
12    1  0.8563264E-002  0.2010838E+03  0.7818608E-02  0.1149155E+00
         21   -1    0    0  501  502  0.00000000000E+00  0.00000000000E+00  0.10354868859E+03  0.10354868859E+03  0.00000000000E+00 0.  1.
         21   -1    0    0  502  503 -0.00000000000E+00 -0.00000000000E+00 -0.59148860641E+03  0.59148860641E+03  0.00000000000E+00 0. -1.
         -6    2    1    2    0  503 -0.75161071577E+02  0.69909803603E+02 -0.44868651478E+03  0.49168514557E+03  0.17291074724E+03 0.  0.
        -24    2    3    3    0    0  0.12798422392E+02  0.71030351997E+02 -0.30194970174E+03  0.32053634917E+03  0.79754738045E+02 0.  0.
          6    2    1    2  501    0  0.75161071577E+02 -0.69909803603E+02 -0.39253403043E+02  0.20335214943E+03  0.17109850878E+03 0.  0.
         24    2    5    5    0    0  0.11158067786E+03 -0.26501610513E+02 -0.42368025767E+02  0.14640963610E+03  0.80549046585E+02 0.  0.
          5    1    5    5  501    0 -0.36419606281E+02 -0.43408193090E+02  0.31146227237E+01  0.56942513325E+02  0.47000000000E+01 0. -1.
        -13    1    6    6    0    0  0.44183876450E+02  0.27450748186E+02 -0.47349617311E+01  0.52231967000E+02  0.00000000000E+00 0.  1.
         14    1    6    6    0    0  0.67396801409E+02 -0.53952358699E+02 -0.37633064036E+02  0.94177669105E+02  0.00000000000E+00 0. -1.
         -5    1    3    3    0  503 -0.87959493969E+02 -0.11205483936E+01 -0.14673681304E+03  0.17114879640E+03  0.47000000000E+01 0.  1.
         11    1    4    4    0    0 -0.71532022358E+00  0.49203267611E+02 -0.28624046739E+03  0.29043945737E+03  0.00000000000E+00 0. -1.
        -12    1    4    4    0    0  0.13513742615E+02  0.21827084386E+02 -0.15709234347E+02  0.30096891800E+02  0.00000000000E+00 0.  1.
</event>
<event>
12    1  0.8563264E-002  0.2301052E+03  0.7818608E-02  0.1126733E+00
         21   -1    0    0  503  502  0.00000000000E+00  0.00000000000E+00  0.30160441742E+03  0.30160441742E+03  0.00000000000E+00 0. -1.
         21   -1    0    0  501  503 -0.00000000000E+00 -0.00000000000E+00 -0.27337515885E+03  0.27337515885E+03  0.00000000000E+00 0. -1.
          6    2    1    2  501    0  0.11401898086E+03 -0.10098157071E+03  0.18670290191E+03  0.29558330484E+03  0.17121305703E+03 0.  0.
         24    2    3    3    0    0  0.26996198773E+02 -0.30888166763E+01  0.12426901102E+03  0.15040742314E+03  0.80257524877E+02 0.  0.
         -6    2    1    2    0  502 -0.11401898086E+03  0.10098157071E+03 -0.15847364334E+03  0.27939627143E+03  0.17248413039E+03 0.  0.
        -24    2    5    5    0    0 -0.10377793539E+03  0.26460834527E+02 -0.15432402490E+03  0.20391429699E+03  0.79341667592E+02 0.  0.
          5    1    3    3  501    0  0.87022782089E+02 -0.97892754030E+02  0.62433890894E+02  0.14517588170E+03  0.47000000000E+01 0. -1.
        -11    1    4    4    0    0  0.47100324083E+02 -0.45792648731E+01  0.12107781617E+03  0.12999710676E+03  0.00000000000E+00 0.  1.
         12    1    4    4    0    0 -0.20104125311E+02  0.14904481968E+01  0.31911948446E+01  0.20410316384E+02  0.00000000000E+00 0. -1.
         -5    1    5    5    0  502 -0.10241045468E+02  0.74520736179E+02 -0.41496184435E+01  0.75481974445E+02  0.47000000000E+01 0.  1.
         13    1    6    6    0    0 -0.30745749597E+02  0.20302928251E+02 -0.44919653809E+01  0.37117216582E+02  0.00000000000E+00 0. -1.
        -14    1    6    6    0    0 -0.73032185796E+02  0.61579062763E+01 -0.14983205952E+03  0.16679708041E+03  0.00000000000E+00 0.  1.
</event>
<event>
12    1  0.8563264E-002  0.2081928E+03  0.7818608E-02  0.1143133E+00
         21   -1    0    0  501  502  0.00000000000E+00  0.00000000000E+00  0.17319340090E+04  0.17319340090E+04  0.00000000000E+00 0. -1.
         21   -1    0    0  502  503 -0.00000000000E+00 -0.00000000000E+00 -0.37564707971E+02  0.37564707971E+02  0.00000000000E+00 0.  1.
         -6    2    1    2    0  503  0.11410490847E+03 -0.14098070750E+02  0.33533964560E+03  0.39471118239E+03  0.17356714508E+03 0.  0.
        -24    2    3    3    0    0  0.23858241399E+01  0.85554265259E+01  0.66476061944E+02  0.10264260934E+03  0.77701679264E+02 0.  0.
          6    2    1    2  501    0 -0.11410490847E+03  0.14098070750E+02  0.13590296554E+04  0.13747875346E+04  0.17280183791E+03 0.  0.
         24    2    5    5    0    0 -0.14681788341E+03 -0.39750268093E+01  0.10009059922E+04  0.10146883486E+04  0.78793069724E+02 0.  0.
          5    1    5    5  501    0  0.32712974933E+02  0.18073097560E+02  0.35812366327E+03  0.36009918603E+03  0.47000000000E+01 0. -1.
        -13    1    6    6    0    0 -0.51158947791E+00 -0.18702121966E+02  0.15114804199E+03  0.15230154854E+03  0.00000000000E+00 0.  1.
         14    1    6    6    0    0 -0.14630629393E+03  0.14727095157E+02  0.84975795017E+03  0.86238680002E+03  0.00000000000E+00 0. -1.
         -5    1    3    3    0  503  0.11171908433E+03 -0.22653497276E+02  0.26886358366E+03  0.29206857305E+03  0.47000000000E+01 0.  1.
         11    1    4    4    0    0 -0.16862575628E+02  0.43318444377E+01  0.77928830981E+02  0.79849946970E+02  0.00000000000E+00 0. -1.
        -12    1    4    4    0    0  0.19248399768E+02  0.42235820882E+01 -0.11452769037E+02  0.22792662369E+02  0.00000000000E+00 0.  1.
</event>
<event>
12    1  0.8563264E-002  0.1916882E+03  0.7818608E-02  0.1156968E+00
         21   -1    0    0  503  502  0.00000000000E+00  0.00000000000E+00  0.15296931091E+03  0.15296931091E+03  0.00000000000E+00 0. -1.
         21   -1    0    0  501  503 -0.00000000000E+00 -0.00000000000E+00 -0.33222774166E+03  0.33222774166E+03  0.00000000000E+00 0. -1.
          6    2    1    2  501    0  0.74553103597E+02 -0.39471843918E+02  0.38142673775E+02  0.19535639971E+03  0.17202635737E+03 0.  0.
         24    2    3    3    0    0  0.87528625644E+02 -0.43524212743E+02 -0.26864707029E+02  0.12877685763E+03  0.79411266043E+02 0.  0.
         -6    2    1    2    0  502 -0.74553103597E+02  0.39471843918E+02 -0.21740110453E+03  0.28984065285E+03  0.17212835931E+03 0.  0.
        -24    2    5    5    0    0 -0.14554230271E+02  0.78096753024E+02 -0.93888567345E+02  0.14711999827E+03  0.80736004116E+02 0.  0.
          5    1    3    3  501    0 -0.12975522048E+02  0.40523688242E+01  0.65007380805E+02  0.66579542087E+02  0.47000000000E+01 0. -1.
        -13    1    4    4    0    0  0.38392084259E+02 -0.58897436639E+02  0.84051045336E+00  0.70310501592E+02  0.00000000000E+00 0.  1.
         14    1    4    4    0    0  0.49136541385E+02  0.15373223896E+02 -0.27705217483E+02  0.58466356035E+02  0.00000000000E+00 0. -1.
         -5    1    5    5    0  502 -0.59998873325E+02 -0.38624909106E+02 -0.12351253718E+03  0.14272065458E+03  0.47000000000E+01 0.  1.
         11    1    6    6    0    0 -0.36386792753E+02  0.46188759098E+02 -0.91007770744E+02  0.10835042450E+03  0.00000000000E+00 0. -1.
        -12    1    6    6    0    0  0.21832562482E+02  0.31907993927E+02 -0.28807966004E+01  0.38769573766E+02  0.00000000000E+00 0.  1.
</event>
<event>
12    1  0.8563264E-002  0.1917909E+03  0.7818608E-02  0.1157240E+00
         21   -1    0    0  503  502  0.00000000000E+00  0.00000000000E+00  0.22928387641E+04  0.22928387641E+04  0.00000000000E+00 0. -1.
         21   -1    0    0  501  503 -0.00000000000E+00 -0.00000000000E+00 -0.25780913734E+02  0.25780913734E+02  0.00000000000E+00 0. -1.
          6    2    1    2  501    0 -0.37287911916E+02  0.72741190281E+02  0.41266833722E+03  0.45433852879E+03  0.17160032943E+03 0.  0.
         24    2    3    3    0    0  0.24082013362E+02  0.86555576160E+02  0.31975881809E+03  0.34203815599E+03  0.81685906222E+02 0.  0.
         -6    2    1    2    0  502  0.37287911916E+02 -0.72741190281E+02  0.18543895132E+04  0.18642811491E+04  0.17349947284E+03 0.  0.
        -24    2    5    5    0    0 -0.33715927265E+01 -0.81305007741E+02  0.17138634304E+04  0.17176653101E+04  0.80152277972E+02 0.  0.
          5    1    3    3  501    0 -0.61369925278E+02 -0.13814385880E+02  0.92909519125E+02  0.11230037280E+03  0.47000000000E+01 0. -1.
        -13    1    4    4    0    0 -0.27506195330E+02  0.17658621143E+02  0.59104708550E+02  0.67540982040E+02  0.00000000000E+00 0.  1.
         14    1    4    4    0    0  0.51588208692E+02  0.68896955017E+02  0.26065410954E+03  0.27449717395E+03  0.00000000000E+00 0. -1.
         -5    1    5    5    0  502  0.40659504643E+02  0.85638174605E+01  0.14052608282E+03  0.14661583898E+03  0.47000000000E+01 0.  1.
         13    1    6    6    0    0 -0.40931251894E+02 -0.33589735222E+02  0.71517875197E+03  0.71713616905E+03  0.00000000000E+00 0. -1.
        -14    1    6    6    0    0  0.37559659168E+02 -0.47715272519E+02  0.99868467840E+03  0.10005291411E+04  0.00000000000E+00 0.  1.
</event>
<event>
12    1  0.8563264E-002  0.2345716E+03  0.7818608E-02  0.1123692E+00
         21   -1    0    0  503  502  0.00000000000E+00  0.00000000000E+00  0.93876793341E+03  0.93876793341E+03  0.00000000000E+00 0. -1.
         21   -1    0    0  501  503 -0.00000000000E+00 -0.00000000000E+00 -0.19238037032E+03  0.19238037032E+03  0.00000000000E+00 0.  1.
          6    2    1    2  501    0 -0.78750274247E+02 -0.13862617283E+03 -0.98681152065E+02  0.25448337119E+03  0.17206102102E+03 0.  0.
         24    2    3    3    0    0  0.25016564412E+02 -0.61049448805E+02 -0.24833419302E+02  0.10528121789E+03  0.78195731549E+02 0.  0.
         -6    2    1    2    0  502  0.78750274247E+02  0.13862617283E+03  0.84506871515E+03  0.87666493254E+03  0.17023938773E+03 0.  0.
        -24    2    5    5    0    0  0.96665458614E+02  0.16126448170E+03  0.73889860846E+03  0.76653942044E+03  0.79127021712E+02 0.  0.
          5    1    3    3  501    0 -0.10376683866E+03 -0.77576724024E+02 -0.73847732763E+02  0.14920215330E+03  0.47000000000E+01 0. -1.
        -11    1    4    4    0    0 -0.12669646567E+02 -0.47244835155E+02 -0.39167553309E+02  0.62663319615E+02  0.00000000000E+00 0.  1.
         12    1    4    4    0    0  0.37686210978E+02 -0.13804613651E+02  0.14334134007E+02  0.42617898279E+02  0.00000000000E+00 0. -1.
         -5    1    5    5    0  502 -0.17915184367E+02 -0.22638308874E+02  0.10617010669E+03  0.11012551209E+03  0.47000000000E+01 0.  1.
         11    1    6    6    0    0  0.55535508981E+02  0.15126314528E+03  0.60640455693E+03  0.62744817997E+03  0.00000000000E+00 0. -1.
        -12    1    6    6    0    0  0.41129949633E+02  0.10001336421E+02  0.13249405152E+03  0.13909124047E+03  0.00000000000E+00 0.  1.
</event>
<event>
12    1  0.8563264E-002  0.1746120E+03  0.7818608E-02  0.1173845E+00
         21   -1    0    0  503  502  0.00000000000E+00  0.00000000000E+00  0.15119405807E+03  0.15119405807E+03  0.00000000000E+00 0. -1.
         21   -1    0    0  501  503 -0.00000000000E+00 -0.00000000000E+00 -0.25479355888E+03  0.25479355888E+03  0.00000000000E+00 0. -1.
          6    2    1    2  501    0 -0.25066461034E+02  0.16600870478E+02  0.43381442101E+02  0.17992024741E+03  0.17200415558E+03 0.  0.
         24    2    3    3    0    0  0.19127645118E+02 -0.34049953648E+02  0.63828818262E+02  0.10950142751E+03  0.79944846208E+02 0.  0.
         -6    2    1    2    0  502  0.25066461034E+02 -0.16600870478E+02 -0.14698094291E+03  0.22606736955E+03  0.16911280740E+03 0.  0.
        -24    2    5    5    0    0  0.52181849645E+02  0.25983375687E+02 -0.12159149053E+03  0.16936307859E+03  0.10247575604E+03 0.  0.
          5    1    3    3  501    0 -0.44194106152E+02  0.50650824127E+02 -0.20447376161E+02  0.70418819893E+02  0.47000000000E+01 0. -1.
        -13    1    4    4    0    0  0.26711240792E+01 -0.52810216609E+02  0.15488105295E+02  0.55099322027E+02  0.00000000000E+00 0.  1.
         14    1    4    4    0    0  0.16456521039E+02  0.18760262961E+02  0.48340712967E+02  0.54402105486E+02  0.00000000000E+00 0. -1.
         -5    1    5    5    0  502 -0.27115388611E+02 -0.42584246166E+02 -0.25389452384E+02  0.56704290961E+02  0.47000000000E+01 0.  1.
         11    1    6    6    0    0  0.29981883471E+02 -0.25796279641E+02 -0.49913295569E+01  0.39865708955E+02  0.00000000000E+00 0. -1.
        -12    1    6    6    0    0  0.22199966174E+02  0.51779655328E+02 -0.11660016097E+03  0.12949736963E+03  0.00000000000E+00 0.  1.
</event>
<event>
12    1  0.8563264E-002  0.2475452E+03  0.7818608E-02  0.1114880E+00
         21   -1    0    0  503  502  0.00000000000E+00  0.00000000000E+00  0.69275323329E+02  0.69275323329E+02  0.00000000000E+00 0. -1.
         21   -1    0    0  501  503 -0.00000000000E+00 -0.00000000000E+00 -0.92772368426E+03  0.92772368426E+03  0.00000000000E+00 0. -1.
          6    2    1    2  501    0  0.17522155581E+03  0.29123030612E+02 -0.53718872609E+03  0.59148150965E+03  0.17241781895E+03 0.  0.
         24    2    3    3    0    0  0.94002298279E+02 -0.49955256937E+02 -0.29792233039E+03  0.32667886340E+03  0.81421158580E+02 0.  0.
         -6    2    1    2    0  502 -0.17522155581E+03 -0.29123030612E+02 -0.32125963484E+03  0.40551749793E+03  0.17229609288E+03 0.  0.
        -24    2    5    5    0    0 -0.10418850033E+03 -0.74760778651E+02 -0.13624751216E+03  0.20209656845E+03  0.76388616828E+02 0.  0.
          5    1    3    3  501    0  0.81219257532E+02  0.79078287549E+02 -0.23926639570E+03  0.26480264626E+03  0.47000000000E+01 0. -1.
        -11    1    4    4    0    0  0.40096189283E+02 -0.38531146547E+01 -0.31958247299E+02  0.51418678104E+02  0.00000000000E+00 0.  1.
         12    1    4    4    0    0  0.53906108996E+02 -0.46102142282E+02 -0.26596408310E+03  0.27526018529E+03  0.00000000000E+00 0. -1.
         -5    1    5    5    0  502 -0.71033055476E+02  0.45637748039E+02 -0.18501212267E+03  0.20342092949E+03  0.47000000000E+01 0.  1.
         13    1    6    6    0    0 -0.78910181612E+02 -0.66639246531E+02 -0.14134569102E+03  0.17506059040E+03  0.00000000000E+00 0. -1.
        -14    1    6    6    0    0 -0.25278318723E+02 -0.81215321191E+01  0.50981788571E+01  0.27035978049E+02  0.00000000000E+00 0.  1.
</event>
<event>
12    1  0.8563264E-002  0.3560984E+03  0.7818608E-02  0.1060186E+00
         21   -1    0    0  501  502  0.00000000000E+00  0.00000000000E+00  0.57013255080E+03  0.57013255080E+03  0.00000000000E+00 0.  1.
         21   -1    0    0  502  503 -0.00000000000E+00 -0.00000000000E+00 -0.36205973010E+03  0.36205973010E+03  0.00000000000E+00 0. -1.
         -6    2    1    2    0  503 -0.12471499682E+03 -0.28464679882E+03 -0.18568837334E+03  0.40160458949E+03  0.17386329054E+03 0.  0.
        -24    2    3    3    0    0 -0.11291769675E+03 -0.11802910792E+03 -0.13711424022E+03  0.22758686735E+03  0.79461882453E+02 0.  0.
          6    2    1    2  501    0  0.12471499682E+03  0.28464679882E+03  0.39376119404E+03  0.53058769141E+03  0.17290977367E+03 0.  0.
         24    2    5    5    0    0  0.11067407210E+02  0.79436929024E+02  0.18424396365E+03  0.21603018456E+03  0.79312604940E+02 0.  0.
          5    1    5    5  501    0  0.11364758961E+03  0.20520986979E+03  0.20951723039E+03  0.31455750685E+03  0.47000000000E+01 0. -1.
        -11    1    6    6    0    0  0.28306264503E+02  0.27136538464E+01  0.83628891980E+02  0.88331195515E+02  0.00000000000E+00 0.  1.
         12    1    6    6    0    0 -0.17238857293E+02  0.76723275178E+02  0.10061507167E+03  0.12769898904E+03  0.00000000000E+00 0. -1.
         -5    1    3    3    0  503 -0.11797300066E+02 -0.16661769090E+03 -0.48574133117E+02  0.17401772214E+03  0.47000000000E+01 0.  1.
         11    1    4    4    0    0 -0.65816269192E+02 -0.84792134563E+02 -0.13138246686E+03  0.16965506174E+03  0.00000000000E+00 0. -1.
        -12    1    4    4    0    0 -0.47101427561E+02 -0.33236973353E+02 -0.57317733626E+01  0.57931805615E+02  0.00000000000E+00 0.  1.
</event>
<event>
12    1  0.8563264E-002  0.1779104E+03  0.7818608E-02  0.1170582E+00
         21   -1    0    0  503  502  0.00000000000E+00  0.00000000000E+00  0.76094520397E+03  0.76094520397E+03  0.00000000000E+00 0.  1.
         21   -1    0    0  501  503 -0.00000000000E+00 -0.00000000000E+00 -0.61655975251E+02  0.61655975251E+02  0.00000000000E+00 0.  1.
          6    2    1    2  501    0  0.32061007623E+02 -0.29023492376E+02  0.11297517353E+03  0.21074982068E+03  0.17257411672E+03 0.  0.
         24    2    3    3    0    0 -0.67332760670E+01 -0.53505548412E+02  0.70800917194E+01  0.95249925150E+02  0.78193604758E+02 0.  0.
         -6    2    1    2    0  502 -0.32061007623E+02  0.29023492376E+02  0.58631405519E+03  0.61185135854E+03  0.16949230756E+03 0.  0.
        -24    2    5    5    0    0  0.48944156340E+01  0.50625103551E+02  0.18233721547E+03  0.20558579276E+03  0.80198513862E+02 0.  0.
          5    1    3    3  501    0  0.38794283690E+02  0.24482056036E+02  0.10589508181E+03  0.11549989553E+03  0.47000000000E+01 0. -1.
        -13    1    4    4    0    0  0.89288601962E+01 -0.70839179396E+02  0.81542208446E+01  0.71863796167E+02  0.00000000000E+00 0.  1.
         14    1    4    4    0    0 -0.15662136263E+02  0.17333630985E+02 -0.10741291253E+01  0.23386128983E+02  0.00000000000E+00 0. -1.
         -5    1    5    5    0  502 -0.36955423257E+02 -0.21601611175E+02  0.40397683971E+03  0.40626556578E+03  0.47000000000E+01 0.  1.
         13    1    6    6    0    0 -0.37082598112E+02  0.15485861353E+02  0.74362080567E+02  0.84526031557E+02  0.00000000000E+00 0. -1.
        -14    1    6    6    0    0  0.41977013746E+02  0.35139242198E+02  0.10797513491E+03  0.12105976121E+03  0.00000000000E+00 0.  1.
</event>
<event>
12    1  0.8563264E-002  0.2282906E+03  0.7818608E-02  0.1127858E+00
         21   -1    0    0  503  502  0.00000000000E+00  0.00000000000E+00  0.52891932400E+02  0.52891932400E+02  0.00000000000E+00 0.  1.
         21   -1    0    0  501  503 -0.00000000000E+00 -0.00000000000E+00 -0.14433453630E+04  0.14433453630E+04  0.00000000000E+00 0. -1.
          6    2    1    2  501    0 -0.14852937339E+03 -0.14790869334E+02 -0.11168048968E+04  0.11398990194E+04  0.17273347188E+03 0.  0.
         24    2    3    3    0    0 -0.16713995186E+03  0.12396389484E+02 -0.78970591978E+03  0.81111135015E+03  0.78592293703E+02 0.  0.
         -6    2    1    2    0  502  0.14852937339E+03  0.14790869334E+02 -0.27364853383E+03  0.35633827604E+03  0.17266644819E+03 0.  0.
        -24    2    5    5    0    0  0.12826661216E+03 -0.19737842323E+02 -0.11076271073E+03  0.18853871470E+03  0.80228191032E+02 0.  0.
          5    1    3    3  501    0  0.18610578476E+02 -0.27187258818E+02 -0.32709897704E+03  0.32878766926E+03  0.47000000000E+01 0. -1.
        -11    1    4    4    0    0 -0.68088607144E+02  0.37152186903E+02 -0.24725639478E+03  0.25913716093E+03  0.00000000000E+00 0.  1.
         12    1    4    4    0    0 -0.99051344718E+02 -0.24755797419E+02 -0.54244952500E+03  0.55197418922E+03  0.00000000000E+00 0. -1.
         -5    1    5    5    0  502  0.20262761224E+02  0.34528711657E+02 -0.16288582309E+03  0.16779956134E+03  0.47000000000E+01 0.  1.
         13    1    6    6    0    0  0.18549308449E+02  0.12467685686E+02 -0.58867051257E+02  0.62967052925E+02  0.00000000000E+00 0. -1.
        -14    1    6    6    0    0  0.10971730371E+03 -0.32205528009E+02 -0.51895659477E+02  0.12557166177E+03  0.00000000000E+00 0.  1.
</event>
<event>
12    1  0.8563264E-002  0.1906382E+03  0.7818608E-02  0.1157965E+00
         21   -1    0    0  501  502  0.00000000000E+00  0.00000000000E+00  0.46983263334E+03  0.46983263334E+03  0.00000000000E+00 0.  1.
         21   -1    0    0  502  503 -0.00000000000E+00 -0.00000000000E+00 -0.36132032388E+03  0.36132032388E+03  0.00000000000E+00 0. -1.
         -6    2    1    2    0  503  0.76304055021E+02  0.32214950837E+02 -0.31426272867E+03  0.36738400400E+03  0.17131792636E+03 0.  0.
        -24    2    3    3    0    0  0.44933149485E+02 -0.44016669796E+02 -0.21853607025E+03  0.24096772011E+03  0.79692992123E+02 0.  0.
          6    2    1    2  501    0 -0.76304055021E+02 -0.32214950837E+02  0.42277503813E+03  0.46376895322E+03  0.17170555387E+03 0.  0.
         24    2    5    5    0    0 -0.69209101372E+02 -0.76060175287E+02  0.38181547028E+03  0.40316764735E+03  0.78651437018E+02 0.  0.
          5    1    5    5  501    0 -0.70949536493E+01  0.43845224450E+02  0.40959567849E+02  0.60601305867E+02  0.47000000000E+01 0. -1.
        -13    1    6    6    0    0  0.14528168338E+02 -0.22023666875E+02  0.47756046230E+02  0.54559596125E+02  0.00000000000E+00 0.  1.
         14    1    6    6    0    0 -0.83737269710E+02 -0.54036508412E+02  0.33405942405E+03  0.34860805123E+03  0.00000000000E+00 0. -1.
         -5    1    3    3    0  503  0.31370905536E+02  0.76231620633E+02 -0.95726658421E+02  0.12641628388E+03  0.47000000000E+01 0.  1.
         11    1    4    4    0    0 -0.22453345398E+00  0.12286343562E+02 -0.10962880707E+03  0.11031536607E+03  0.00000000000E+00 0. -1.
        -12    1    4    4    0    0  0.45157682939E+02 -0.56303013358E+02 -0.10890726319E+03  0.13065235404E+03  0.00000000000E+00 0.  1.
</event>
<event>
12    1  0.8563264E-002  0.1967869E+03  0.7818608E-02  0.1152492E+00
         21   -1    0    0  501  502  0.00000000000E+00  0.00000000000E+00  0.41218212619E+03  0.41218212619E+03  0.00000000000E+00 0.  1.
         21   -1    0    0  502  503 -0.00000000000E+00 -0.00000000000E+00 -0.15602024479E+03  0.15602024479E+03  0.00000000000E+00 0. -1.
         -6    2    1    2    0  503  0.96062038974E+02 -0.11724761221E+02 -0.51167119704E+02  0.20326922114E+03  0.17127439028E+03 0.  0.
        -24    2    3    3    0    0 -0.35838890900E+01 -0.11848655120E+02  0.15675723104E+02  0.83188490108E+02  0.80754948470E+02 0.  0.
          6    2    1    2  501    0 -0.96062038974E+02  0.11724761221E+02  0.30732900110E+03  0.36493314985E+03  0.17134673496E+03 0.  0.
         24    2    5    5    0    0 -0.40798658125E+02  0.18983515458E+01  0.29447061217E+03  0.30715748234E+03  0.77231103087E+02 0.  0.
          5    1    5    5  501    0 -0.55263380850E+02  0.98264096753E+01  0.12858388933E+02  0.57775667508E+02  0.47000000000E+01 0. -1.
        -13    1    6    6    0    0 -0.57002832474E+02 -0.11442051400E+02  0.14502230754E+03  0.15624248185E+03  0.00000000000E+00 0.  1.
         14    1    6    6    0    0  0.16204174349E+02  0.13340402946E+02  0.14944830463E+03  0.15091500049E+03  0.00000000000E+00 0. -1.
         -5    1    3    3    0  503  0.99645928064E+02  0.12389389907E+00 -0.66842842808E+02  0.12008073103E+03  0.47000000000E+01 0.  1.
         11    1    4    4    0    0 -0.13472367343E+02 -0.91481349142E+01 -0.31205825171E+02  0.35199383217E+02  0.00000000000E+00 0. -1.
        -12    1    4    4    0    0  0.98884782530E+01 -0.27005202060E+01  0.46881548275E+02  0.47989106891E+02  0.00000000000E+00 0.  1.
</event>
<event>
12    1  0.8563264E-002  0.2361533E+03  0.7818608E-02  0.1122429E+00
         21   -1    0    0  501  502  0.00000000000E+00  0.00000000000E+00  0.86613895909E+02  0.86613895909E+02  0.00000000000E+00 0.  1.
         21   -1    0    0  502  503 -0.00000000000E+00 -0.00000000000E+00 -0.15935373627E+04  0.15935373627E+04  0.00000000000E+00 0. -1.
         -6    2    1    2    0  503  0.16146418687E+03  0.17146951639E+02 -0.14020587549E+04  0.14217620680E+04  0.17109624276E+03 0.  0.
        -24    2    3    3    0    0  0.37497561729E+02  0.51752306478E+02 -0.76727216957E+03  0.77404194818E+03  0.79686805603E+02 0.  0.
          6    2    1    2  501    0 -0.16146418687E+03 -0.17146951639E+02 -0.10486471186E+03  0.25838919056E+03  0.17147496730E+03 0.  0.
         24    2    5    5    0    0 -0.10280619470E+03  0.46140568180E+02 -0.10252109098E+03  0.17193889982E+03  0.79714148507E+02 0.  0.
          5    1    5    5  501    0 -0.58657992168E+02 -0.63287519818E+02 -0.23436208766E+01  0.86450290738E+02  0.47000000000E+01 0. -1.
        -13    1    6    6    0    0 -0.17830493677E+02 -0.12514536421E+02  0.55409018012E+01  0.22477582596E+02  0.00000000000E+00 0.  1.
         14    1    6    6    0    0 -0.84975701028E+02  0.58655104600E+02 -0.10806199279E+03  0.14946131722E+03  0.00000000000E+00 0. -1.
         -5    1    3    3    0  503  0.12396662514E+03 -0.34605354840E+02 -0.63478658532E+03  0.64772011983E+03  0.47000000000E+01 0.  1.
         13    1    4    4    0    0  0.60506754431E+02  0.36951530120E+02 -0.44519659694E+03  0.45080649156E+03  0.00000000000E+00 0. -1.
        -14    1    4    4    0    0 -0.23009192702E+02  0.14800776358E+02 -0.32207557263E+03  0.32323545662E+03  0.00000000000E+00 0.  1.
</event>
<event>
12    1  0.8563264E-002  0.1803852E+03  0.7818608E-02  0.1167890E+00
         21   -1    0    0  503  502  0.00000000000E+00  0.00000000000E+00  0.75665475212E+03  0.75665475212E+03  0.00000000000E+00 0. -1.
         21   -1    0    0  501  503 -0.00000000000E+00 -0.00000000000E+00 -0.52741613463E+02  0.52741613463E+02  0.00000000000E+00 0. -1.
          6    2    1    2  501    0  0.41508069838E+02  0.25512147583E+02  0.52832724051E+03  0.55766391551E+03  0.17171365717E+03 0.  0.
         24    2    3    3    0    0  0.63533039085E+02 -0.33785009789E+02  0.25120710075E+03  0.27337723977E+03  0.80325797933E+02 0.  0.
         -6    2    1    2    0  502 -0.41508069838E+02 -0.25512147583E+02  0.17558589815E+03  0.25173245008E+03  0.17368082582E+03 0.  0.
        -24    2    5    5    0    0 -0.25375752826E+02 -0.40355467340E+02  0.17794978153E+02  0.92356667016E+02  0.77075288642E+02 0.  0.
          5    1    3    3  501    0 -0.22024969247E+02  0.59297157372E+02  0.27712013976E+03  0.28428667574E+03  0.47000000000E+01 0. -1.
        -13    1    4    4    0    0  0.10194167961E+02 -0.50621197659E+02  0.13031820507E+03  0.14017582276E+03  0.00000000000E+00 0.  1.
         14    1    4    4    0    0  0.53338871124E+02  0.16836187870E+02  0.12088889568E+03  0.13320141701E+03  0.00000000000E+00 0. -1.
         -5    1    5    5    0  502 -0.16132317012E+02  0.14843319757E+02  0.15779091999E+03  0.15937578306E+03  0.47000000000E+01 0.  1.
         11    1    6    6    0    0 -0.31225374762E+02 -0.59562509341E+02  0.28219823019E+01  0.67310327084E+02  0.00000000000E+00 0. -1.
        -12    1    6    6    0    0  0.58496219358E+01  0.19207042001E+02  0.14972995851E+02  0.25046339932E+02  0.00000000000E+00 0.  1.
</event>
<event>
12    1  0.8563264E-002  0.2143622E+03  0.7818608E-02  0.1138781E+00
         21   -1    0    0  501  502  0.00000000000E+00  0.00000000000E+00  0.19057573856E+03  0.19057573856E+03  0.00000000000E+00 0.  1.
         21   -1    0    0  502  503 -0.00000000000E+00 -0.00000000000E+00 -0.33143273075E+03  0.33143273075E+03  0.00000000000E+00 0. -1.
         -6    2    1    2    0  503  0.98035242534E+02  0.76992673646E+02 -0.20897855256E+03  0.29708252224E+03  0.17043241774E+03 0.  0.
        -24    2    3    3    0    0  0.51066657264E+02 -0.25155916600E+02 -0.11286214829E+03  0.14909321296E+03  0.79058826258E+02 0.  0.
          6    2    1    2  501    0 -0.98035242534E+02 -0.76992673646E+02  0.68121560360E+02  0.22492594708E+03  0.17439138198E+03 0.  0.
         24    2    5    5    0    0 -0.64436143262E+02 -0.11978924672E+03  0.38412537131E+02  0.16275551842E+03  0.80699167154E+02 0.  0.
          5    1    5    5  501    0 -0.33599099272E+02  0.42796573071E+02  0.29709023229E+02  0.62170428660E+02  0.47000000000E+01 0. -1.
        -13    1    6    6    0    0 -0.27400195000E+02 -0.66991882100E+02  0.60760237402E+02  0.94501266671E+02  0.00000000000E+00 0.  1.
         14    1    6    6    0    0 -0.37035948262E+02 -0.52797364618E+02 -0.22347700271E+02  0.68254251748E+02  0.00000000000E+00 0. -1.
         -5    1    3    3    0  503  0.46968585270E+02  0.10214859025E+03 -0.96116404266E+02  0.14798930928E+03  0.47000000000E+01 0.  1.
         11    1    4    4    0    0  0.41480819793E+02 -0.29105592901E+01 -0.11731314002E+03  0.12446486488E+03  0.00000000000E+00 0. -1.
        -12    1    4    4    0    0  0.95858374708E+01 -0.22245357309E+02  0.44509917343E+01  0.24628348082E+02  0.00000000000E+00 0.  1.
</event>
<event>
12    1  0.8563264E-002  0.4191026E+03  0.7818608E-02  0.1037367E+00
         21   -1    0    0  501  502  0.00000000000E+00  0.00000000000E+00  0.18687581695E+03  0.18687581695E+03  0.00000000000E+00 0.  1.
         21   -1    0    0  502  503 -0.00000000000E+00 -0.00000000000E+00 -0.96222130621E+03  0.96222130621E+03  0.00000000000E+00 0. -1.
         -6    2    1    2    0  503  0.79557515468E+02 -0.37394523405E+03 -0.29972942738E+03  0.51517468951E+03  0.17147243140E+03 0.  0.
        -24    2    3    3    0    0  0.38273332102E+02 -0.71339331825E+02 -0.72422922505E+02  0.13443192461E+03  0.79200469920E+02 0.  0.
          6    2    1    2  501    0 -0.79557515468E+02  0.37394523405E+03 -0.47561606188E+03  0.63392243365E+03  0.17170491321E+03 0.  0.
         24    2    5    5    0    0 -0.12251742679E+03  0.30122557525E+03 -0.37978555399E+03  0.50609724442E+03  0.78421851150E+02 0.  0.
          5    1    5    5  501    0  0.42959911326E+02  0.72719658809E+02 -0.95830507894E+02  0.12782518923E+03  0.47000000000E+01 0. -1.
        -13    1    6    6    0    0 -0.60777483558E+02  0.11801527177E+03 -0.10084448767E+03  0.16670668124E+03  0.00000000000E+00 0.  1.
         14    1    6    6    0    0 -0.61739943237E+02  0.18321030348E+03 -0.27894106632E+03  0.33939056318E+03  0.00000000000E+00 0. -1.
         -5    1    3    3    0  503  0.41284183367E+02 -0.30260590223E+03 -0.22730650487E+03  0.38074276489E+03  0.47000000000E+01 0.  1.
         11    1    4    4    0    0 -0.97124242908E+01  0.12867328671E+02 -0.75270612965E+01  0.17792020247E+02  0.00000000000E+00 0. -1.
        -12    1    4    4    0    0  0.47985756392E+02 -0.84206660495E+02 -0.64895861209E+02  0.11663990437E+03  0.00000000000E+00 0.  1.
</event>
<event>
12    1  0.8563264E-002  0.1776890E+03  0.7818608E-02  0.1170069E+00
         21   -1    0    0  503  502  0.00000000000E+00  0.00000000000E+00  0.19925153249E+02  0.19925153249E+02  0.00000000000E+00 0.  1.
         21   -1    0    0  501  503 -0.00000000000E+00 -0.00000000000E+00 -0.21450672448E+04  0.21450672448E+04  0.00000000000E+00 0.  1.
          6    2    1    2  501    0  0.15818011429E+02 -0.42918839678E+02 -0.16159925717E+04  0.16257275017E+04  0.17165570674E+03 0.  0.
         24    2    3    3    0    0  0.73731646435E+02 -0.48039253253E+02 -0.11416473574E+04  0.11478094333E+04  0.79772683193E+02 0.  0.
         -6    2    1    2    0  502 -0.15818011429E+02  0.42918839678E+02 -0.50914951989E+03  0.53926489641E+03  0.17170078219E+03 0.  0.
        -24    2    5    5    0    0  0.48334144308E+02 -0.13463873751E+02 -0.24682799448E+03  0.26334972438E+03  0.76886624776E+02 0.  0.
          5    1    3    3  501    0 -0.57913635006E+02  0.51204135755E+01 -0.47434521426E+03  0.47791806834E+03  0.47000000000E+01 0. -1.
        -13    1    4    4    0    0  0.87211580535E+02 -0.28637771241E+02 -0.10001386605E+04  0.10043422335E+04  0.00000000000E+00 0.  1.
         14    1    4    4    0    0 -0.13479934100E+02 -0.19401482013E+02 -0.14150869696E+03  0.14346719988E+03  0.00000000000E+00 0. -1.
         -5    1    5    5    0  502 -0.64152155737E+02  0.56382713429E+02 -0.26232152541E+03  0.27591517202E+03  0.47000000000E+01 0.  1.
         13    1    6    6    0    0  0.30123927339E+02  0.28172754610E+02 -0.74771358119E+02  0.85392687601E+02  0.00000000000E+00 0. -1.
        -14    1    6    6    0    0  0.18210216969E+02 -0.41636628362E+02 -0.17205663636E+03  0.17795703678E+03  0.00000000000E+00 0.  1.
</event>
<event>
12    1  0.8563264E-002  0.1723546E+03  0.7818608E-02  0.1175488E+00
         21   -1    0    0  501  502  0.00000000000E+00  0.00000000000E+00  0.56229323359E+03  0.56229323359E+03  0.00000000000E+00 0.  1.
         21   -1    0    0  502  503 -0.00000000000E+00 -0.00000000000E+00 -0.52943910065E+02  0.52943910065E+02  0.00000000000E+00 0.  1.
         -6    2    1    2    0  503 -0.34804517785E+01  0.11747545207E+02  0.27345380127E+03  0.32308509080E+03  0.17163005594E+03 0.  0.
        -24    2    3    3    0    0  0.87447828167E+01  0.36998504482E+02  0.63189677261E+02  0.11090554619E+03  0.82835646324E+02 0.  0.
          6    2    1    2  501    0  0.34804517785E+01 -0.11747545207E+02  0.23589552226E+03  0.29215205286E+03  0.17191860344E+03 0.  0.
         24    2    5    5    0    0  0.38324828590E+02 -0.52938239962E+02  0.20512074620E+03  0.22986256121E+03  0.80566908744E+02 0.  0.
          5    1    5    5  501    0 -0.34844376811E+02  0.41190694755E+02  0.30774776054E+02  0.62289491657E+02  0.47000000000E+01 0. -1.
        -13    1    6    6    0    0  0.21113511747E+02  0.17796770012E+02  0.85321243597E+02  0.89678425556E+02  0.00000000000E+00 0.  1.
         14    1    6    6    0    0  0.17211316843E+02 -0.70735009974E+02  0.11979950261E+03  0.14018413565E+03  0.00000000000E+00 0. -1.
         -5    1    3    3    0  503 -0.12225234595E+02 -0.25250959276E+02  0.21026412401E+03  0.21217954461E+03  0.47000000000E+01 0.  1.
         11    1    4    4    0    0  0.32770825227E+02  0.50874469833E+02  0.29684894292E+02  0.67404240341E+02  0.00000000000E+00 0. -1.
        -12    1    4    4    0    0 -0.24026042411E+02 -0.13875965351E+02  0.33504782969E+02  0.43501305844E+02  0.00000000000E+00 0.  1.
</event>
<event>
12    1  0.8563264E-002  0.1971604E+03  0.7818608E-02  0.1152202E+00
         21   -1    0    0  501  502  0.00000000000E+00  0.00000000000E+00  0.13393363958E+03  0.13393363958E+03  0.00000000000E+00 0.  1.
         21   -1    0    0  502  503 -0.00000000000E+00 -0.00000000000E+00 -0.31227616528E+03  0.31227616528E+03  0.00000000000E+00 0. -1.
         -6    2    1    2    0  503  0.88462351286E+02 -0.33245440794E+02 -0.14889557226E+03  0.24706699926E+03  0.17303572970E+03 0.  0.
        -24    2    3    3    0    0  0.62305243701E+02 -0.17613234753E+02 -0.17735223340E+03  0.20510950046E+03  0.80149379638E+02 0.  0.
          6    2    1    2  501    0 -0.88462351286E+02  0.33245440794E+02 -0.29446953436E+02  0.19914280559E+03  0.17280013606E+03 0.  0.
         24    2    5    5    0    0  0.21685726512E+02  0.88837334096E+01 -0.25205914598E+01  0.83068644821E+02  0.79654597592E+02 0.  0.
          5    1    5    5  501    0 -0.11014807780E+03  0.24361707385E+02 -0.26926361976E+02  0.11607416077E+03  0.47000000000E+01 0. -1.
        -11    1    6    6    0    0 -0.48445977014E+01  0.30468961465E+02  0.24567967452E+02  0.39438721637E+02  0.00000000000E+00 0.  1.
         12    1    6    6    0    0  0.26530324214E+02 -0.21585228056E+02 -0.27088558912E+02  0.43629923184E+02  0.00000000000E+00 0. -1.
         -5    1    3    3    0  503  0.26157107584E+02 -0.15632206041E+02  0.28456661132E+02  0.41957498801E+02  0.47000000000E+01 0.  1.
         11    1    4    4    0    0  0.77828461178E+01  0.13759095157E+02 -0.11657103367E+03  0.11763796702E+03  0.00000000000E+00 0. -1.
        -12    1    4    4    0    0  0.54522397583E+02 -0.31372329910E+02 -0.60781199726E+02  0.87471533440E+02  0.00000000000E+00 0.  1.
</event>
<event>
12    1  0.8563264E-002  0.2127986E+03  0.7818608E-02  0.1139818E+00
         21   -1    0    0  501  502  0.00000000000E+00  0.00000000000E+00  0.38915484401E+03  0.38915484401E+03  0.00000000000E+00 0. -1.
         21   -1    0    0  502  503 -0.00000000000E+00 -0.00000000000E+00 -0.16517105338E+03  0.16517105338E+03  0.00000000000E+00 0. -1.
         -6    2    1    2    0  503  0.62008102696E+02  0.10965345116E+03 -0.40167027976E+02  0.21655634338E+03  0.17150619689E+03 0.  0.
        -24    2    3    3    0    0  0.54274148263E+02  0.12118008055E+03  0.19022166360E+02  0.15557988922E+03  0.78822357388E+02 0.  0.
          6    2    1    2  501    0 -0.62008102696E+02 -0.10965345116E+03  0.26415081860E+03  0.33776955400E+03  0.16865269785E+03 0.  0.
         24    2    5    5    0    0  0.14121078382E+02 -0.19412125747E+02  0.66893366768E+02  0.10783099410E+03  0.81096025124E+02 0.  0.
          5    1    5    5  501    0 -0.76129181078E+02 -0.90241325415E+02  0.19725745184E+03  0.22993855990E+03  0.47000000000E+01 0. -1.
        -13    1    6    6    0    0  0.30052875007E+01  0.28906892780E+02  0.45142297447E+02  0.53688613523E+02  0.00000000000E+00 0.  1.
         14    1    6    6    0    0  0.11115790882E+02 -0.48319018527E+02  0.21751069320E+02  0.54142380580E+02  0.00000000000E+00 0. -1.
         -5    1    3    3    0  503  0.77339544328E+01 -0.11526629390E+02 -0.59189194336E+02  0.60976454164E+02  0.47000000000E+01 0.  1.
         13    1    4    4    0    0  0.58567155206E+02  0.35631924117E+02  0.45046286758E+01  0.68702528081E+02  0.00000000000E+00 0. -1.
        -14    1    4    4    0    0 -0.42930069428E+01  0.85548156435E+02  0.14517537684E+02  0.86877361138E+02  0.00000000000E+00 0.  1.
</event>
<event>
12    1  0.8563264E-002  0.1921119E+03  0.7818608E-02  0.1156595E+00
         21   -1    0    0  503  502  0.00000000000E+00  0.00000000000E+00  0.66846936331E+03  0.66846936331E+03  0.00000000000E+00 0.  1.
         21   -1    0    0  501  503 -0.00000000000E+00 -0.00000000000E+00 -0.13819582194E+03  0.13819582194E+03  0.00000000000E+00 0.  1.
          6    2    1    2  501    0 -0.54177389455E+02 -0.66069050722E+02 -0.47501362140E+02  0.19778850376E+03  0.17194069856E+03 0.  0.
         24    2    3    3    0    0 -0.63546189300E+02 -0.89937217998E+02 -0.78146936385E+02  0.15755537014E+03  0.81178381601E+02 0.  0.
         -6    2    1    2    0  502  0.54177389455E+02  0.66069050722E+02  0.57777490352E+03  0.60887668149E+03  0.17206587441E+03 0.  0.
        -24    2    5    5    0    0 -0.70304480941E+01  0.56114628856E+02  0.13211159216E+03  0.15889516300E+03  0.67793224367E+02 0.  0.
          5    1    3    3  501    0  0.93687998442E+01  0.23868167275E+02  0.30645574245E+02  0.40233133614E+02  0.47000000000E+01 0. -1.
        -11    1    4    4    0    0 -0.13733893227E+02 -0.16582966800E+02 -0.64303535836E+02  0.67812678255E+02  0.00000000000E+00 0.  1.
         12    1    4    4    0    0 -0.49812296073E+02 -0.73354251198E+02 -0.13843400548E+02  0.89742691889E+02  0.00000000000E+00 0. -1.
         -5    1    5    5    0  502  0.61207837549E+02  0.99544218668E+01  0.44566331136E+03  0.44998151849E+03  0.47000000000E+01 0.  1.
         11    1    6    6    0    0 -0.13784415027E+02  0.21564588100E+02  0.11836826505E+03  0.12110362393E+03  0.00000000000E+00 0. -1.
        -12    1    6    6    0    0  0.67539669330E+01  0.34550040756E+02  0.13743327113E+02  0.37791539075E+02  0.00000000000E+00 0.  1.
</event>
<event>
12    1  0.8563264E-002  0.2304026E+03  0.7818608E-02  0.1126612E+00
         21   -1    0    0  501  502  0.00000000000E+00  0.00000000000E+00  0.23529331150E+03  0.23529331150E+03  0.00000000000E+00 0.  1.
         21   -1    0    0  502  503 -0.00000000000E+00 -0.00000000000E+00 -0.32616468871E+03  0.32616468871E+03  0.00000000000E+00 0.  1.
         -6    2    1    2    0  503  0.75147208043E+02  0.13220740114E+03 -0.20230127139E+03  0.30552442815E+03  0.17115335812E+03 0.  0.
        -24    2    3    3    0    0  0.51515621330E+02  0.10428058352E+03 -0.22274645399E+03  0.26335270155E+03  0.78805858325E+02 0.  0.
          6    2    1    2  501    0 -0.75147208043E+02 -0.13220740114E+03  0.11142989418E+03  0.25593357207E+03  0.17308804754E+03 0.  0.
         24    2    5    5    0    0 -0.67128374067E+02 -0.23701620456E+02  0.10041264951E+03  0.14647455773E+03  0.79398428588E+02 0.  0.
          5    1    5    5  501    0 -0.80188339755E+01 -0.10850578069E+03  0.11017244667E+02  0.10945901434E+03  0.47000000000E+01 0. -1.
        -13    1    6    6    0    0 -0.37802801232E+02 -0.45839779167E+02  0.28894789823E+02  0.66070008430E+02  0.00000000000E+00 0.  1.
         14    1    6    6    0    0 -0.29325572835E+02  0.22138158711E+02  0.71517859690E+02  0.80404549298E+02  0.00000000000E+00 0. -1.
         -5    1    3    3    0  503  0.23631586712E+02  0.27926817619E+02  0.20445182600E+02  0.42171726600E+02  0.47000000000E+01 0.  1.
         11    1    4    4    0    0 -0.16254601102E+02  0.26077872209E+01 -0.42659764013E+02  0.45726010944E+02  0.00000000000E+00 0. -1.
        -12    1    4    4    0    0  0.67770222432E+02  0.10167279630E+03 -0.18008668998E+03  0.21762669060E+03  0.00000000000E+00 0.  1.
</event>
<event>
12    1  0.8563264E-002  0.1791077E+03  0.7818608E-02  0.1168996E+00
         21   -1    0    0  501  502  0.00000000000E+00  0.00000000000E+00  0.22317128128E+04  0.22317128128E+04  0.00000000000E+00 0. -1.
         21   -1    0    0  502  503 -0.00000000000E+00 -0.00000000000E+00 -0.15116086253E+02  0.15116086253E+02  0.00000000000E+00 0. -1.
         -6    2    1    2    0  503  0.44581017187E+02 -0.19372595403E+02  0.13784218085E+04  0.13900094438E+04  0.17238563496E+03 0.  0.
        -24    2    3    3    0    0 -0.68432371700E+01 -0.10133321028E+02  0.29888429600E+03  0.30919810548E+03  0.78244053759E+02 0.  0.
          6    2    1    2  501    0 -0.44581017187E+02  0.19372595403E+02  0.83817491801E+03  0.85681945522E+03  0.17099596814E+03 0.  0.
         24    2    5    5    0    0 -0.20636773918E+02  0.76246534120E+01  0.16662961953E+03  0.18472830156E+03  0.76649223826E+02 0.  0.
          5    1    5    5  501    0 -0.23944243269E+02  0.11747941991E+02  0.67154529848E+03  0.67209115367E+03  0.47000000000E+01 0. -1.
        -13    1    6    6    0    0 -0.49881994427E+02  0.67609589947E+01  0.99873492549E+02  0.11184202452E+03  0.00000000000E+00 0.  1.
         14    1    6    6    0    0  0.29245220509E+02  0.86369441735E+00  0.66756126982E+02  0.72886277037E+02  0.00000000000E+00 0. -1.
         -5    1    3    3    0  503  0.51424254357E+02 -0.92392743756E+01  0.10795375125E+04  0.10808113383E+04  0.47000000000E+01 0.  1.
         13    1    4    4    0    0 -0.29467358725E+02 -0.34101268544E+02  0.14584392039E+03  0.15264884821E+03  0.00000000000E+00 0. -1.
        -14    1    4    4    0    0  0.22624121555E+02  0.23967947516E+02  0.15304037561E+03  0.15654925727E+03  0.00000000000E+00 0.  1.
</event>
<event>
12    1  0.8563264E-002  0.1746339E+03  0.7818608E-02  0.1173303E+00
         21   -1    0    0  503  502  0.00000000000E+00  0.00000000000E+00  0.50437930758E+02  0.50437930758E+02  0.00000000000E+00 0. -1.
         21   -1    0    0  501  503 -0.00000000000E+00 -0.00000000000E+00 -0.60617533688E+03  0.60617533688E+03  0.00000000000E+00 0. -1.
          6    2    1    2  501    0 -0.12135362758E+02 -0.26197870182E+02 -0.30621520161E+03  0.35251204210E+03  0.17223064390E+03 0.  0.
         24    2    3    3    0    0  0.52605426904E+02 -0.43002741281E+02 -0.21564759212E+03  0.23982506226E+03  0.79972556541E+02 0.  0.
         -6    2    1    2    0  502  0.12135362758E+02  0.26197870182E+02 -0.24952220451E+03  0.30410122554E+03  0.17141362080E+03 0.  0.
        -24    2    5    5    0    0  0.74328299724E+00 -0.32456015278E+02 -0.21913663254E+03  0.23690427066E+03  0.83957276856E+02 0.  0.
          5    1    3    3  501    0 -0.64740789662E+02  0.16804871099E+02 -0.90567609489E+02  0.11268697985E+03  0.47000000000E+01 0. -1.
        -13    1    4    4    0    0  0.76356357259E+00  0.86652832536E+01 -0.11526142577E+03  0.11558921418E+03  0.00000000000E+00 0.  1.
         14    1    4    4    0    0  0.51841863331E+02 -0.51668024535E+02 -0.10038616635E+03  0.12423584808E+03  0.00000000000E+00 0. -1.
         -5    1    5    5    0  502  0.11392079761E+02  0.58653885460E+02 -0.30385571967E+02  0.67196954876E+02  0.47000000000E+01 0.  1.
         13    1    6    6    0    0  0.20441430465E+02  0.14700097543E+02 -0.14304338875E+03  0.14524240432E+03  0.00000000000E+00 0. -1.
        -14    1    6    6    0    0 -0.19698147468E+02 -0.47156112821E+02 -0.76093243790E+02  0.91661866338E+02  0.00000000000E+00 0.  1.
</event>
<event>
12    1  0.8563264E-002  0.4099379E+03  0.7818608E-02  0.1040485E+00
         21   -1    0    0  501  502  0.00000000000E+00  0.00000000000E+00  0.60126009560E+03  0.60126009560E+03  0.00000000000E+00 0.  1.
         21   -1    0    0  502  503 -0.00000000000E+00 -0.00000000000E+00 -0.31299054979E+03  0.31299054979E+03  0.00000000000E+00 0.  1.
         -6    2    1    2    0  503  0.27932755886E+03  0.24391018139E+03 -0.69147307056E+01  0.40999619271E+03  0.17473695320E+03 0.  0.
        -24    2    3    3    0    0  0.24800801369E+03  0.12957352423E+03  0.24821278523E+01  0.29098284879E+03  0.79797144681E+02 0.  0.
          6    2    1    2  501    0 -0.27932755886E+03 -0.24391018139E+03  0.29518427652E+03  0.50425445268E+03  0.17211256265E+03 0.  0.
         24    2    5    5    0    0 -0.18487021505E+03 -0.16692732055E+03  0.27722186675E+03  0.38099339302E+03  0.79134539664E+02 0.  0.
          5    1    5    5  501    0 -0.94457343816E+02 -0.76982860836E+02  0.17962409771E+02  0.12326105966E+03  0.47000000000E+01 0. -1.
        -13    1    6    6    0    0 -0.11286923852E+03 -0.81248811146E+02  0.99616217644E+02  0.17106789627E+03  0.00000000000E+00 0.  1.
         14    1    6    6    0    0 -0.72000976531E+02 -0.85678509404E+02  0.17760564910E+03  0.20992549676E+03  0.00000000000E+00 0. -1.
         -5    1    3    3    0  503  0.31319545178E+02  0.11433665716E+03 -0.93968585578E+01  0.11901334392E+03  0.47000000000E+01 0.  1.
         11    1    4    4    0    0  0.17268082591E+02  0.34023909920E+01 -0.20474901113E+02  0.26999713265E+02  0.00000000000E+00 0. -1.
        -12    1    4    4    0    0  0.23073993109E+03  0.12617113323E+03  0.22957028965E+02  0.26398313553E+03  0.00000000000E+00 0.  1.
</event>
<event>
12    1  0.8563264E-002  0.2240389E+03  0.7818608E-02  0.1132009E+00
         21   -1    0    0  501  502  0.00000000000E+00  0.00000000000E+00  0.64633881561E+02  0.64633881561E+02  0.00000000000E+00 0.  1.
         21   -1    0    0  502  503 -0.00000000000E+00 -0.00000000000E+00 -0.79151956601E+03  0.79151956601E+03  0.00000000000E+00 0.  1.
         -6    2    1    2    0  503 -0.14381451145E+03  0.24926279594E+02 -0.27750932971E+03  0.35665790661E+03  0.16996911825E+03 0.  0.
        -24    2    3    3    0    0 -0.72563530837E+02 -0.27310530602E+02 -0.57461132324E+02  0.11948985280E+03  0.70460713202E+02 0.  0.
          6    2    1    2  501    0  0.14381451145E+03 -0.24926279594E+02 -0.44937635474E+03  0.49949554096E+03  0.16202701663E+03 0.  0.
         24    2    5    5    0    0  0.86792831293E+02  0.14281026161E+02 -0.14618984480E+03  0.18847651478E+03  0.80093586696E+02 0.  0.
          5    1    5    5  501    0  0.57021680158E+02 -0.39207305756E+02 -0.30318650994E+03  0.31101902618E+03  0.47000000000E+01 0. -1.
        -11    1    6    6    0    0  0.22804447922E+02  0.10990000719E+01 -0.11283649953E+03  0.11512309183E+03  0.00000000000E+00 0.  1.
         12    1    6    6    0    0  0.63988383371E+02  0.13182026090E+02 -0.33353345271E+02  0.73353422954E+02  0.00000000000E+00 0. -1.
         -5    1    3    3    0  503 -0.71250980614E+02  0.52236810197E+02 -0.22004819739E+03  0.23716805382E+03  0.47000000000E+01 0.  1.
         11    1    4    4    0    0 -0.18159648851E+02  0.21744418598E+02 -0.35831329087E+01  0.28555759979E+02  0.00000000000E+00 0. -1.
        -12    1    4    4    0    0 -0.54403881986E+02 -0.49054949200E+02 -0.53877999415E+02  0.90934092820E+02  0.00000000000E+00 0.  1.
</event>
<event>
12    1  0.8563264E-002  0.2147055E+03  0.7818608E-02  0.1137965E+00
         21   -1    0    0  503  502  0.00000000000E+00  0.00000000000E+00  0.33391965810E+03  0.33391965810E+03  0.00000000000E+00 0. -1.
         21   -1    0    0  501  503 -0.00000000000E+00 -0.00000000000E+00 -0.24136334217E+03  0.24136334217E+03  0.00000000000E+00 0.  1.
          6    2    1    2  501    0 -0.10707262838E+03 -0.71553428802E+02 -0.14214949899E+03  0.25718670911E+03  0.17133033111E+03 0.  0.
         24    2    3    3    0    0 -0.46638060624E+02 -0.20705052248E+02 -0.15022881802E+03  0.17765520734E+03  0.79930388738E+02 0.  0.
         -6    2    1    2    0  502  0.10707262838E+03  0.71553428802E+02  0.23470581492E+03  0.31809629116E+03  0.17179636193E+03 0.  0.
        -24    2    5    5    0    0  0.78931961411E+01  0.53375427948E+02  0.49970627776E+02  0.10758220882E+03  0.78521520369E+02 0.  0.
          5    1    3    3  501    0 -0.60434567756E+02 -0.50848376554E+02  0.80793190308E+01  0.79531501772E+02  0.47000000000E+01 0. -1.
        -11    1    4    4    0    0 -0.11273001767E+01  0.26518689021E+02 -0.64259468701E+02  0.69525470087E+02  0.00000000000E+00 0.  1.
         12    1    4    4    0    0 -0.45510760447E+02 -0.47223741269E+02 -0.85969349319E+02  0.10812973725E+03  0.00000000000E+00 0. -1.
         -5    1    5    5    0  502  0.99179432239E+02  0.18178000854E+02  0.18473518714E+03  0.21051408234E+03  0.47000000000E+01 0.  1.
         13    1    6    6    0    0 -0.60814519098E+01 -0.14770079342E+02  0.31953091431E+02  0.35723092715E+02  0.00000000000E+00 0. -1.
        -14    1    6    6    0    0  0.13974648051E+02  0.68145507290E+02  0.18017536344E+02  0.71859116108E+02  0.00000000000E+00 0.  1.
</event>
<event>
12    1  0.8563264E-002  0.2033322E+03  0.7818608E-02  0.1147127E+00
         21   -1    0    0  501  502  0.00000000000E+00  0.00000000000E+00  0.45775371413E+03  0.45775371413E+03  0.00000000000E+00 0. -1.
         21   -1    0    0  502  503 -0.00000000000E+00 -0.00000000000E+00 -0.89998885248E+02  0.89998885248E+02  0.00000000000E+00 0. -1.
         -6    2    1    2    0  503 -0.18411803880E+02 -0.10372458540E+03  0.18940918361E+03  0.27728787727E+03  0.17295937069E+03 0.  0.
        -24    2    3    3    0    0 -0.50209571930E+02 -0.13070726457E+03  0.15397194734E+03  0.22236019078E+03  0.78302642060E+02 0.  0.
          6    2    1    2  501    0  0.18411803880E+02  0.10372458540E+03  0.17834564527E+03  0.27046472210E+03  0.17391438289E+03 0.  0.
         24    2    5    5    0    0  0.12813715016E+01  0.62500140150E+02  0.19695903991E+03  0.22186991724E+03  0.80780488609E+02 0.  0.
          5    1    5    5  501    0  0.17130432378E+02  0.41224445245E+02 -0.18613394648E+02  0.48594804862E+02  0.47000000000E+01 0. -1.
        -13    1    6    6    0    0 -0.27206671048E+02 -0.54161721327E+01  0.42523447933E+02  0.50771857305E+02  0.00000000000E+00 0.  1.
         14    1    6    6    0    0  0.28488042550E+02  0.67916312283E+02  0.15443559198E+03  0.17109805993E+03  0.00000000000E+00 0. -1.
         -5    1    3    3    0  503  0.31797768050E+02  0.26982679175E+02  0.35437236274E+02  0.54927686490E+02  0.47000000000E+01 0.  1.
         13    1    4    4    0    0 -0.34242663420E+02 -0.61737303857E+01  0.30579254509E+02  0.46322410897E+02  0.00000000000E+00 0. -1.
        -14    1    4    4    0    0 -0.15966908509E+02 -0.12453353418E+03  0.12339269283E+03  0.17603777989E+03  0.00000000000E+00 0.  1.
</event>
<event>
12    1  0.8563264E-002  0.2455926E+03  0.7818608E-02  0.1116491E+00
         21   -1    0    0  501  502  0.00000000000E+00  0.00000000000E+00  0.48931413266E+02  0.48931413266E+02  0.00000000000E+00 0.  1.
         21   -1    0    0  502  503 -0.00000000000E+00 -0.00000000000E+00 -0.15867820380E+04  0.15867820380E+04  0.00000000000E+00 0. -1.
         -6    2    1    2    0  503 -0.15079944820E+03  0.83900044069E+02 -0.11641790300E+04  0.11898019003E+04  0.17474569237E+03 0.  0.
        -24    2    3    3    0    0 -0.13528200695E+03  0.65659561349E+02 -0.11477740160E+04  0.11603957670E+04  0.80751128277E+02 0.  0.
          6    2    1    2  501    0  0.15079944820E+03 -0.83900044069E+02 -0.37367159468E+03  0.44591155095E+03  0.17154287986E+03 0.  0.
         24    2    5    5    0    0  0.15440423470E+03 -0.91002422143E+02 -0.38272834876E+03  0.43296732233E+03  0.94114848593E+02 0.  0.
          5    1    5    5  501    0 -0.36047865080E+01  0.71023780743E+01  0.90567540859E+01  0.12944228623E+02  0.47000000000E+01 0. -1.
        -11    1    6    6    0    0  0.15648771394E+03 -0.84370370312E+02 -0.29123648366E+03  0.34121174279E+03  0.00000000000E+00 0.  1.
         12    1    6    6    0    0 -0.20834792310E+01 -0.66320518309E+01 -0.91491865102E+02  0.91755579542E+02  0.00000000000E+00 0. -1.
         -5    1    3    3    0  503 -0.15517441245E+02  0.18240482720E+02 -0.16405013997E+02  0.29406133321E+02  0.47000000000E+01 0.  1.
         13    1    4    4    0    0 -0.86160518530E+02  0.63989480210E+02 -0.53529396017E+03  0.54594680357E+03  0.00000000000E+00 0. -1.
        -14    1    4    4    0    0 -0.49121488421E+02  0.16700811388E+01 -0.61248005585E+03  0.61444896339E+03  0.00000000000E+00 0.  1.
</event>
<event>
12    1  0.8563264E-002  0.2035652E+03  0.7818608E-02  0.1146803E+00
         21   -1    0    0  503  502  0.00000000000E+00  0.00000000000E+00  0.75502971529E+03  0.75502971529E+03  0.00000000000E+00 0.  1.
         21   -1    0    0  501  503 -0.00000000000E+00 -0.00000000000E+00 -0.10693287312E+03  0.10693287312E+03  0.00000000000E+00 0. -1.
          6    2    1    2  501    0 -0.53333885923E+02  0.95752723360E+02  0.23296995182E+02  0.20489394445E+03  0.17153918232E+03 0.  0.
         24    2    3    3    0    0  0.24846719766E+02  0.76164219520E+01 -0.92580956435E+01  0.82574123204E+02  0.77829326872E+02 0.  0.
         -6    2    1    2    0  502  0.53333885923E+02 -0.95752723360E+02  0.62479984699E+03  0.65706864396E+03  0.17132211376E+03 0.  0.
        -24    2    5    5    0    0  0.71333296590E+02 -0.36248632584E+01  0.38471163620E+03  0.39923931989E+03  0.79293207043E+02 0.  0.
          5    1    3    3  501    0 -0.78180605689E+02  0.88136301408E+02  0.32555090826E+02  0.12231982125E+03  0.47000000000E+01 0. -1.
        -11    1    4    4    0    0  0.26447310781E+02 -0.56004480590E+01  0.30435073391E+02  0.40707726027E+02  0.00000000000E+00 0.  1.
         12    1    4    4    0    0 -0.16005910153E+01  0.13216870011E+02 -0.39693169035E+02  0.41866397176E+02  0.00000000000E+00 0. -1.
         -5    1    5    5    0  502 -0.17999410666E+02 -0.92127860101E+02  0.24008821079E+03  0.25782932407E+03  0.47000000000E+01 0.  1.
         13    1    6    6    0    0 -0.12925698919E+02 -0.15001961736E+02  0.47253733286E+02  0.51235220874E+02  0.00000000000E+00 0. -1.
        -14    1    6    6    0    0  0.84258995508E+02  0.11377098478E+02  0.33745790291E+03  0.34800409902E+03  0.00000000000E+00 0.  1.
</event>
<event>
12    1  0.8563264E-002  0.2060676E+03  0.7818608E-02  0.1145174E+00
         21   -1    0    0  503  502  0.00000000000E+00  0.00000000000E+00  0.25083029076E+04  0.25083029076E+04  0.00000000000E+00 0.  1.
         21   -1    0    0  501  503 -0.00000000000E+00 -0.00000000000E+00 -0.18377003684E+02  0.18377003684E+02  0.00000000000E+00 0.  1.
          6    2    1    2  501    0 -0.36931750321E+02  0.10006281092E+03  0.87481757448E+03  0.89876006561E+03  0.17631604184E+03 0.  0.
         24    2    3    3    0    0  0.26629299746E+02  0.83918045813E+02  0.34343933688E+03  0.36332978825E+03  0.79414097563E+02 0.  0.
         -6    2    1    2    0  502  0.36931750321E+02 -0.10006281092E+03  0.16151083294E+04  0.16279198457E+04  0.17369970585E+03 0.  0.
        -24    2    5    5    0    0 -0.37683487352E+02 -0.89416640269E+02  0.10926905129E+04  0.11000721028E+04  0.82284224237E+02 0.  0.
          5    1    3    3  501    0 -0.63561050067E+02  0.16144765106E+02  0.53137823759E+03  0.53543027736E+03  0.47000000000E+01 0. -1.
        -11    1    4    4    0    0  0.13910171645E+02  0.82080562479E+02  0.33997538178E+03  0.35001995919E+03  0.00000000000E+00 0.  1.
         12    1    4    4    0    0  0.12719128101E+02  0.18374833341E+01  0.34639551001E+01  0.13309829059E+02  0.00000000000E+00 0. -1.
         -5    1    5    5    0  502  0.74615237673E+02 -0.10646170650E+02  0.52241781656E+03  0.52784774291E+03  0.47000000000E+01 0.  1.
         13    1    6    6    0    0 -0.10377699187E+02  0.15422082714E+02  0.18858126967E+03  0.18949520455E+03  0.00000000000E+00 0. -1.
        -14    1    6    6    0    0 -0.27305788165E+02 -0.10483872298E+03  0.90410924322E+03  0.91057689822E+03  0.00000000000E+00 0.  1.
</event>
<event>
12    1  0.8563264E-002  0.2112788E+03  0.7818608E-02  0.1140679E+00
         21   -1    0    0  501  502  0.00000000000E+00  0.00000000000E+00  0.95285225142E+03  0.95285225142E+03  0.00000000000E+00 0.  1.
         21   -1    0    0  502  503 -0.00000000000E+00 -0.00000000000E+00 -0.49528769559E+02  0.49528769559E+02  0.00000000000E+00 0.  1.
         -6    2    1    2    0  503  0.12209483496E+03  0.15779970073E+02  0.33272500390E+03  0.39413787009E+03  0.17170491035E+03 0.  0.
        -24    2    3    3    0    0  0.15223284397E+03  0.31059868781E+02  0.30176286532E+03  0.34806706678E+03  0.77138199777E+02 0.  0.
          6    2    1    2  501    0 -0.12209483496E+03 -0.15779970073E+02  0.57059847796E+03  0.60824315089E+03  0.17094136823E+03 0.  0.
         24    2    5    5    0    0 -0.88828413183E+02 -0.75607539098E+02  0.41697123156E+03  0.43998913557E+03  0.78220486556E+02 0.  0.
          5    1    5    5  501    0 -0.33266421774E+02  0.59827569025E+02  0.15362724640E+03  0.16825401532E+03  0.47000000000E+01 0. -1.
        -11    1    6    6    0    0 -0.51201229188E+02 -0.21234380575E+02  0.30463679389E+03  0.30963856507E+03  0.00000000000E+00 0.  1.
         12    1    6    6    0    0 -0.37627183995E+02 -0.54373158523E+02  0.11233443766E+03  0.13035057050E+03  0.00000000000E+00 0. -1.
         -5    1    3    3    0  503 -0.30138009009E+02 -0.15279898708E+02  0.30962138584E+02  0.46070803305E+02  0.47000000000E+01 0.  1.
         11    1    4    4    0    0  0.41586783531E+02 -0.22281847735E+02  0.55300594722E+02  0.72691795133E+02  0.00000000000E+00 0. -1.
        -12    1    4    4    0    0  0.11064606044E+03  0.53341716516E+02  0.24646227059E+03  0.27537527165E+03  0.00000000000E+00 0.  1.
</event>
<event>
12    1  0.8563264E-002  0.2297107E+03  0.7818608E-02  0.1127057E+00
         21   -1    0    0  503  502  0.00000000000E+00  0.00000000000E+00  0.20318346997E+04  0.20318346997E+04  0.00000000000E+00 0. -1.
         21   -1    0    0  501  503 -0.00000000000E+00 -0.00000000000E+00 -0.28567479614E+02  0.28567479614E+02  0.00000000000E+00 0. -1.
          6    2    1    2  501    0  0.11192351813E+03 -0.10049488001E+03  0.68533876167E+03  0.72281134326E+03  0.17361141920E+03 0.  0.
         24    2    3    3    0    0  0.11574035029E+03 -0.20970930092E+02  0.52355946544E+03  0.54244156334E+03  0.79326711737E+02 0.  0.
         -6    2    1    2    0  502 -0.11192351813E+03  0.10049488001E+03  0.13179284584E+04  0.13375908361E+04  0.17201083797E+03 0.  0.
        -24    2    5    5    0    0 -0.58056505979E+02 -0.10073632819E+02  0.74306844478E+03  0.74970209122E+03  0.80190248699E+02 0.  0.
          5    1    3    3  501    0 -0.38168321637E+01 -0.79523949918E+02  0.16177929623E+03  0.18036977992E+03  0.47000000000E+01 0. -1.
        -13    1    4    4    0    0  0.27938990114E+01 -0.28213735265E+02  0.12077574666E+03  0.12405886389E+03  0.00000000000E+00 0.  1.
         14    1    4    4    0    0  0.11294645128E+03  0.72428051738E+01  0.40278371878E+03  0.41838269945E+03  0.00000000000E+00 0. -1.
         -5    1    5    5    0  502 -0.53867012152E+02  0.11056851283E+03  0.57486001366E+03  0.58788874486E+03  0.47000000000E+01 0.  1.
         11    1    6    6    0    0 -0.56336994278E+02  0.26943684351E+02  0.47017528167E+03  0.47430434801E+03  0.00000000000E+00 0. -1.
        -12    1    6    6    0    0 -0.17195117007E+01 -0.37017317170E+02  0.27289316311E+03  0.27539774321E+03  0.00000000000E+00 0.  1.
</event>
<event>
12    1  0.8563264E-002  0.2248414E+03  0.7818608E-02  0.1130376E+00
         21   -1    0    0  501  502  0.00000000000E+00  0.00000000000E+00  0.31680621954E+04  0.31680621954E+04  0.00000000000E+00 0. -1.
         21   -1    0    0  502  503 -0.00000000000E+00 -0.00000000000E+00 -0.16353538304E+02  0.16353538304E+02  0.00000000000E+00 0.  1.
         -6    2    1    2    0  503 -0.14101507972E+03 -0.35196767013E+02  0.18290308925E+04  0.18427637151E+04  0.17117254070E+03 0.  0.
        -24    2    3    3    0    0 -0.14878051922E+03  0.15904326612E+02  0.15165446496E+04  0.15259966621E+04  0.79809448589E+02 0.  0.
          6    2    1    2  501    0  0.14101507972E+03  0.35196767013E+02  0.13226777646E+04  0.13416520187E+04  0.17155059041E+03 0.  0.
         24    2    5    5    0    0  0.13626195872E+03  0.82071428696E+02  0.10466254964E+04  0.10615685117E+04  0.78738393414E+02 0.  0.
          5    1    5    5  501    0  0.47531210005E+01 -0.46874661683E+02  0.27605226823E+03  0.28008350695E+03  0.47000000000E+01 0. -1.
        -13    1    6    6    0    0  0.11865458780E+02  0.19091096758E+02  0.45176254196E+02  0.50459419643E+02  0.00000000000E+00 0.  1.
         14    1    6    6    0    0  0.12439649994E+03  0.62980331938E+02  0.10014492422E+04  0.10111090921E+04  0.00000000000E+00 0. -1.
         -5    1    3    3    0  503  0.77654394969E+01 -0.51101093624E+02  0.31248624290E+03  0.31676705293E+03  0.47000000000E+01 0.  1.
         13    1    4    4    0    0 -0.12802352571E+03  0.19442189177E+02  0.91867250196E+03  0.92775384004E+03  0.00000000000E+00 0. -1.
        -14    1    4    4    0    0 -0.20756993510E+02 -0.35378625650E+01  0.59787214766E+03  0.59824282210E+03  0.00000000000E+00 0.  1.
</event>
<event>
12    1  0.8563264E-002  0.2894057E+03  0.7818608E-02  0.1090693E+00
         21   -1    0    0  503  502  0.00000000000E+00  0.00000000000E+00  0.26001419597E+03  0.26001419597E+03  0.00000000000E+00 0. -1.
         21   -1    0    0  501  503 -0.00000000000E+00 -0.00000000000E+00 -0.34439358212E+03  0.34439358212E+03  0.00000000000E+00 0.  1.
          6    2    1    2  501    0  0.12765683508E+03  0.19426214979E+03 -0.11951772494E+03  0.31287669567E+03  0.17196886269E+03 0.  0.
         24    2    3    3    0    0  0.99493896705E+02  0.16007124038E+03 -0.15368020340E+03  0.25673994906E+03  0.82316213769E+02 0.  0.
         -6    2    1    2    0  502 -0.12765683508E+03 -0.19426214979E+03  0.35138338784E+02  0.29153108242E+03  0.17239959043E+03 0.  0.
        -24    2    5    5    0    0 -0.12450354697E+03 -0.68423212985E+02  0.31284886617E+02  0.16550600422E+03  0.78934301906E+02 0.  0.
          5    1    3    3  501    0  0.28162938378E+02  0.34190909411E+02  0.34162478466E+02  0.56136746605E+02  0.47000000000E+01 0. -1.
        -11    1    4    4    0    0  0.45983610412E+02  0.14169289144E+03 -0.11522667776E+03  0.18833097244E+03  0.00000000000E+00 0.  1.
         12    1    4    4    0    0  0.53510286293E+02  0.18378348940E+02 -0.38453525640E+02  0.68408976626E+02  0.00000000000E+00 0. -1.
         -5    1    5    5    0  502 -0.31532881106E+01 -0.12583893681E+03  0.38534521665E+01  0.12602507820E+03  0.47000000000E+01 0.  1.
         13    1    6    6    0    0 -0.13167777293E+02  0.17226541685E+02  0.42415216320E+00  0.21686954657E+02  0.00000000000E+00 0. -1.
        -14    1    6    6    0    0 -0.11133576968E+03 -0.85649754670E+02  0.30860734454E+02  0.14381904956E+03  0.00000000000E+00 0.  1.
</event>
<event>
12    1  0.8563264E-002  0.1744350E+03  0.7818608E-02  0.1173373E+00
         21   -1    0    0  501  502  0.00000000000E+00  0.00000000000E+00  0.77238335733E+03  0.77238335733E+03  0.00000000000E+00 0. -1.
         21   -1    0    0  502  503 -0.00000000000E+00 -0.00000000000E+00 -0.55583891654E+02  0.55583891654E+02  0.00000000000E+00 0. -1.
         -6    2    1    2    0  503 -0.77351568788E+01 -0.30572842832E+02  0.58248139019E+03  0.60803957489E+03  0.17156055297E+03 0.  0.
        -24    2    3    3    0    0 -0.67470859652E+02 -0.42685200855E+02  0.35489186514E+03  0.37238273684E+03  0.79663815386E+02 0.  0.
          6    2    1    2  501    0  0.77351568788E+01  0.30572842832E+02  0.13431807549E+03  0.21992767410E+03  0.17126676578E+03 0.  0.
         24    2    5    5    0    0 -0.93338854344E+01  0.44328342110E+02  0.64312179903E+01  0.90090451833E+02  0.77606736918E+02 0.  0.
          5    1    5    5  501    0  0.17069042313E+02 -0.13755499278E+02  0.12788685750E+03  0.12983722227E+03  0.47000000000E+01 0. -1.
        -13    1    6    6    0    0 -0.38759606623E+02  0.53422332576E+01 -0.62609836973E+01  0.39623812015E+02  0.00000000000E+00 0.  1.
         14    1    6    6    0    0  0.29425721188E+02  0.38986108852E+02  0.12692201688E+02  0.50466639818E+02  0.00000000000E+00 0. -1.
         -5    1    3    3    0  503  0.59735702773E+02  0.12112358024E+02  0.22758952506E+03  0.23565683805E+03  0.47000000000E+01 0.  1.
         11    1    4    4    0    0 -0.81802432804E+00  0.11061229252E+02  0.14879040800E+03  0.14920323545E+03  0.00000000000E+00 0. -1.
        -12    1    4    4    0    0 -0.66652835324E+02 -0.53746430108E+02  0.20610145714E+03  0.22317950139E+03  0.00000000000E+00 0.  1.
</event>
<event>
12    1  0.8563264E-002  0.2093032E+03  0.7818608E-02  0.1142269E+00
         21   -1    0    0  501  502  0.00000000000E+00  0.00000000000E+00  0.38081463465E+02  0.38081463465E+02  0.00000000000E+00 0. -1.
         21   -1    0    0  502  503 -0.00000000000E+00 -0.00000000000E+00 -0.13920521614E+04  0.13920521614E+04  0.00000000000E+00 0. -1.
         -6    2    1    2    0  503  0.54341416179E+01 -0.11999028726E+03 -0.97647022098E+03  0.99849207326E+03  0.17048498163E+03 0.  0.
        -24    2    3    3    0    0  0.61590127590E+02 -0.64572266610E+02 -0.43823727209E+03  0.45448706497E+03  0.80892917737E+02 0.  0.
          6    2    1    2  501    0 -0.54341416179E+01  0.11999028726E+03 -0.37750047700E+03  0.43164155166E+03  0.17140775960E+03 0.  0.
         24    2    5    5    0    0 -0.42436090054E+02  0.23169432012E+02 -0.13477039832E+03  0.16766541013E+03  0.87240960404E+02 0.  0.
          5    1    5    5  501    0  0.37001948436E+02  0.96820855247E+02 -0.24273007868E+03  0.26397614152E+03  0.47000000000E+01 0. -1.
        -13    1    6    6    0    0  0.26238307390E+02  0.78740504123E+01 -0.53982112662E+02  0.60535261889E+02  0.00000000000E+00 0.  1.
         14    1    6    6    0    0 -0.68674397445E+02  0.15295381600E+02 -0.80788285662E+02  0.10713014824E+03  0.00000000000E+00 0. -1.
         -5    1    3    3    0  503 -0.56155985972E+02 -0.55418020649E+02 -0.53823294889E+03  0.54400500829E+03  0.47000000000E+01 0.  1.
         13    1    4    4    0    0 -0.11748769803E+02 -0.41785911405E+02 -0.14471874293E+03  0.15108808868E+03  0.00000000000E+00 0. -1.
        -14    1    4    4    0    0  0.73338897393E+02 -0.22786355204E+02 -0.29351852916E+03  0.30339897629E+03  0.00000000000E+00 0.  1.
</event>
<event>
12    1  0.8563264E-002  0.1806164E+03  0.7818608E-02  0.1170467E+00
         21   -1    0    0  501  502  0.00000000000E+00  0.00000000000E+00  0.48583110060E+03  0.48583110060E+03  0.00000000000E+00 0. -1.
         21   -1    0    0  502  503 -0.00000000000E+00 -0.00000000000E+00 -0.69740498467E+02  0.69740498467E+02  0.00000000000E+00 0. -1.
         -6    2    1    2    0  503  0.26886730189E+02  0.44313707676E+02  0.11103746254E+03  0.20105825115E+03  0.15940044329E+03 0.  0.
        -24    2    3    3    0    0  0.48366062987E+01  0.70963585706E+02  0.25653740273E+02  0.10881458476E+03  0.78251365540E+02 0.  0.
          6    2    1    2  501    0 -0.26886730189E+02 -0.44313707676E+02  0.30505313960E+03  0.35451334792E+03  0.17301934841E+03 0.  0.
         24    2    5    5    0    0  0.22829828975E+01 -0.63026668413E+02  0.82509120520E+02  0.12923801085E+03  0.76922919462E+02 0.  0.
          5    1    5    5  501    0 -0.29169713087E+02  0.18712960737E+02  0.22254401908E+03  0.22527533706E+03  0.47000000000E+01 0. -1.
        -11    1    6    6    0    0  0.34539520320E+02 -0.48106194973E+02  0.31526292085E+02  0.67090174775E+02  0.00000000000E+00 0.  1.
         12    1    6    6    0    0 -0.32256537423E+02 -0.14920473440E+02  0.50982828435E+02  0.62147836079E+02  0.00000000000E+00 0. -1.
         -5    1    3    3    0  503  0.22050123891E+02 -0.26649878030E+02  0.85383722264E+02  0.92243666397E+02  0.47000000000E+01 0.  1.
         13    1    4    4    0    0  0.39159032893E+02  0.20197010858E+02  0.60450020724E+01  0.44473488224E+02  0.00000000000E+00 0. -1.
        -14    1    4    4    0    0 -0.34322426595E+02  0.50766574847E+02  0.19608738201E+02  0.64341096531E+02  0.00000000000E+00 0.  1.
</event>
<event>
12    1  0.8563264E-002  0.1985136E+03  0.7818608E-02  0.1151338E+00
         21   -1    0    0  503  502  0.00000000000E+00  0.00000000000E+00  0.32406010751E+03  0.32406010751E+03  0.00000000000E+00 0.  1.
         21   -1    0    0  501  503 -0.00000000000E+00 -0.00000000000E+00 -0.21485979928E+03  0.21485979928E+03  0.00000000000E+00 0.  1.
          6    2    1    2  501    0  0.10876734086E+02 -0.96590772865E+02 -0.12371656463E+03  0.23390905323E+03  0.17308834759E+03 0.  0.
         24    2    3    3    0    0  0.62856193529E+02 -0.43671351565E+02 -0.11418227805E+03  0.15897360117E+03  0.79855652508E+02 0.  0.
         -6    2    1    2    0  502 -0.10876734086E+02  0.96590772865E+02  0.23291687286E+03  0.30501085355E+03  0.17126958392E+03 0.  0.
        -24    2    5    5    0    0  0.14780825503E+02  0.23344641692E+02  0.35795685197E+02  0.93109558791E+02  0.81391730301E+02 0.  0.
          5    1    3    3  501    0 -0.51979459444E+02 -0.52919421301E+02 -0.95342865859E+01  0.74935452061E+02  0.47000000000E+01 0. -1.
        -13    1    4    4    0    0 -0.82428143607E+01 -0.35207257773E+02 -0.56256880571E+02  0.66875493270E+02  0.00000000000E+00 0.  1.
         14    1    4    4    0    0  0.71099007890E+02 -0.84640937916E+01 -0.57925397476E+02  0.92098107904E+02  0.00000000000E+00 0. -1.
         -5    1    5    5    0  502 -0.25657559588E+02  0.73246131174E+02  0.19712118766E+03  0.21190129476E+03  0.47000000000E+01 0.  1.
         13    1    6    6    0    0 -0.16002461937E+02  0.45102790237E+02  0.24457302022E+02  0.53744768093E+02  0.00000000000E+00 0. -1.
        -14    1    6    6    0    0  0.30783287440E+02 -0.21758148545E+02  0.11338383175E+02  0.39364790698E+02  0.00000000000E+00 0.  1.
</event>
<event>
12    1  0.8563264E-002  0.1722111E+03  0.7818608E-02  0.1175569E+00
         21   -1    0    0  503  502  0.00000000000E+00  0.00000000000E+00  0.42226037109E+03  0.42226037109E+03  0.00000000000E+00 0.  1.
         21   -1    0    0  501  503 -0.00000000000E+00 -0.00000000000E+00 -0.43623339540E+03  0.43623339540E+03  0.00000000000E+00 0.  1.
          6    2    1    2  501    0  0.65731982593E+01 -0.67845103733E+01 -0.40017002395E+03  0.43564062058E+03  0.17192284813E+03 0.  0.
         24    2    3    3    0    0 -0.74300501447E+01  0.55652529712E+02 -0.17069686522E+03  0.19736662804E+03  0.81631834229E+02 0.  0.
         -6    2    1    2    0  502 -0.65731982593E+01  0.67845103733E+01  0.38619699964E+03  0.42285314592E+03  0.17195180711E+03 0.  0.
        -24    2    5    5    0    0 -0.64669116616E+01  0.69930342218E+02  0.28193426509E+03  0.30086865842E+03  0.78121354795E+02 0.  0.
          5    1    3    3  501    0  0.14003248404E+02 -0.62437040085E+02 -0.22947315873E+03  0.23827399254E+03  0.47000000000E+01 0. -1.
        -13    1    4    4    0    0 -0.99699888590E+01 -0.20538146139E+02 -0.37983924030E+02  0.44316978794E+02  0.00000000000E+00 0.  1.
         14    1    4    4    0    0  0.25399387143E+01  0.76190675851E+02 -0.13271294119E+03  0.15304964924E+03  0.00000000000E+00 0. -1.
         -5    1    5    5    0  502 -0.10628659770E+00 -0.63145831844E+02  0.10426273455E+03  0.12198448750E+03  0.47000000000E+01 0.  1.
         11    1    6    6    0    0 -0.37292986762E+02  0.19634299008E+02  0.79064562180E+02  0.89596191615E+02  0.00000000000E+00 0. -1.
        -12    1    6    6    0    0  0.30826075101E+02  0.50296043210E+02  0.20286970291E+03  0.21127246680E+03  0.00000000000E+00 0.  1.
</event>
<event>
12    1  0.8563264E-002  0.2194186E+03  0.7818608E-02  0.1134428E+00
         21   -1    0    0  501  502  0.00000000000E+00  0.00000000000E+00  0.28613091562E+03  0.28613091562E+03  0.00000000000E+00 0. -1.
         21   -1    0    0  502  503 -0.00000000000E+00 -0.00000000000E+00 -0.16846784124E+03  0.16846784124E+03  0.00000000000E+00 0. -1.
         -6    2    1    2    0  503  0.46582446839E+02  0.12733670863E+03  0.44670273377E+02  0.22391949113E+03  0.17251070537E+03 0.  0.
        -24    2    3    3    0    0  0.80634334653E+02  0.12134217729E+03  0.70470338567E+02  0.18052365223E+03  0.79980625673E+02 0.  0.
          6    2    1    2  501    0 -0.46582446839E+02 -0.12733670863E+03  0.72992801003E+02  0.23067926574E+03  0.17175684244E+03 0.  0.
         24    2    5    5    0    0 -0.61482706436E+02 -0.10165518115E+03  0.11207540974E+03  0.18137309071E+03  0.78875861449E+02 0.  0.
          5    1    5    5  501    0  0.14900259597E+02 -0.25681527474E+02 -0.39082608741E+02  0.49306175023E+02  0.47000000000E+01 0. -1.
        -11    1    6    6    0    0 -0.62404297158E+02 -0.35601354315E+02  0.35173482380E+02  0.79993290940E+02  0.00000000000E+00 0.  1.
         12    1    6    6    0    0  0.92159072172E+00 -0.66053826838E+02  0.76901927364E+02  0.10137979977E+03  0.00000000000E+00 0. -1.
         -5    1    3    3    0  503 -0.34051887814E+02  0.59945313360E+01 -0.25800065190E+02  0.43395838896E+02  0.47000000000E+01 0.  1.
         13    1    4    4    0    0  0.86898173210E+02  0.11958426815E+03  0.45422067227E+02  0.15464428178E+03  0.00000000000E+00 0. -1.
        -14    1    4    4    0    0 -0.62638385571E+01  0.17579091448E+01  0.25048271340E+02  0.25879370455E+02  0.00000000000E+00 0.  1.
</event>
<event>
12    1  0.8563264E-002  0.2054821E+03  0.7818608E-02  0.1145678E+00
         21   -1    0    0  503  502  0.00000000000E+00  0.00000000000E+00  0.71525384185E+02  0.71525384185E+02  0.00000000000E+00 0.  1.
         21   -1    0    0  501  503 -0.00000000000E+00 -0.00000000000E+00 -0.58368272100E+03  0.58368272100E+03  0.00000000000E+00 0.  1.
          6    2    1    2  501    0 -0.10957535769E+03  0.45328238498E+01 -0.24989564574E+03  0.32203531509E+03  0.17097252673E+03 0.  0.
         24    2    3    3    0    0 -0.12322760851E+03  0.78147553093E+01 -0.26297472021E+03  0.30227912074E+03  0.83491613140E+02 0.  0.
         -6    2    1    2    0  502  0.10957535769E+03 -0.45328238498E+01 -0.26226169107E+03  0.33317279010E+03  0.17376883482E+03 0.  0.
        -24    2    5    5    0    0  0.62843761123E+02 -0.31746029726E+02 -0.25853559555E+03  0.27876346664E+03  0.76884767338E+02 0.  0.
          5    1    3    3  501    0  0.13652250815E+02 -0.32819314595E+01  0.13079074465E+02  0.19756194352E+02  0.47000000000E+01 0. -1.
        -11    1    4    4    0    0 -0.73386006529E+02 -0.23802498437E+02 -0.85091974171E+02  0.11485951834E+03  0.00000000000E+00 0.  1.
         12    1    4    4    0    0 -0.49841601979E+02  0.31617253747E+02 -0.17788274604E+03  0.18741960239E+03  0.00000000000E+00 0. -1.
         -5    1    5    5    0  502  0.46731596570E+02  0.27213205876E+02 -0.37260955224E+01  0.54409323464E+02  0.47000000000E+01 0.  1.
         13    1    6    6    0    0  0.35742537345E+02 -0.54590876896E+02 -0.13038119287E+03  0.14579762780E+03  0.00000000000E+00 0. -1.
        -14    1    6    6    0    0  0.27101223778E+02  0.22844847171E+02 -0.12815440268E+03  0.13296583884E+03  0.00000000000E+00 0.  1.
</event>
<event>
12    1  0.8563264E-002  0.1901376E+03  0.7818608E-02  0.1158780E+00
         21   -1    0    0  501  502  0.00000000000E+00  0.00000000000E+00  0.18140767051E+04  0.18140767051E+04  0.00000000000E+00 0. -1.
         21   -1    0    0  502  503 -0.00000000000E+00 -0.00000000000E+00 -0.33253578005E+02  0.33253578005E+02  0.00000000000E+00 0. -1.
         -6    2    1    2    0  503  0.71559729764E+02 -0.40297874906E+02  0.29852381765E+03  0.35288605168E+03  0.16931444747E+03 0.  0.
        -24    2    3    3    0    0 -0.21389811223E+02 -0.47371476307E+02  0.16173599496E+03  0.18728819106E+03  0.78846392769E+02 0.  0.
          6    2    1    2  501    0 -0.71559729764E+02  0.40297874906E+02  0.14822993094E+04  0.14944442314E+04  0.17148645546E+03 0.  0.
         24    2    5    5    0    0 -0.97897455180E+01  0.62036028453E+02  0.51673186215E+03  0.52664742240E+03  0.80008638408E+02 0.  0.
          5    1    5    5  501    0 -0.61769984246E+02 -0.21738153547E+02  0.96556744727E+03  0.96779680900E+03  0.47000000000E+01 0. -1.
        -13    1    6    6    0    0  0.33465061550E+02  0.26206744451E+02  0.28803602759E+03  0.29115538290E+03  0.00000000000E+00 0.  1.
         14    1    6    6    0    0 -0.43254807068E+02  0.35829284002E+02  0.22869583456E+03  0.23549203951E+03  0.00000000000E+00 0. -1.
         -5    1    3    3    0  503  0.92949540987E+02  0.70736014019E+01  0.13678782269E+03  0.16559786062E+03  0.47000000000E+01 0.  1.
         13    1    4    4    0    0  0.30031018870E+02 -0.19766268576E+02  0.66333218768E+02  0.75449740754E+02  0.00000000000E+00 0. -1.
        -14    1    4    4    0    0 -0.51420830093E+02 -0.27605207731E+02  0.95402776191E+02  0.11183845030E+03  0.00000000000E+00 0.  1.
</event>
<event>
12    1  0.8563264E-002  0.2169968E+03  0.7818608E-02  0.1136210E+00
         21   -1    0    0  501  502  0.00000000000E+00  0.00000000000E+00  0.22926622897E+03  0.22926622897E+03  0.00000000000E+00 0.  1.
         21   -1    0    0  502  503 -0.00000000000E+00 -0.00000000000E+00 -0.11127945620E+04  0.11127945620E+04  0.00000000000E+00 0.  1.
         -6    2    1    2    0  503 -0.40345055819E+02 -0.12709770798E+03 -0.10478929155E+04  0.10701248350E+04  0.17119009688E+03 0.  0.
        -24    2    3    3    0    0 -0.20279604093E+02 -0.35850663966E+01 -0.57749742571E+03  0.58334767677E+03  0.79794236903E+02 0.  0.
          6    2    1    2  501    0  0.40345055819E+02  0.12709770798E+03  0.16436458248E+03  0.27193595593E+03  0.17073926688E+03 0.  0.
         24    2    5    5    0    0  0.88406835256E+02  0.11530961512E+03  0.13022994167E+03  0.21163539641E+03  0.81961133756E+02 0.  0.
          5    1    5    5  501    0 -0.48061779437E+02  0.11788092858E+02  0.34134640809E+02  0.60300559525E+02  0.47000000000E+01 0. -1.
        -11    1    6    6    0    0 -0.60734451184E+01  0.35678724313E+02  0.64954293439E+01  0.36770214938E+02  0.00000000000E+00 0.  1.
         12    1    6    6    0    0  0.94480280374E+02  0.79630890808E+02  0.12373451233E+03  0.17486518147E+03  0.00000000000E+00 0. -1.
         -5    1    3    3    0  503 -0.20065451726E+02 -0.12351264158E+03 -0.47039548978E+03  0.48677715824E+03  0.47000000000E+01 0.  1.
         13    1    4    4    0    0 -0.39416343419E+02  0.22610948487E+02 -0.23765510704E+03  0.24196043690E+03  0.00000000000E+00 0. -1.
        -14    1    4    4    0    0  0.19136739326E+02 -0.26196014884E+02 -0.33984231867E+03  0.34138723987E+03  0.00000000000E+00 0.  1.
</event>
<event>
12    1  0.8563264E-002  0.2232249E+03  0.7818608E-02  0.1131709E+00
         21   -1    0    0  503  502  0.00000000000E+00  0.00000000000E+00  0.97612295577E+03  0.97612295577E+03  0.00000000000E+00 0.  1.
         21   -1    0    0  501  503 -0.00000000000E+00 -0.00000000000E+00 -0.65783150122E+02  0.65783150122E+02  0.00000000000E+00 0.  1.
          6    2    1    2  501    0  0.13924314772E+03 -0.31713931480E+02  0.70476917863E+03  0.73927597571E+03  0.17156615479E+03 0.  0.
         24    2    3    3    0    0  0.62541669954E+02  0.48271037366E+02  0.29256513691E+03  0.31240951656E+03  0.75919649451E+02 0.  0.
         -6    2    1    2    0  502 -0.13924314772E+03  0.31713931480E+02  0.20557062701E+03  0.30263013018E+03  0.17009199089E+03 0.  0.
        -24    2    5    5    0    0 -0.29978674863E+01 -0.10631090905E+02  0.92420662390E+02  0.12047392853E+03  0.76487785396E+02 0.  0.
          5    1    3    3  501    0  0.76701477768E+02 -0.79984968846E+02  0.41220404172E+03  0.42686645915E+03  0.47000000000E+01 0. -1.
        -11    1    4    4    0    0  0.54910337216E+02  0.18150998482E+02  0.26380716266E+03  0.27007188478E+03  0.00000000000E+00 0.  1.
         12    1    4    4    0    0  0.76313327384E+01  0.30120038884E+02  0.28757974257E+02  0.42337631784E+02  0.00000000000E+00 0. -1.
         -5    1    5    5    0  502 -0.13624528024E+03  0.42345022385E+02  0.11314996462E+03  0.18215620166E+03  0.47000000000E+01 0.  1.
         13    1    6    6    0    0 -0.15299604777E+02 -0.37426999814E+02  0.26731271313E+02  0.48470806548E+02  0.00000000000E+00 0. -1.
        -14    1    6    6    0    0  0.12301737290E+02  0.26795908910E+02  0.65689391077E+02  0.72003121979E+02  0.00000000000E+00 0.  1.
</event>
<event>
12    1  0.8563264E-002  0.2185796E+03  0.7818608E-02  0.1135035E+00
         21   -1    0    0  501  502  0.00000000000E+00  0.00000000000E+00  0.10039790246E+04  0.10039790246E+04  0.00000000000E+00 0. -1.
         21   -1    0    0  502  503 -0.00000000000E+00 -0.00000000000E+00 -0.85938680193E+02  0.85938680193E+02  0.00000000000E+00 0. -1.
         -6    2    1    2    0  503  0.13030752691E+03  0.32449752099E+02  0.94759818921E+02  0.23823619081E+03  0.17246455099E+03 0.  0.
        -24    2    3    3    0    0  0.95806106400E+02  0.17722075538E+02 -0.10445040484E+02  0.12644439810E+03  0.79913734460E+02 0.  0.
          6    2    1    2  501    0 -0.13030752691E+03 -0.32449752099E+02  0.82328052548E+03  0.85168151398E+03  0.17186488774E+03 0.  0.
         24    2    5    5    0    0 -0.16644530593E+02  0.16725559551E+02  0.47332363386E+03  0.48042768706E+03  0.78858832006E+02 0.  0.
          5    1    5    5  501    0 -0.11366299632E+03 -0.49175311650E+02  0.34995689162E+03  0.37125382691E+03  0.47000000000E+01 0. -1.
        -11    1    6    6    0    0  0.34747722915E-01 -0.40933334424E+01 -0.18597251122E+01  0.44961276191E+01  0.00000000000E+00 0.  1.
         12    1    6    6    0    0 -0.16679278316E+02  0.20818892994E+02  0.47518335897E+03  0.47593155944E+03  0.00000000000E+00 0. -1.
         -5    1    3    3    0  503  0.34501420512E+02  0.14727676561E+02  0.10520485940E+03  0.11179179271E+03  0.47000000000E+01 0.  1.
         11    1    4    4    0    0  0.20411073449E+02 -0.51635221931E+00 -0.38808520885E+02  0.43851793945E+02  0.00000000000E+00 0. -1.
        -12    1    4    4    0    0  0.75395032951E+02  0.18238427758E+02  0.28363480401E+02  0.82592604155E+02  0.00000000000E+00 0.  1.
</event>
<event>
12    1  0.8563264E-002  0.3547585E+03  0.7818608E-02  0.1060687E+00
         21   -1    0    0  501  502  0.00000000000E+00  0.00000000000E+00  0.25019163996E+03  0.25019163996E+03  0.00000000000E+00 0.  1.
         21   -1    0    0  502  503 -0.00000000000E+00 -0.00000000000E+00 -0.52860513079E+03  0.52860513079E+03  0.00000000000E+00 0. -1.
         -6    2    1    2    0  503 -0.22712767223E+03 -0.21059225543E+03 -0.22506580971E+03  0.42012880860E+03  0.17296681640E+03 0.  0.
        -24    2    3    3    0    0 -0.18927534241E+03 -0.21210469019E+03 -0.14147064465E+03  0.32823034315E+03  0.83112333720E+02 0.  0.
          6    2    1    2  501    0  0.22712767223E+03  0.21059225543E+03 -0.53347681115E+02  0.35866796215E+03  0.17280235662E+03 0.  0.
         24    2    5    5    0    0  0.11550593952E+03  0.84404848119E+02  0.36511373016E+02  0.16767211773E+03  0.79467340797E+02 0.  0.
          5    1    5    5  501    0  0.11162173271E+03  0.12618740731E+03 -0.89859054131E+02  0.19099584442E+03  0.47000000000E+01 0. -1.
        -11    1    6    6    0    0  0.75730226852E+02  0.79315544662E+02 -0.52326506252E+01  0.10978799350E+03  0.00000000000E+00 0.  1.
         12    1    6    6    0    0  0.39775712673E+02  0.50893034577E+01  0.41744023642E+02  0.57884124232E+02  0.00000000000E+00 0. -1.
         -5    1    3    3    0  503 -0.37852329825E+02  0.15124347651E+01 -0.83595165057E+02  0.91898465455E+02  0.47000000000E+01 0.  1.
         13    1    4    4    0    0 -0.10824768812E+03 -0.14053569371E+03 -0.12914116161E+03  0.21942033363E+03  0.00000000000E+00 0. -1.
        -14    1    4    4    0    0 -0.81027654292E+02 -0.71568996489E+02 -0.12329483040E+02  0.10881000951E+03  0.00000000000E+00 0.  1.
</event>
<event>
12    1  0.8563264E-002  0.2213755E+03  0.7818608E-02  0.1133431E+00
         21   -1    0    0  503  502  0.00000000000E+00  0.00000000000E+00  0.88747363111E+03  0.88747363111E+03  0.00000000000E+00 0. -1.
         21   -1    0    0  501  503 -0.00000000000E+00 -0.00000000000E+00 -0.56332923094E+02  0.56332923094E+02  0.00000000000E+00 0. -1.
          6    2    1    2  501    0 -0.96752125040E+02 -0.10089954186E+03  0.33235723237E+03  0.39933499291E+03  0.17165493121E+03 0.  0.
         24    2    3    3    0    0 -0.29454141897E+01 -0.55680759496E+02  0.81770702242E+02  0.12793098343E+03  0.81060880421E+02 0.  0.
         -6    2    1    2    0  502  0.96752125040E+02  0.10089954186E+03  0.49878347565E+03  0.54447156129E+03  0.16769804480E+03 0.  0.
        -24    2    5    5    0    0  0.34477516450E+02  0.12414230780E+03  0.38542988109E+03  0.41298209235E+03  0.73471107510E+02 0.  0.
          5    1    3    3  501    0 -0.93806710850E+02 -0.45218782363E+02  0.25058653012E+03  0.27140400947E+03  0.47000000000E+01 0. -1.
        -11    1    4    4    0    0  0.86783708594E+00 -0.25413581866E+02 -0.12866593219E+02  0.28498289520E+02  0.00000000000E+00 0.  1.
         12    1    4    4    0    0 -0.38132512756E+01 -0.30267177630E+02  0.94637295461E+02  0.99432693915E+02  0.00000000000E+00 0. -1.
         -5    1    5    5    0  502  0.62274608590E+02 -0.23242765941E+02  0.11335359456E+03  0.13148946894E+03  0.47000000000E+01 0.  1.
         13    1    6    6    0    0  0.47240799263E+02  0.43019660349E+02  0.13342564613E+03  0.14793507811E+03  0.00000000000E+00 0. -1.
        -14    1    6    6    0    0 -0.12763282813E+02  0.81122647451E+02  0.25200423496E+03  0.26504701424E+03  0.00000000000E+00 0.  1.
</event>
<event>
12    1  0.8563264E-002  0.2719763E+03  0.7818608E-02  0.1100164E+00
         21   -1    0    0  501  502  0.00000000000E+00  0.00000000000E+00  0.92921438204E+03  0.92921438204E+03  0.00000000000E+00 0. -1.
         21   -1    0    0  502  503 -0.00000000000E+00 -0.00000000000E+00 -0.18177655715E+03  0.18177655715E+03  0.00000000000E+00 0. -1.
         -6    2    1    2    0  503 -0.20349776604E+03  0.41812234332E+02 -0.42805362047E+02  0.27525448750E+03  0.17542271845E+03 0.  0.
        -24    2    3    3    0    0 -0.17138529681E+03  0.37938311954E+02  0.30113789080E+02  0.19534509785E+03  0.80253544976E+02 0.  0.
          6    2    1    2  501    0  0.20349776604E+03 -0.41812234332E+02  0.79024318694E+03  0.83573645169E+03  0.17553210097E+03 0.  0.
         24    2    5    5    0    0  0.18598120541E+03 -0.82657839891E+02  0.71911912863E+03  0.75173695729E+03  0.80961747378E+02 0.  0.
          5    1    5    5  501    0  0.17516560629E+02  0.40845605559E+02  0.71124058306E+02  0.83999494401E+02  0.47000000000E+01 0. -1.
        -11    1    6    6    0    0  0.90810121400E+02  0.30718604396E+01  0.30861751017E+03  0.32171521888E+03  0.00000000000E+00 0.  1.
         12    1    6    6    0    0  0.95171084007E+02 -0.85729700330E+02  0.41050161846E+03  0.43002173841E+03  0.00000000000E+00 0. -1.
         -5    1    3    3    0  503 -0.32112469222E+02  0.38739223781E+01 -0.72919151127E+02  0.79909389656E+02  0.47000000000E+01 0.  1.
         13    1    4    4    0    0 -0.66216314841E+02  0.30486920188E+02 -0.24116302076E+02  0.76783127571E+02  0.00000000000E+00 0. -1.
        -14    1    4    4    0    0 -0.10516898197E+03  0.74513917658E+01  0.54230091156E+02  0.11856197027E+03  0.00000000000E+00 0.  1.
</event>
<event>
12    1  0.8563264E-002  0.1771797E+03  0.7818608E-02  0.1170808E+00
         21   -1    0    0  501  502  0.00000000000E+00  0.00000000000E+00  0.88483415652E+03  0.88483415652E+03  0.00000000000E+00 0.  1.
         21   -1    0    0  502  503 -0.00000000000E+00 -0.00000000000E+00 -0.35374928734E+02  0.35374928734E+02  0.00000000000E+00 0.  1.
         -6    2    1    2    0  503 -0.43597655894E+02  0.73418885936E+01  0.40199099305E+03  0.43930559387E+03  0.17157501970E+03 0.  0.
        -24    2    3    3    0    0 -0.75099580547E+02 -0.20536150098E+02  0.36918516882E+03  0.38575311119E+03  0.80287567245E+02 0.  0.
          6    2    1    2  501    0  0.43597655894E+02 -0.73418885936E+01  0.44746823474E+03  0.48090349139E+03  0.17054526672E+03 0.  0.
         24    2    5    5    0    0 -0.21767070604E+02  0.17533605797E+02  0.12902598877E+03  0.15483771320E+03  0.80905988371E+02 0.  0.
          5    1    5    5  501    0  0.65364726498E+02 -0.24875494390E+02  0.31844224597E+03  0.32606577819E+03  0.47000000000E+01 0. -1.
        -11    1    6    6    0    0  0.14027936871E+02 -0.24339894428E+02  0.62078062437E+02  0.68138823805E+02  0.00000000000E+00 0.  1.
         12    1    6    6    0    0 -0.35795007474E+02  0.41873500224E+02  0.66947926338E+02  0.86698889393E+02  0.00000000000E+00 0. -1.
         -5    1    3    3    0  503  0.31501924652E+02  0.27878038691E+02  0.32805824228E+02  0.53552482681E+02  0.47000000000E+01 0.  1.
         11    1    4    4    0    0 -0.47166945236E+01 -0.38641950800E+02  0.11709691583E+03  0.12339827902E+03  0.00000000000E+00 0. -1.
        -12    1    4    4    0    0 -0.70382886023E+02  0.18105800703E+02  0.25208825299E+03  0.26235483216E+03  0.00000000000E+00 0.  1.
</event>
<event>
12    1  0.8563264E-002  0.1866062E+03  0.7818608E-02  0.1161879E+00
         21   -1    0    0  501  502  0.00000000000E+00  0.00000000000E+00  0.43252400977E+02  0.43252400977E+02  0.00000000000E+00 0.  1.
         21   -1    0    0  502  503 -0.00000000000E+00 -0.00000000000E+00 -0.79914122583E+03  0.79914122583E+03  0.00000000000E+00 0. -1.
         -6    2    1    2    0  503 -0.60132779437E+02 -0.38568496105E+02 -0.37837215068E+03  0.42127522216E+03  0.17089133490E+03 0.  0.
        -24    2    3    3    0    0 -0.43714718602E+01  0.25884706090E+02 -0.27246901195E+03  0.28525646063E+03  0.80266793155E+02 0.  0.
          6    2    1    2  501    0  0.60132779437E+02  0.38568496105E+02 -0.37751667418E+03  0.42111840465E+03  0.17239022999E+03 0.  0.
         24    2    5    5    0    0  0.28845219069E+02  0.90532965832E+02 -0.22751169882E+03  0.25924561453E+03  0.80115235681E+02 0.  0.
          5    1    5    5  501    0  0.31287560368E+02 -0.51964469726E+02 -0.15000497536E+03  0.16187279012E+03  0.47000000000E+01 0. -1.
        -11    1    6    6    0    0  0.18979294272E+02  0.85396728664E+02 -0.10694411147E+03  0.13816605175E+03  0.00000000000E+00 0.  1.
         12    1    6    6    0    0  0.98659247971E+01  0.51362371676E+01 -0.12056758735E+03  0.12107956278E+03  0.00000000000E+00 0. -1.
         -5    1    3    3    0  503 -0.55761307577E+02 -0.64453202195E+02 -0.10590313872E+03  0.13601876153E+03  0.47000000000E+01 0.  1.
         13    1    4    4    0    0  0.30702078528E+02  0.27149969713E+02 -0.83036510257E+02  0.92600218774E+02  0.00000000000E+00 0. -1.
        -14    1    4    4    0    0 -0.35073550388E+02 -0.12652636233E+01 -0.18943250170E+03  0.19265624186E+03  0.00000000000E+00 0.  1.
</event>
<event>
12    1  0.8563264E-002  0.1847851E+03  0.7818608E-02  0.1163475E+00
         21   -1    0    0  503  502  0.00000000000E+00  0.00000000000E+00  0.55118666723E+02  0.55118666723E+02  0.00000000000E+00 0.  1.
         21   -1    0    0  501  503 -0.00000000000E+00 -0.00000000000E+00 -0.83632860125E+03  0.83632860125E+03  0.00000000000E+00 0.  1.
          6    2    1    2  501    0  0.64452841865E+02 -0.33738829200E+02 -0.61997891140E+03  0.64693074882E+03  0.16986190202E+03 0.  0.
         24    2    3    3    0    0  0.10858240412E+03 -0.32383862490E+02 -0.42620850311E+03  0.44813860780E+03  0.79596926098E+02 0.  0.
         -6    2    1    2    0  502 -0.64452841865E+02  0.33738829200E+02 -0.16123102312E+03  0.24451651916E+03  0.16882063826E+03 0.  0.
        -24    2    5    5    0    0  0.99827448612E+01  0.71299718353E+02 -0.11415761859E+03  0.14865478342E+03  0.62313543616E+02 0.  0.
          5    1    3    3  501    0 -0.44129562250E+02 -0.13549667105E+01 -0.19377040830E+03  0.19879214102E+03  0.47000000000E+01 0. -1.
        -11    1    4    4    0    0  0.49625626963E+00 -0.50136659833E+01 -0.15261323047E+03  0.15269636941E+03  0.00000000000E+00 0.  1.
         12    1    4    4    0    0  0.10808614785E+03 -0.27370196506E+02 -0.27359527263E+03  0.29544223838E+03  0.00000000000E+00 0. -1.
         -5    1    5    5    0  502 -0.74435586726E+02 -0.37560889153E+02 -0.47073404532E+02  0.95861735742E+02  0.47000000000E+01 0.  1.
         13    1    6    6    0    0 -0.14951941993E+02  0.59442310167E+02 -0.10082408240E+03  0.11799340829E+03  0.00000000000E+00 0. -1.
        -14    1    6    6    0    0  0.24934686854E+02  0.11857408187E+02 -0.13333536189E+02  0.30661375128E+02  0.00000000000E+00 0.  1.
</event>
<event>
12    1  0.8563264E-002  0.1891465E+03  0.7818608E-02  0.1160875E+00
         21   -1    0    0  503  502  0.00000000000E+00  0.00000000000E+00  0.85552275375E+03  0.85552275375E+03  0.00000000000E+00 0. -1.
         21   -1    0    0  501  503 -0.00000000000E+00 -0.00000000000E+00 -0.61962288289E+02  0.61962288289E+02  0.00000000000E+00 0. -1.
          6    2    1    2  501    0  0.63817960216E+02  0.42998003228E+02  0.12042248735E+03  0.21827753620E+03  0.16499074829E+03 0.  0.
         24    2    3    3    0    0  0.34184933225E+02 -0.36893923551E+02  0.50102324921E+02  0.10769792010E+03  0.80986590100E+02 0.  0.
         -6    2    1    2    0  502 -0.63817960216E+02 -0.42998003228E+02  0.67313797811E+03  0.69920750584E+03  0.17278552695E+03 0.  0.
        -24    2    5    5    0    0 -0.48949359998E+02  0.41694843806E+02  0.38080870648E+03  0.39445769589E+03  0.80293854529E+02 0.  0.
          5    1    3    3  501    0  0.29633026991E+02  0.79891926780E+02  0.70320162433E+02  0.11057961610E+03  0.47000000000E+01 0. -1.
        -11    1    4    4    0    0 -0.32164593805E+01  0.17179933144E+02 -0.86698270937E+01  0.19510551391E+02  0.00000000000E+00 0.  1.
         12    1    4    4    0    0  0.37401392605E+02 -0.54073856695E+02  0.58772152015E+02  0.88187368705E+02  0.00000000000E+00 0. -1.
         -5    1    5    5    0  502 -0.14868600219E+02 -0.84692847034E+02  0.29232927163E+03  0.30474980995E+03  0.47000000000E+01 0.  1.
         13    1    6    6    0    0 -0.55101489933E+02  0.57075396439E+02  0.35524824954E+03  0.36399875532E+03  0.00000000000E+00 0. -1.
        -14    1    6    6    0    0  0.61521299355E+01 -0.15380552633E+02  0.25560456937E+02  0.30458940574E+02  0.00000000000E+00 0.  1.
</event>
<event>
12    1  0.8563264E-002  0.1891287E+03  0.7818608E-02  0.1159558E+00
         21   -1    0    0  503  502  0.00000000000E+00  0.00000000000E+00  0.62527326182E+03  0.62527326182E+03  0.00000000000E+00 0. -1.
         21   -1    0    0  501  503 -0.00000000000E+00 -0.00000000000E+00 -0.59836998509E+02  0.59836998509E+02  0.00000000000E+00 0. -1.
          6    2    1    2  501    0 -0.76534544358E+02  0.15552889274E+02  0.35895915774E+03  0.40510584269E+03  0.17076193373E+03 0.  0.
         24    2    3    3    0    0 -0.37600386455E+02 -0.49316082829E+02  0.14008602981E+03  0.17347814935E+03  0.81392305940E+02 0.  0.
         -6    2    1    2    0  502  0.76534544358E+02 -0.15552889274E+02  0.20647710557E+03  0.28000441764E+03  0.17225054405E+03 0.  0.
        -24    2    5    5    0    0 -0.15066859536E+02  0.91325358913E+01  0.89541310068E+02  0.12935164574E+03  0.91672179959E+02 0.  0.
          5    1    3    3  501    0 -0.38934157902E+02  0.64868972103E+02  0.21887312793E+03  0.23162769334E+03  0.47000000000E+01 0. -1.
        -13    1    4    4    0    0  0.22125639668E+02 -0.30880437160E+02  0.37703171332E+02  0.53522653694E+02  0.00000000000E+00 0.  1.
         14    1    4    4    0    0 -0.59726026123E+02 -0.18435645669E+02  0.10238285847E+03  0.11995549565E+03  0.00000000000E+00 0. -1.
         -5    1    5    5    0  502  0.91601403894E+02 -0.24685425166E+02  0.11693579551E+03  0.15065277190E+03  0.47000000000E+01 0.  1.
         11    1    6    6    0    0 -0.39999853437E+02 -0.27093842029E+02  0.56536315673E+02  0.74366790577E+02  0.00000000000E+00 0. -1.
        -12    1    6    6    0    0  0.24932993900E+02  0.36226377921E+02  0.33004994395E+02  0.54984855161E+02  0.00000000000E+00 0.  1.
</event>
<event>
12    1  0.8563264E-002  0.1775219E+03  0.7818608E-02  0.1171092E+00
         21   -1    0    0  501  502  0.00000000000E+00  0.00000000000E+00  0.11477858102E+04  0.11477858102E+04  0.00000000000E+00 0. -1.
         21   -1    0    0  502  503 -0.00000000000E+00 -0.00000000000E+00 -0.81938033108E+02  0.81938033108E+02  0.00000000000E+00 0. -1.
         -6    2    1    2    0  503 -0.28103882141E+02 -0.24132334344E+02  0.27356618138E+02  0.17616894720E+03  0.17004386390E+03 0.  0.
        -24    2    3    3    0    0 -0.13090923748E+02 -0.57901951996E+02 -0.32884243093E+02  0.10533938164E+03  0.80566764555E+02 0.  0.
          6    2    1    2  501    0  0.28103882141E+02  0.24132334344E+02  0.10384911589E+04  0.10535548961E+04  0.17361403781E+03 0.  0.
         24    2    5    5    0    0  0.32166794875E+02 -0.32716337166E+02  0.34373023603E+03  0.35644435341E+03  0.82444165997E+02 0.  0.
          5    1    5    5  501    0 -0.40629127344E+01  0.56848671511E+02  0.69476092289E+03  0.69711054266E+03  0.47000000000E+01 0. -1.
        -13    1    6    6    0    0  0.39111356120E+02  0.12151590127E+02  0.92741158124E+02  0.10138186095E+03  0.00000000000E+00 0.  1.
         14    1    6    6    0    0 -0.69445612444E+01 -0.44867927293E+02  0.25098907791E+03  0.25506249246E+03  0.00000000000E+00 0. -1.
         -5    1    3    3    0  503 -0.15012958392E+02  0.33769617652E+02  0.60240861232E+02  0.70829565564E+02  0.47000000000E+01 0.  1.
         11    1    4    4    0    0  0.29580019511E+02 -0.38297869108E+02 -0.32657670684E+02  0.58380029008E+02  0.00000000000E+00 0. -1.
        -12    1    4    4    0    0 -0.42670943260E+02 -0.19604082889E+02 -0.22657240927E+00  0.46959352632E+02  0.00000000000E+00 0.  1.
</event>
<event>
12    1  0.8563264E-002  0.2362933E+03  0.7818608E-02  0.1122292E+00
         21   -1    0    0  501  502  0.00000000000E+00  0.00000000000E+00  0.63481190305E+03  0.63481190305E+03  0.00000000000E+00 0. -1.
         21   -1    0    0  502  503 -0.00000000000E+00 -0.00000000000E+00 -0.14046154327E+04  0.14046154327E+04  0.00000000000E+00 0. -1.
         -6    2    1    2    0  503 -0.82474833142E+02  0.13969441904E+03 -0.13721754577E+04  0.13923674588E+04  0.17177026701E+03 0.  0.
        -24    2    3    3    0    0 -0.73054969708E+02  0.16350503259E+03 -0.13151409504E+04  0.13296721306E+04  0.79757954237E+02 0.  0.
          6    2    1    2  501    0  0.82474833142E+02 -0.13969441904E+03  0.60237192804E+03  0.64705987703E+03  0.17180778782E+03 0.  0.
         24    2    5    5    0    0  0.81879704795E+02 -0.16816566953E+03  0.48025129887E+03  0.52157480082E+03  0.80093597235E+02 0.  0.
          5    1    5    5  501    0  0.59512834724E+00  0.28471250488E+02  0.12212062916E+03  0.12548507620E+03  0.47000000000E+01 0. -1.
        -11    1    6    6    0    0  0.70174573633E+02 -0.79096052175E+02  0.18645277056E+03  0.21434852904E+03  0.00000000000E+00 0.  1.
         12    1    6    6    0    0  0.11705131162E+02 -0.89069617353E+02  0.29379852832E+03  0.30722627178E+03  0.00000000000E+00 0. -1.
         -5    1    3    3    0  503 -0.94198634335E+01 -0.23810613546E+02 -0.57034507326E+02  0.62695328139E+02  0.47000000000E+01 0.  1.
         11    1    4    4    0    0 -0.18434710852E+02  0.47350986396E+02 -0.17202956201E+03  0.17937704614E+03  0.00000000000E+00 0. -1.
        -12    1    4    4    0    0 -0.54620258856E+02  0.11615404619E+03 -0.11431113884E+04  0.11502950845E+04  0.00000000000E+00 0.  1.
</event>
<event>
12    1  0.8563264E-002  0.2027887E+03  0.7818608E-02  0.1150625E+00
         21   -1    0    0  503  502  0.00000000000E+00  0.00000000000E+00  0.31495344813E+03  0.31495344813E+03  0.00000000000E+00 0. -1.
         21   -1    0    0  501  503 -0.00000000000E+00 -0.00000000000E+00 -0.12364463320E+03  0.12364463320E+03  0.00000000000E+00 0. -1.
          6    2    1    2  501    0 -0.32196850275E+02  0.68457068070E+02  0.60909986680E+02  0.19750247195E+03  0.17197148779E+03 0.  0.
         24    2    3    3    0    0  0.29476521933E+02  0.31973702237E+02 -0.19336084761E+02  0.89816991018E+02  0.76171022847E+02 0.  0.
         -6    2    1    2    0  502  0.32196850275E+02 -0.68457068070E+02  0.13039882825E+03  0.24109560937E+03  0.18814949140E+03 0.  0.
        -24    2    5    5    0    0  0.71052543360E+02 -0.10613784678E+03  0.91723959597E+02  0.17440646906E+03  0.75436233001E+02 0.  0.
          5    1    3    3  501    0 -0.61673372208E+02  0.36483365833E+02  0.80246071441E+02  0.10768548093E+03  0.47000000000E+01 0. -1.
        -11    1    4    4    0    0  0.22794740951E+02  0.26744004434E+02  0.25987663175E+02  0.43705842006E+02  0.00000000000E+00 0.  1.
         12    1    4    4    0    0  0.66817809819E+01  0.52296978038E+01 -0.45323747936E+02  0.46111149012E+02  0.00000000000E+00 0. -1.
         -5    1    5    5    0  502 -0.38855693085E+02  0.37680778714E+02  0.38674868652E+02  0.66689140307E+02  0.47000000000E+01 0.  1.
         11    1    6    6    0    0  0.16887193280E+02 -0.89320280499E+02  0.64729637891E+02  0.11159397756E+03  0.00000000000E+00 0. -1.
        -12    1    6    6    0    0  0.54165350080E+02 -0.16817566285E+02  0.26994321706E+02  0.62812491508E+02  0.00000000000E+00 0.  1.
</event>
<event>
12    1  0.8563264E-002  0.1779521E+03  0.7818608E-02  0.1169973E+00
         21   -1    0    0  501  502  0.00000000000E+00  0.00000000000E+00  0.20598767582E+03  0.20598767582E+03  0.00000000000E+00 0.  1.
         21   -1    0    0  502  503 -0.00000000000E+00 -0.00000000000E+00 -0.15332806711E+03  0.15332806711E+03  0.00000000000E+00 0.  1.
         -6    2    1    2    0  503  0.42437594505E+02  0.14279380621E+02  0.19856276431E+02  0.17905648690E+03  0.17222689584E+03 0.  0.
        -24    2    3    3    0    0  0.48869055995E+02 -0.29382807198E+02  0.63228427789E+02  0.11700019105E+03  0.80247595803E+02 0.  0.
          6    2    1    2  501    0 -0.42437594505E+02 -0.14279380621E+02  0.32803332277E+02  0.18025925603E+03  0.17150070156E+03 0.  0.
         24    2    5    5    0    0 -0.32342290620E+02  0.30812496892E+02  0.73730719622E+02  0.11835341129E+03  0.81091782691E+02 0.  0.
          5    1    5    5  501    0 -0.10095303884E+02 -0.45091877513E+02 -0.40927387345E+02  0.61905844741E+02  0.47000000000E+01 0. -1.
        -11    1    6    6    0    0  0.19074318483E+02  0.36165035724E+02  0.32576285664E+02  0.52277660833E+02  0.00000000000E+00 0.  1.
         12    1    6    6    0    0 -0.51416609104E+02 -0.53525388314E+01  0.41154433958E+02  0.66075750454E+02  0.00000000000E+00 0. -1.
         -5    1    3    3    0  503 -0.64314614901E+01  0.43662187818E+02 -0.43372151357E+02  0.62056295856E+02  0.47000000000E+01 0.  1.
         11    1    4    4    0    0  0.24289346414E+02  0.21183868758E+02 -0.21313094055E+00  0.32230018144E+02  0.00000000000E+00 0. -1.
        -12    1    4    4    0    0  0.24579709581E+02 -0.50566675956E+02  0.63441558729E+02  0.84770172904E+02  0.00000000000E+00 0.  1.
</event>
<event>
12    1  0.8563264E-002  0.2081382E+03  0.7818608E-02  0.1143228E+00
         21   -1    0    0  501  502  0.00000000000E+00  0.00000000000E+00  0.69625413845E+03  0.69625413845E+03  0.00000000000E+00 0. -1.
         21   -1    0    0  502  503 -0.00000000000E+00 -0.00000000000E+00 -0.73118100659E+02  0.73118100659E+02  0.00000000000E+00 0. -1.
         -6    2    1    2    0  503  0.10757741902E+03 -0.42761837115E+02  0.16068270063E+03  0.26223851988E+03  0.17189716470E+03 0.  0.
        -24    2    3    3    0    0  0.77779315712E+02 -0.90484215412E+02  0.83631508222E+02  0.16671716833E+03  0.81014627425E+02 0.  0.
          6    2    1    2  501    0 -0.10757741902E+03  0.42761837115E+02  0.46245333716E+03  0.50713371923E+03  0.17297411462E+03 0.  0.
         24    2    5    5    0    0 -0.70001310552E+02 -0.21719483443E+02  0.38149115264E+03  0.39692133358E+03  0.81480832497E+02 0.  0.
          5    1    5    5  501    0 -0.37576108470E+02  0.64481320558E+02  0.80962184519E+02  0.11021238565E+03  0.47000000000E+01 0. -1.
        -11    1    6    6    0    0 -0.32920728891E+02  0.17352470964E+02  0.27575661423E+03  0.27825634392E+03  0.00000000000E+00 0.  1.
         12    1    6    6    0    0 -0.37080581661E+02 -0.39071954407E+02  0.10573453841E+03  0.11866498966E+03  0.00000000000E+00 0. -1.
         -5    1    3    3    0  503  0.29798103310E+02  0.47722378297E+02  0.77051192406E+02  0.95521351552E+02  0.47000000000E+01 0.  1.
         13    1    4    4    0    0  0.51711268436E+02 -0.72325812896E+02  0.97588571349E+02  0.13201745245E+03  0.00000000000E+00 0. -1.
        -14    1    4    4    0    0  0.26068047276E+02 -0.18158402516E+02 -0.13957063127E+02  0.34699715875E+02  0.00000000000E+00 0.  1.
</event>
<event>
12    1  0.8563264E-002  0.2684438E+03  0.7818608E-02  0.1102192E+00
         21   -1    0    0  503  502  0.00000000000E+00  0.00000000000E+00  0.23870300498E+03  0.23870300498E+03  0.00000000000E+00 0. -1.
         21   -1    0    0  501  503 -0.00000000000E+00 -0.00000000000E+00 -0.62651757558E+03  0.62651757558E+03  0.00000000000E+00 0.  1.
          6    2    1    2  501    0 -0.15922646243E+03  0.12970449519E+03 -0.50540245722E+03  0.57227068377E+03  0.17287501073E+03 0.  0.
         24    2    3    3    0    0 -0.13367592332E+03  0.32425118570E+02 -0.37626153010E+03  0.40851606179E+03  0.79949940072E+02 0.  0.
         -6    2    1    2    0  502  0.15922646243E+03 -0.12970449519E+03  0.11758788661E+03  0.29294989678E+03  0.17267428452E+03 0.  0.
        -24    2    5    5    0    0  0.65413912207E+02  0.54542485597E+01  0.37308130638E+02  0.10982259185E+03  0.79751967571E+02 0.  0.
          5    1    3    3  501    0 -0.25550539109E+02  0.97279376622E+02 -0.12914092712E+03  0.16375462199E+03  0.47000000000E+01 0. -1.
        -13    1    4    4    0    0 -0.71058295181E+02  0.48303322274E+02 -0.27755289121E+03  0.29054793009E+03  0.00000000000E+00 0.  1.
         14    1    4    4    0    0 -0.62617628141E+02 -0.15878203704E+02 -0.98708638886E+02  0.11796813170E+03  0.00000000000E+00 0. -1.
         -5    1    5    5    0  502  0.93812550223E+02 -0.13515874375E+03  0.80279755977E+02  0.18312730493E+03  0.47000000000E+01 0.  1.
         13    1    6    6    0    0  0.48299805479E+02  0.13657551383E+02  0.61302381752E+02  0.79229930756E+02  0.00000000000E+00 0. -1.
        -14    1    6    6    0    0  0.17114106728E+02 -0.82033028235E+01 -0.23994251114E+02  0.30592661094E+02  0.00000000000E+00 0.  1.
</event>
<event>
12    1  0.8563264E-002  0.1976675E+03  0.7818608E-02  0.1151759E+00
         21   -1    0    0  503  502  0.00000000000E+00  0.00000000000E+00  0.89457184406E+02  0.89457184406E+02  0.00000000000E+00 0.  1.
         21   -1    0    0  501  503 -0.00000000000E+00 -0.00000000000E+00 -0.43639428667E+03  0.43639428667E+03  0.00000000000E+00 0.  1.
          6    2    1    2  501    0 -0.13464096647E+02 -0.96557665040E+02 -0.17290299654E+03  0.26261741382E+03  0.17195288673E+03 0.  0.
         24    2    3    3    0    0  0.10977215899E+02 -0.12418806858E+03 -0.94987906988E+02  0.17628278498E+03  0.80682973164E+02 0.  0.
         -6    2    1    2    0  502  0.13464096647E+02  0.96557665040E+02 -0.17403410572E+03  0.26323405725E+03  0.17175457597E+03 0.  0.
        -24    2    5    5    0    0  0.61280302827E+02  0.10813804258E+03 -0.12395561030E+03  0.19287469099E+03  0.79915839049E+02 0.  0.
          5    1    3    3  501    0 -0.24441312546E+02  0.27630403537E+02 -0.77915089550E+02  0.86334628847E+02  0.47000000000E+01 0. -1.
        -13    1    4    4    0    0  0.24161346893E+02 -0.55827309815E+02 -0.29816551461E+01  0.60904429003E+02  0.00000000000E+00 0.  1.
         14    1    4    4    0    0 -0.13184130994E+02 -0.68360758763E+02 -0.92006251842E+02  0.11537835597E+03  0.00000000000E+00 0. -1.
         -5    1    5    5    0  502 -0.47816206180E+02 -0.11580377537E+02 -0.50078495422E+02  0.70359366264E+02  0.47000000000E+01 0.  1.
         13    1    6    6    0    0  0.13252791931E+02  0.44193441267E+02 -0.98795843390E+02  0.10903813744E+03  0.00000000000E+00 0. -1.
        -14    1    6    6    0    0  0.48027510896E+02  0.63944601311E+02 -0.25159766910E+02  0.83836553547E+02  0.00000000000E+00 0.  1.
</event>
<event>
12    1  0.8563264E-002  0.3072552E+03  0.7818608E-02  0.1082097E+00
         21   -1    0    0  503  502  0.00000000000E+00  0.00000000000E+00  0.49262652784E+03  0.49262652784E+03  0.00000000000E+00 0. -1.
         21   -1    0    0  501  503 -0.00000000000E+00 -0.00000000000E+00 -0.18949742848E+03  0.18949742848E+03  0.00000000000E+00 0. -1.
          6    2    1    2  501    0  0.14584856876E+03 -0.20436446914E+03  0.15569466021E+03  0.34132687332E+03  0.17095779005E+03 0.  0.
         24    2    3    3    0    0  0.57107997925E+01 -0.10903873615E+03  0.64441431153E+02  0.14877861580E+03  0.77848052351E+02 0.  0.
         -6    2    1    2    0  502 -0.14584856876E+03  0.20436446914E+03  0.14743443915E+03  0.34079708301E+03  0.17711323125E+03 0.  0.
        -24    2    5    5    0    0 -0.12187380202E+03  0.93602968946E+02  0.14615266523E+03  0.22736590427E+03  0.81975078281E+02 0.  0.
          5    1    3    3  501    0  0.14013776896E+03 -0.95325732983E+02  0.91253229055E+02  0.19254825751E+03  0.47000000000E+01 0. -1.
        -13    1    4    4    0    0 -0.12601041072E+02 -0.18053167828E+01 -0.10646457399E+02  0.16594952845E+02  0.00000000000E+00 0.  1.
         14    1    4    4    0    0  0.18311840864E+02 -0.10723341937E+03  0.75087888552E+02  0.13218366296E+03  0.00000000000E+00 0. -1.
         -5    1    5    5    0  502 -0.23974766739E+02  0.11076150019E+03  0.12817739208E+01  0.11343117873E+03  0.47000000000E+01 0.  1.
         13    1    6    6    0    0 -0.17534010356E+01  0.38619731158E+02  0.53505191947E+02  0.66010329610E+02  0.00000000000E+00 0. -1.
        -14    1    6    6    0    0 -0.12012040098E+03  0.54983237788E+02  0.92647473281E+02  0.16135557466E+03  0.00000000000E+00 0.  1.
</event>
<event>
12    1  0.8563264E-002  0.2002122E+03  0.7818608E-02  0.1152041E+00
         21   -1    0    0  503  502  0.00000000000E+00  0.00000000000E+00  0.27709299578E+03  0.27709299578E+03  0.00000000000E+00 0.  1.
         21   -1    0    0  501  503 -0.00000000000E+00 -0.00000000000E+00 -0.16611574762E+03  0.16611574762E+03  0.00000000000E+00 0.  1.
          6    2    1    2  501    0  0.56886146138E+02  0.57774425650E+02 -0.36658244226E+02  0.20354051526E+03  0.18306009014E+03 0.  0.
         24    2    3    3    0    0  0.77653483050E+02  0.46197470536E+02 -0.86823100602E+02  0.14782776100E+03  0.78425291899E+02 0.  0.
         -6    2    1    2    0  502 -0.56886146138E+02 -0.57774425650E+02  0.14763549238E+03  0.23966822814E+03  0.17050132870E+03 0.  0.
        -24    2    5    5    0    0  0.25682083935E+02 -0.69884026219E+01  0.10103956911E+03  0.13201135276E+03  0.80682064448E+02 0.  0.
          5    1    3    3  501    0 -0.20767336913E+02  0.11576955115E+02  0.50164856376E+02  0.55712754262E+02  0.47000000000E+01 0. -1.
        -13    1    4    4    0    0  0.21570400845E+02  0.20078726145E+02  0.11521832940E+02  0.31641587673E+02  0.00000000000E+00 0.  1.
         14    1    4    4    0    0  0.56083082205E+02  0.26118744391E+02 -0.98344933542E+02  0.11618617332E+03  0.00000000000E+00 0. -1.
         -5    1    5    5    0  502 -0.82568230072E+02 -0.50786023028E+02  0.46595923268E+02  0.10765687538E+03  0.47000000000E+01 0.  1.
         11    1    6    6    0    0  0.13616100393E+02 -0.97598969228E+01  0.11333292204E+03  0.11456441418E+03  0.00000000000E+00 0. -1.
        -12    1    6    6    0    0  0.12065983542E+02  0.27714943009E+01 -0.12293352928E+02  0.17446938577E+02  0.00000000000E+00 0.  1.
</event>
<event>
12    1  0.8563264E-002  0.2059305E+03  0.7818608E-02  0.1144928E+00
         21   -1    0    0  503  502  0.00000000000E+00  0.00000000000E+00  0.45503028609E+02  0.45503028609E+02  0.00000000000E+00 0. -1.
         21   -1    0    0  501  503 -0.00000000000E+00 -0.00000000000E+00 -0.93708717390E+03  0.93708717390E+03  0.00000000000E+00 0. -1.
          6    2    1    2  501    0  0.10841413732E+03 -0.33387244583E+02 -0.48967621443E+03  0.53121574598E+03  0.17186925416E+03 0.  0.
         24    2    3    3    0    0 -0.20355871892E+01 -0.44794301151E+02 -0.15640203069E+03  0.17989960041E+03  0.76756745601E+02 0.  0.
         -6    2    1    2    0  502 -0.10841413732E+03  0.33387244583E+02 -0.40190793086E+03  0.45137445653E+03  0.17129092751E+03 0.  0.
        -24    2    5    5    0    0 -0.12186530937E+03 -0.20124806978E+01 -0.20791275788E+03  0.25366180716E+03  0.79128969524E+02 0.  0.
          5    1    3    3  501    0  0.11044972451E+03  0.11407056568E+02 -0.33327418374E+03  0.35131614556E+03  0.47000000000E+01 0. -1.
        -13    1    4    4    0    0 -0.10707540824E+02 -0.84235505317E+01  0.47796706254E+01  0.14437897539E+02  0.00000000000E+00 0.  1.
         14    1    4    4    0    0  0.86719536345E+01 -0.36370750619E+02 -0.16118170131E+03  0.16546170288E+03  0.00000000000E+00 0. -1.
         -5    1    5    5    0  502  0.13451172045E+02  0.35399725281E+02 -0.19399517298E+03  0.19771264937E+03  0.47000000000E+01 0.  1.
         13    1    6    6    0    0 -0.92566840792E+02 -0.14641946588E+01 -0.79750239227E+02  0.12219191682E+03  0.00000000000E+00 0. -1.
        -14    1    6    6    0    0 -0.29298468578E+02 -0.54828603906E+00 -0.12816251865E+03  0.13146989034E+03  0.00000000000E+00 0.  1.
</event>
<event>
12    1  0.8563264E-002  0.1894240E+03  0.7818608E-02  0.1159168E+00
         21   -1    0    0  501  502  0.00000000000E+00  0.00000000000E+00  0.66127207261E+03  0.66127207261E+03  0.00000000000E+00 0.  1.
         21   -1    0    0  502  503 -0.00000000000E+00 -0.00000000000E+00 -0.63535849681E+02  0.63535849681E+02  0.00000000000E+00 0.  1.
         -6    2    1    2    0  503 -0.79957436804E+02  0.34561101190E+01  0.15921745094E+03  0.24745030515E+03  0.17168669266E+03 0.  0.
        -24    2    3    3    0    0 -0.58249704791E+02  0.47699712282E+02  0.48979933697E+02  0.12660692648E+03  0.89229979640E+02 0.  0.
          6    2    1    2  501    0  0.79957436804E+02 -0.34561101190E+01  0.43851877199E+03  0.47735761714E+03  0.17078186338E+03 0.  0.
         24    2    5    5    0    0  0.68770462904E+01  0.27300186919E+02  0.34090207900E+03  0.35150928765E+03  0.80944165133E+02 0.  0.
          5    1    5    5  501    0  0.73080390513E+02 -0.30756297038E+02  0.97616692992E+02  0.12584832949E+03  0.47000000000E+01 0. -1.
        -11    1    6    6    0    0  0.42401789637E+01 -0.91113267613E+01  0.15135940458E+01  0.10162989714E+02  0.00000000000E+00 0.  1.
         12    1    6    6    0    0  0.26368673267E+01  0.36411513680E+02  0.33938848495E+03  0.34134629794E+03  0.00000000000E+00 0. -1.
         -5    1    3    3    0  503 -0.21707732013E+02 -0.44243602163E+02  0.11023751724E+03  0.12084337867E+03  0.47000000000E+01 0.  1.
         13    1    4    4    0    0 -0.48592420133E+02  0.14398260811E+02 -0.15837876603E+02  0.53097754605E+02  0.00000000000E+00 0. -1.
        -14    1    4    4    0    0 -0.96572846580E+01  0.33301451471E+02  0.64817810300E+02  0.73509171871E+02  0.00000000000E+00 0.  1.
</event>
<event>
12    1  0.8563264E-002  0.2777326E+03  0.7818608E-02  0.1097192E+00
         21   -1    0    0  501  502  0.00000000000E+00  0.00000000000E+00  0.73743911501E+03  0.73743911501E+03  0.00000000000E+00 0.  1.
         21   -1    0    0  502  503 -0.00000000000E+00 -0.00000000000E+00 -0.11662802209E+03  0.11662802209E+03  0.00000000000E+00 0. -1.
         -6    2    1    2    0  503 -0.19581569298E+03  0.93043355571E+02  0.16839527558E+03  0.32320418461E+03  0.17059637886E+03 0.  0.
        -24    2    3    3    0    0 -0.83951430839E+02  0.74785138764E+02  0.20329475134E+02  0.13667658106E+03  0.75010269503E+02 0.  0.
          6    2    1    2  501    0  0.19581569298E+03 -0.93043355571E+02  0.45241581733E+03  0.53086295249E+03  0.17359306125E+03 0.  0.
         24    2    5    5    0    0  0.98845625177E+02  0.14669523553E+02  0.16362933864E+03  0.20771441287E+03  0.79906597431E+02 0.  0.
          5    1    5    5  501    0  0.96970067805E+02 -0.10771287912E+03  0.28878647869E+03  0.32314853962E+03  0.47000000000E+01 0. -1.
        -11    1    6    6    0    0  0.29110186503E+01  0.28547528045E+02  0.55623875579E+02  0.62589543228E+02  0.00000000000E+00 0.  1.
         12    1    6    6    0    0  0.95934606527E+02 -0.13878004492E+02  0.10800546306E+03  0.14512486964E+03  0.00000000000E+00 0. -1.
         -5    1    3    3    0  503 -0.11186426214E+03  0.18258216806E+02  0.14806580045E+03  0.18652760356E+03  0.47000000000E+01 0.  1.
         13    1    4    4    0    0 -0.22737457377E+02 -0.14305852343E+02  0.11056373395E+01  0.26886275554E+02  0.00000000000E+00 0. -1.
        -14    1    4    4    0    0 -0.61213973461E+02  0.89090991107E+02  0.19223837795E+02  0.10979030551E+03  0.00000000000E+00 0.  1.
</event>
<event>
12    1  0.8563264E-002  0.2296714E+03  0.7818608E-02  0.1126949E+00
         21   -1    0    0  501  502  0.00000000000E+00  0.00000000000E+00  0.21595368084E+03  0.21595368084E+03  0.00000000000E+00 0.  1.
         21   -1    0    0  502  503 -0.00000000000E+00 -0.00000000000E+00 -0.30479791523E+03  0.30479791523E+03  0.00000000000E+00 0.  1.
         -6    2    1    2    0  503  0.14848994750E+03  0.33127417741E+02 -0.16094474031E+03  0.28044993525E+03  0.17205309191E+03 0.  0.
        -24    2    3    3    0    0  0.64295751259E+02  0.70139083396E+02 -0.13890908381E+03  0.18575998736E+03  0.78470406458E+02 0.  0.
          6    2    1    2  501    0 -0.14848994750E+03 -0.33127417741E+02  0.72100505910E+02  0.24030166082E+03  0.17146345070E+03 0.  0.
         24    2    5    5    0    0 -0.74082233687E+02  0.66498219939E+01 -0.22824961963E+02  0.11321243576E+03  0.82241590705E+02 0.  0.
          5    1    5    5  501    0 -0.74407713809E+02 -0.39777239735E+02  0.94925467873E+02  0.12708922506E+03  0.47000000000E+01 0. -1.
        -13    1    6    6    0    0 -0.70679788319E+02  0.31692349093E+02  0.24110692019E+01  0.77497423973E+02  0.00000000000E+00 0.  1.
         14    1    6    6    0    0 -0.34024453680E+01 -0.25042527099E+02 -0.25236031165E+02  0.35715011787E+02  0.00000000000E+00 0. -1.
         -5    1    3    3    0  503  0.84194196237E+02 -0.37011665656E+02 -0.22035656501E+02  0.94689947894E+02  0.47000000000E+01 0.  1.
         13    1    4    4    0    0  0.80625208679E+01  0.30244140420E+02 -0.10374316487E+03  0.10836215451E+03  0.00000000000E+00 0. -1.
        -14    1    4    4    0    0  0.56233230391E+02  0.39894942976E+02 -0.35165918938E+02  0.77397832851E+02  0.00000000000E+00 0.  1.
</event>
<event>
12    1  0.8563264E-002  0.2583241E+03  0.7818608E-02  0.1108925E+00
         21   -1    0    0  503  502  0.00000000000E+00  0.00000000000E+00  0.60488837125E+03  0.60488837125E+03  0.00000000000E+00 0. -1.
         21   -1    0    0  501  503 -0.00000000000E+00 -0.00000000000E+00 -0.18286517774E+03  0.18286517774E+03  0.00000000000E+00 0.  1.
          6    2    1    2  501    0 -0.95632224709E+02 -0.16111509651E+03 -0.41927960964E+02  0.25673377054E+03  0.17044259532E+03 0.  0.
         24    2    3    3    0    0 -0.12691255376E+03 -0.16290411874E+03 -0.41156388853E+02  0.22504236935E+03  0.79408258109E+02 0.  0.
         -6    2    1    2    0  502  0.95632224709E+02  0.16111509651E+03  0.46395115448E+03  0.53101977845E+03  0.17784188098E+03 0.  0.
        -24    2    5    5    0    0  0.13520361300E+03  0.11459005287E+03  0.31161943769E+03  0.36683233557E+03  0.77771404062E+02 0.  0.
          5    1    3    3  501    0  0.31280329049E+02  0.17890222309E+01 -0.77157211104E+00  0.31691401192E+02  0.47000000000E+01 0. -1.
        -13    1    4    4    0    0 -0.64034964485E+02 -0.11830128982E+03 -0.57406797600E+02  0.14625734942E+03  0.00000000000E+00 0.  1.
         14    1    4    4    0    0 -0.62877589274E+02 -0.44602828918E+02  0.16250408747E+02  0.78785019926E+02  0.00000000000E+00 0. -1.
         -5    1    5    5    0  502 -0.39571388294E+02  0.46525043641E+02  0.15233171679E+03  0.16418744287E+03  0.47000000000E+01 0.  1.
         13    1    6    6    0    0  0.92240294978E+02  0.11027366002E+03  0.19345509556E+03  0.24102577893E+03  0.00000000000E+00 0. -1.
        -14    1    6    6    0    0  0.42963318026E+02  0.43163928515E+01  0.11816434213E+03  0.12580655664E+03  0.00000000000E+00 0.  1.
</event>
<event>
12    1  0.8563264E-002  0.2238739E+03  0.7818608E-02  0.1131405E+00
         21   -1    0    0  501  502  0.00000000000E+00  0.00000000000E+00  0.52893078774E+03  0.52893078774E+03  0.00000000000E+00 0. -1.
         21   -1    0    0  502  503 -0.00000000000E+00 -0.00000000000E+00 -0.93920189655E+02  0.93920189655E+02  0.00000000000E+00 0. -1.
         -6    2    1    2    0  503  0.37671478262E+02  0.13578199957E+03  0.21045700019E+03  0.30576448864E+03  0.17130056014E+03 0.  0.
        -24    2    3    3    0    0  0.97505563736E+01  0.62623409716E+02  0.27498333394E+02  0.10669736201E+03  0.81310540076E+02 0.  0.
          6    2    1    2  501    0 -0.37671478262E+02 -0.13578199957E+03  0.22455359790E+03  0.31708648875E+03  0.17396445425E+03 0.  0.
         24    2    5    5    0    0 -0.71750386606E+02 -0.28605609552E+02  0.80585953456E+02  0.13433823783E+03  0.74741336440E+02 0.  0.
          5    1    5    5  501    0  0.34078908344E+02 -0.10717639001E+03  0.14396764444E+03  0.18274825092E+03  0.47000000000E+01 0. -1.
        -13    1    6    6    0    0  0.54215486631E+01  0.87432943044E+01  0.36520990786E+02  0.37942339849E+02  0.00000000000E+00 0.  1.
         14    1    6    6    0    0 -0.77171935269E+02 -0.37348903857E+02  0.44064962670E+02  0.96395897981E+02  0.00000000000E+00 0. -1.
         -5    1    3    3    0  503  0.27920921888E+02  0.73158589850E+02  0.18295866679E+03  0.19906712662E+03  0.47000000000E+01 0.  1.
         13    1    4    4    0    0 -0.23335947547E+02  0.64634661442E+02  0.26139435320E+02  0.73521942211E+02  0.00000000000E+00 0. -1.
        -14    1    4    4    0    0  0.33086503921E+02 -0.20112517260E+01  0.13588980733E+01  0.33175419804E+02  0.00000000000E+00 0.  1.
</event>
<event>
12    1  0.8563264E-002  0.1814966E+03  0.7818608E-02  0.1167087E+00
         21   -1    0    0  503  502  0.00000000000E+00  0.00000000000E+00  0.99014952503E+02  0.99014952503E+02  0.00000000000E+00 0. -1.
         21   -1    0    0  501  503 -0.00000000000E+00 -0.00000000000E+00 -0.33462087046E+03  0.33462087046E+03  0.00000000000E+00 0.  1.
          6    2    1    2  501    0 -0.56162993094E+02  0.95135083386E+01 -0.14910576249E+03  0.23258040637E+03  0.16916361425E+03 0.  0.
         24    2    3    3    0    0 -0.34691374156E+02  0.61983941775E+02 -0.13798524048E+03  0.17461547892E+03  0.80032108618E+02 0.  0.
         -6    2    1    2    0  502  0.56162993094E+02 -0.95135083386E+01 -0.86500155473E+02  0.20105541659E+03  0.17232589768E+03 0.  0.
        -24    2    5    5    0    0 -0.44786590271E+01  0.30653284240E+02  0.22172744149E+01  0.86235324432E+02  0.80448322871E+02 0.  0.
          5    1    3    3  501    0 -0.21471618938E+02 -0.52470433437E+02 -0.11120522010E+02  0.57964927453E+02  0.47000000000E+01 0. -1.
        -11    1    4    4    0    0 -0.20391171358E+01 -0.95012353732E+01 -0.70087218420E+02  0.70757682679E+02  0.00000000000E+00 0.  1.
         12    1    4    4    0    0 -0.32652257021E+02  0.71485177148E+02 -0.67898022056E+02  0.10385779624E+03  0.00000000000E+00 0. -1.
         -5    1    5    5    0  502  0.60641652121E+02 -0.40166792578E+02 -0.88717429888E+02  0.11482009216E+03  0.47000000000E+01 0.  1.
         13    1    6    6    0    0  0.14877146082E+02 -0.18798510009E+02  0.18948131026E+02  0.30557243388E+02  0.00000000000E+00 0. -1.
        -14    1    6    6    0    0 -0.19355805109E+02  0.49451794248E+02 -0.16730856611E+02  0.55678081044E+02  0.00000000000E+00 0.  1.
</event>
<event>
12    1  0.8563264E-002  0.1926089E+03  0.7818608E-02  0.1156237E+00
         21   -1    0    0  503  502  0.00000000000E+00  0.00000000000E+00  0.95841690027E+02  0.95841690027E+02  0.00000000000E+00 0.  1.
         21   -1    0    0  501  503 -0.00000000000E+00 -0.00000000000E+00 -0.88288127162E+03  0.88288127162E+03  0.00000000000E+00 0.  1.
          6    2    1    2  501    0 -0.18800147704E+02 -0.83813290967E+02 -0.76081806936E+03  0.78481992474E+03  0.17239508783E+03 0.  0.
         24    2    3    3    0    0 -0.41463992048E+02 -0.79794522470E+02 -0.74840959320E+03  0.75825188715E+03  0.82113194583E+02 0.  0.
         -6    2    1    2    0  502  0.18800147704E+02  0.83813290967E+02 -0.26221512235E+02  0.19390303691E+03  0.17185082695E+03 0.  0.
        -24    2    5    5    0    0  0.56854474751E+02  0.97903019564E+02 -0.50846006465E+02  0.14620494497E+03  0.77286072618E+02 0.  0.
          5    1    3    3  501    0  0.22663844344E+02 -0.40187684971E+01 -0.12408476164E+02  0.26568037590E+02  0.47000000000E+01 0. -1.
        -13    1    4    4    0    0 -0.94170008860E+01 -0.44440597720E+00 -0.37671958079E+03  0.37683752461E+03  0.00000000000E+00 0.  1.
         14    1    4    4    0    0 -0.32046991162E+02 -0.79350116493E+02 -0.37169001241E+03  0.38141436254E+03  0.00000000000E+00 0. -1.
         -5    1    5    5    0  502 -0.38054327046E+02 -0.14089728597E+02  0.24624494230E+02  0.47698091942E+02  0.47000000000E+01 0.  1.
         11    1    6    6    0    0  0.14211991620E+02  0.15427836799E+01 -0.37322629654E+02  0.39966730809E+02  0.00000000000E+00 0. -1.
        -12    1    6    6    0    0  0.42642483130E+02  0.96360235884E+02 -0.13523376811E+02  0.10623821416E+03  0.00000000000E+00 0.  1.
</event>
<event>
12    1  0.8563264E-002  0.2455470E+03  0.7818608E-02  0.1116212E+00
         21   -1    0    0  501  502  0.00000000000E+00  0.00000000000E+00  0.13433838810E+03  0.13433838810E+03  0.00000000000E+00 0.  1.
         21   -1    0    0  502  503 -0.00000000000E+00 -0.00000000000E+00 -0.77052406804E+03  0.77052406804E+03  0.00000000000E+00 0.  1.
         -6    2    1    2    0  503 -0.10300767829E+03  0.14151753191E+03 -0.61088501748E+03  0.65838730201E+03  0.17220784314E+03 0.  0.
        -24    2    3    3    0    0 -0.72070654498E+01  0.13424513216E+02 -0.28088984734E+03  0.29163877621E+03  0.76953947934E+02 0.  0.
          6    2    1    2  501    0  0.10300767829E+03 -0.14151753191E+03 -0.25300662457E+02  0.24647515413E+03  0.17167435585E+03 0.  0.
         24    2    5    5    0    0  0.77560251792E+02 -0.11536292357E+02 -0.22430810026E+02  0.11391188544E+03  0.79524195729E+02 0.  0.
          5    1    5    5  501    0  0.25447426498E+02 -0.12998123956E+03 -0.28698524309E+01  0.13256326869E+03  0.47000000000E+01 0. -1.
        -11    1    6    6    0    0  0.32580805150E+02 -0.25220936358E+02  0.24125903519E+02  0.47745824065E+02  0.00000000000E+00 0.  1.
         12    1    6    6    0    0  0.44979446642E+02  0.13684644001E+02 -0.46556713545E+02  0.66166061374E+02  0.00000000000E+00 0. -1.
         -5    1    3    3    0  503 -0.95800612840E+02  0.12809301870E+03 -0.32999517015E+03  0.36674852580E+03  0.47000000000E+01 0.  1.
         11    1    4    4    0    0 -0.37245878596E+02  0.31382355374E+01 -0.80566724378E+02  0.88814982247E+02  0.00000000000E+00 0. -1.
        -12    1    4    4    0    0  0.30038813146E+02  0.10286277679E+02 -0.20032312296E+03  0.20282379396E+03  0.00000000000E+00 0.  1.
</event>
<event>
12    1  0.8563264E-002  0.3999146E+03  0.7818608E-02  0.1043823E+00
         21   -1    0    0  501  502  0.00000000000E+00  0.00000000000E+00  0.25007737755E+03  0.25007737755E+03  0.00000000000E+00 0.  1.
         21   -1    0    0  502  503 -0.00000000000E+00 -0.00000000000E+00 -0.63967549786E+03  0.63967549786E+03  0.00000000000E+00 0. -1.
         -6    2    1    2    0  503 -0.32755825790E+03 -0.15015390562E+03 -0.20607846997E+03  0.44988887531E+03  0.17346773953E+03 0.  0.
        -24    2    3    3    0    0 -0.22977064429E+03 -0.15573521802E+03 -0.20046436194E+03  0.35166883341E+03  0.80230922189E+02 0.  0.
          6    2    1    2  501    0  0.32755825790E+03  0.15015390562E+03 -0.18351965033E+03  0.43986400010E+03  0.17309034876E+03 0.  0.
         24    2    5    5    0    0  0.11297219633E+03  0.79949534832E+02 -0.21056772830E+02  0.16166962908E+03  0.80864306234E+02 0.  0.
          5    1    5    5  501    0  0.21458606157E+03  0.70204370787E+02 -0.16246287750E+03  0.27819437101E+03  0.47000000000E+01 0. -1.
        -13    1    6    6    0    0  0.41534469585E+02 -0.74940985271E+01 -0.24314337479E+02  0.48707911918E+02  0.00000000000E+00 0.  1.
         14    1    6    6    0    0  0.71437726747E+02  0.87443633359E+02  0.32575646490E+01  0.11296171717E+03  0.00000000000E+00 0. -1.
         -5    1    3    3    0  503 -0.97787613604E+02  0.55813123989E+01 -0.56141080326E+01  0.98220041903E+02  0.47000000000E+01 0.  1.
         11    1    4    4    0    0 -0.50089697048E+02 -0.78297099654E+02 -0.72515686162E+02  0.11788951736E+03  0.00000000000E+00 0. -1.
        -12    1    4    4    0    0 -0.17968094725E+03 -0.77438118364E+02 -0.12794867577E+03  0.23377931605E+03  0.00000000000E+00 0.  1.
</event>
<event>
12    1  0.8563264E-002  0.1860661E+03  0.7818608E-02  0.1162296E+00
         21   -1    0    0  503  502  0.00000000000E+00  0.00000000000E+00  0.75945234042E+03  0.75945234042E+03  0.00000000000E+00 0.  1.
         21   -1    0    0  501  503 -0.00000000000E+00 -0.00000000000E+00 -0.45734330749E+02  0.45734330749E+02  0.00000000000E+00 0.  1.
          6    2    1    2  501    0 -0.45017613697E+02 -0.53690830610E+02  0.39539487975E+03  0.43698709502E+03  0.17236971732E+03 0.  0.
         24    2    3    3    0    0 -0.26831448943E+02 -0.10209154439E+03  0.30331070545E+03  0.33127545499E+03  0.81261509638E+02 0.  0.
         -6    2    1    2    0  502  0.45017613697E+02  0.53690830610E+02  0.31832312993E+03  0.36819957615E+03  0.17126593940E+03 0.  0.
        -24    2    5    5    0    0  0.56401557864E+02  0.96274313845E+02  0.28017917939E+03  0.30971882554E+03  0.70537217810E+02 0.  0.
          5    1    3    3  501    0 -0.18186164755E+02  0.48400713777E+02  0.92084174293E+02  0.10571164003E+03  0.47000000000E+01 0. -1.
        -13    1    4    4    0    0 -0.15370031037E+02 -0.30791240421E+02  0.22004541481E+02  0.40847743959E+02  0.00000000000E+00 0.  1.
         14    1    4    4    0    0 -0.11461417906E+02 -0.71300303966E+02  0.28130616397E+03  0.29042771103E+03  0.00000000000E+00 0. -1.
         -5    1    5    5    0  502 -0.11383944167E+02 -0.42583483234E+02  0.38143950536E+02  0.58480750608E+02  0.47000000000E+01 0.  1.
         13    1    6    6    0    0 -0.10314780461E+02  0.16484925867E+02  0.14057849535E+02  0.23995220573E+02  0.00000000000E+00 0. -1.
        -14    1    6    6    0    0  0.66716338325E+02  0.79789387977E+02  0.26612132986E+03  0.28572360497E+03  0.00000000000E+00 0.  1.
</event>
<event>
12    1  0.8563264E-002  0.1987601E+03  0.7818608E-02  0.1150963E+00
         21   -1    0    0  501  502  0.00000000000E+00  0.00000000000E+00  0.55969531997E+03  0.55969531997E+03  0.00000000000E+00 0. -1.
         21   -1    0    0  502  503 -0.00000000000E+00 -0.00000000000E+00 -0.70331587071E+02  0.70331587071E+02  0.00000000000E+00 0. -1.
         -6    2    1    2    0  503  0.97587171389E+02 -0.38797026498E+01  0.25237816982E+03  0.32124807485E+03  0.17311059149E+03 0.  0.
        -24    2    3    3    0    0  0.69442657597E+02 -0.47488999331E+02  0.24114477199E+03  0.26793612835E+03  0.81002963300E+02 0.  0.
          6    2    1    2  501    0 -0.97587171389E+02  0.38797026498E+01  0.23698556308E+03  0.30877883219E+03  0.17217404562E+03 0.  0.
         24    2    5    5    0    0 -0.70968455899E+02  0.46964359817E+02  0.22933009232E+03  0.25734401975E+03  0.79946734971E+02 0.  0.
          5    1    5    5  501    0 -0.26618715490E+02 -0.43084657167E+02  0.76554707587E+01  0.51434812434E+02  0.47000000000E+01 0. -1.
        -13    1    6    6    0    0  0.85696258735E+01  0.49669972125E+00 -0.15886975097E+01  0.87297856790E+01  0.00000000000E+00 0.  1.
         14    1    6    6    0    0 -0.79538081772E+02  0.46467660096E+02  0.23091878983E+03  0.24861423407E+03  0.00000000000E+00 0. -1.
         -5    1    3    3    0  503  0.28144513791E+02  0.43609296681E+02  0.11233397826E+02  0.53311946506E+02  0.47000000000E+01 0.  1.
         13    1    4    4    0    0  0.72747082451E+02 -0.51555680064E+02  0.24545702834E+03  0.26114991655E+03  0.00000000000E+00 0. -1.
        -14    1    4    4    0    0 -0.33044248534E+01  0.40666807332E+01 -0.43122563467E+01  0.67862118002E+01  0.00000000000E+00 0.  1.
</event>
<event>
12    1  0.8563264E-002  0.2370234E+03  0.7818608E-02  0.1122016E+00
         21   -1    0    0  503  502  0.00000000000E+00  0.00000000000E+00  0.99172342171E+03  0.99172342171E+03  0.00000000000E+00 0.  1.
         21   -1    0    0  501  503 -0.00000000000E+00 -0.00000000000E+00 -0.60295839041E+02  0.60295839041E+02  0.00000000000E+00 0. -1.
          6    2    1    2  501    0  0.15415703279E+03  0.51205166458E+02  0.59932926524E+03  0.64401265403E+03  0.17079335627E+03 0.  0.
         24    2    3    3    0    0  0.10521301772E+03  0.51361408298E+02  0.56927547791E+03  0.58638574057E+03  0.77883847078E+02 0.  0.
         -6    2    1    2    0  502 -0.15415703279E+03 -0.51205166458E+02  0.33209831743E+03  0.40800660672E+03  0.17260862916E+03 0.  0.
        -24    2    5    5    0    0 -0.16545333666E+03 -0.81405713561E+02  0.30460523384E+03  0.36537282702E+03  0.81922264545E+02 0.  0.
          5    1    3    3  501    0  0.48944015064E+02 -0.15624184014E+00  0.30053787338E+02  0.57626913465E+02  0.47000000000E+01 0. -1.
        -13    1    4    4    0    0  0.32088473380E+02  0.40882570725E+02  0.37419813700E+03  0.37779002163E+03  0.00000000000E+00 0.  1.
         14    1    4    4    0    0  0.73124544341E+02  0.10478837574E+02  0.19507734091E+03  0.20859571893E+03  0.00000000000E+00 0. -1.
         -5    1    5    5    0  502  0.11296303877E+02  0.30200547103E+02  0.27493083588E+02  0.42633779703E+02  0.47000000000E+01 0.  1.
         13    1    6    6    0    0 -0.14558843504E+03 -0.41417537768E+02  0.19377558265E+03  0.24588692784E+03  0.00000000000E+00 0. -1.
        -14    1    6    6    0    0 -0.19864901625E+02 -0.39988175793E+02  0.11082965119E+03  0.11948589918E+03  0.00000000000E+00 0.  1.
</event>
<event>
12    1  0.8563264E-002  0.2357716E+03  0.7818608E-02  0.1122718E+00
         21   -1    0    0  503  502  0.00000000000E+00  0.00000000000E+00  0.23206719023E+03  0.23206719023E+03  0.00000000000E+00 0. -1.
         21   -1    0    0  501  503 -0.00000000000E+00 -0.00000000000E+00 -0.25083162647E+03  0.25083162647E+03  0.00000000000E+00 0. -1.
          6    2    1    2  501    0  0.15484841271E+03 -0.42783027647E+02 -0.61638326147E+02  0.24369561688E+03  0.17256839821E+03 0.  0.
         24    2    3    3    0    0  0.81064838628E+01  0.82277510811E+01 -0.17914065311E+02  0.82236042329E+02  0.79425700837E+02 0.  0.
         -6    2    1    2    0  502 -0.15484841271E+03  0.42783027647E+02  0.42873889911E+02  0.23920319982E+03  0.17196389736E+03 0.  0.
        -24    2    5    5    0    0 -0.11450279687E+03  0.76147291574E+02 -0.16181301517E+02  0.16014278963E+03  0.80464762761E+02 0.  0.
          5    1    3    3  501    0  0.14674192885E+03 -0.51010778728E+02 -0.43724260835E+02  0.16145957455E+03  0.47000000000E+01 0. -1.
        -13    1    4    4    0    0  0.31366864171E+02 -0.22280496574E+02 -0.20847940266E+02  0.43759996673E+02  0.00000000000E+00 0.  1.
         14    1    4    4    0    0 -0.23260380308E+02  0.30508247655E+02  0.29338749548E+01  0.38476045656E+02  0.00000000000E+00 0. -1.
         -5    1    5    5    0  502 -0.40345615842E+02 -0.33364263927E+02  0.59055191428E+02  0.79060410191E+02  0.47000000000E+01 0.  1.
         11    1    6    6    0    0 -0.10642222880E+03  0.27808829818E+02 -0.65069134186E+01  0.11018784743E+03  0.00000000000E+00 0. -1.
        -12    1    6    6    0    0 -0.80805680703E+01  0.48338461756E+02 -0.96743880984E+01  0.49954942201E+02  0.00000000000E+00 0.  1.
</event>
<event>
12    1  0.8563264E-002  0.1986594E+03  0.7818608E-02  0.1150881E+00
         21   -1    0    0  503  502  0.00000000000E+00  0.00000000000E+00  0.22001699800E+03  0.22001699800E+03  0.00000000000E+00 0.  1.
         21   -1    0    0  501  503 -0.00000000000E+00 -0.00000000000E+00 -0.61902945056E+03  0.61902945056E+03  0.00000000000E+00 0. -1.
          6    2    1    2  501    0  0.94948042744E+02 -0.30082021675E+02 -0.55307558823E+03  0.58767181693E+03  0.17188804284E+03 0.  0.
         24    2    3    3    0    0 -0.74500134444E+00 -0.24710062168E+02 -0.14698478927E+03  0.17039751430E+03  0.82581126195E+02 0.  0.
         -6    2    1    2    0  502 -0.94948042744E+02  0.30082021675E+02  0.15406313567E+03  0.25137463163E+03  0.17185370757E+03 0.  0.
        -24    2    5    5    0    0 -0.10449435140E+03  0.84058174682E+01  0.46562764681E+02  0.14119564271E+03  0.82330985796E+02 0.  0.
          5    1    3    3  501    0  0.95693044089E+02 -0.53719595065E+01 -0.40609079896E+03  0.41727430264E+03  0.47000000000E+01 0. -1.
        -11    1    4    4    0    0 -0.40868903860E+01  0.28599753575E+02 -0.29247801899E+02  0.41110612906E+02  0.00000000000E+00 0.  1.
         12    1    4    4    0    0  0.33418890415E+01 -0.53309815743E+02 -0.11773698737E+03  0.12928690139E+03  0.00000000000E+00 0. -1.
         -5    1    5    5    0  502  0.95463086582E+01  0.21676204206E+02  0.10750037099E+03  0.11017898892E+03  0.47000000000E+01 0.  1.
         13    1    6    6    0    0 -0.67545517737E+02  0.27118873435E+02  0.63361367810E+02  0.96501260062E+02  0.00000000000E+00 0. -1.
        -14    1    6    6    0    0 -0.36948833666E+02 -0.18713055967E+02 -0.16798603129E+02  0.44694382644E+02  0.00000000000E+00 0.  1.
</event>
<event>
12    1  0.8563264E-002  0.2304139E+03  0.7818608E-02  0.1126696E+00
         21   -1    0    0  501  502  0.00000000000E+00  0.00000000000E+00  0.17452593048E+04  0.17452593048E+04  0.00000000000E+00 0.  1.
         21   -1    0    0  502  503 -0.00000000000E+00 -0.00000000000E+00 -0.38771836671E+02  0.38771836671E+02  0.00000000000E+00 0. -1.
         -6    2    1    2    0  503  0.94667869911E+00  0.14896017259E+03  0.43001507117E+03  0.48692962858E+03  0.17319778444E+03 0.  0.
        -24    2    3    3    0    0  0.49393892273E+02  0.14615790954E+03  0.29579464288E+03  0.34412837314E+03  0.84427337602E+02 0.  0.
          6    2    1    2  501    0 -0.94667869911E+00 -0.14896017259E+03  0.12764723969E+04  0.12971015129E+04  0.17578545258E+03 0.  0.
         24    2    5    5    0    0  0.50866364352E+02 -0.12575938242E+03  0.69282173177E+03  0.71067755613E+03  0.81595511423E+02 0.  0.
          5    1    5    5  501    0 -0.51813043051E+02 -0.23200790173E+02  0.58365066515E+03  0.58642395673E+03  0.47000000000E+01 0. -1.
        -13    1    6    6    0    0  0.51062820885E+02 -0.12162197523E+03  0.69395752285E+03  0.70638258759E+03  0.00000000000E+00 0.  1.
         14    1    6    6    0    0 -0.19645653259E+00 -0.41374071873E+01 -0.11357910742E+01  0.42949685409E+01  0.00000000000E+00 0. -1.
         -5    1    3    3    0  503 -0.48447213574E+02  0.28022630493E+01  0.13422042830E+03  0.14280125543E+03  0.47000000000E+01 0.  1.
         13    1    4    4    0    0 -0.42818277694E+01  0.80875795122E+02  0.86922692660E+02  0.11880565132E+03  0.00000000000E+00 0. -1.
        -14    1    4    4    0    0  0.53675720042E+02  0.65282114418E+02  0.20887195022E+03  0.22532272183E+03  0.00000000000E+00 0.  1.
</event>
<event>
12    1  0.8563264E-002  0.1851129E+03  0.7818608E-02  0.1163539E+00
         21   -1    0    0  503  502  0.00000000000E+00  0.00000000000E+00  0.21990984324E+04  0.21990984324E+04  0.00000000000E+00 0. -1.
         21   -1    0    0  501  503 -0.00000000000E+00 -0.00000000000E+00 -0.45998262063E+02  0.45998262063E+02  0.00000000000E+00 0. -1.
          6    2    1    2  501    0 -0.62189015562E+02 -0.28991544317E+02  0.16303186802E+03  0.24667018437E+03  0.17192674768E+03 0.  0.
         24    2    3    3    0    0 -0.12809605289E+01  0.42814692426E+02  0.99957714252E+02  0.13324018095E+03  0.76984819498E+02 0.  0.
         -6    2    1    2    0  502  0.62189015562E+02  0.28991544317E+02  0.19900683023E+04  0.19984265101E+04  0.16920013315E+03 0.  0.
        -24    2    5    5    0    0  0.92208473216E+02 -0.21444101059E+02  0.13389026533E+04  0.13446041224E+04  0.79609540972E+02 0.  0.
          5    1    3    3  501    0 -0.60908055033E+02 -0.71806236743E+02  0.63074153773E+02  0.11343000343E+03  0.47000000000E+01 0. -1.
        -13    1    4    4    0    0 -0.17564528682E+02  0.10446658006E+02  0.94395698926E+02  0.96582572481E+02  0.00000000000E+00 0.  1.
         14    1    4    4    0    0  0.16283568153E+02  0.32368034421E+02  0.55620153258E+01  0.36657608467E+02  0.00000000000E+00 0. -1.
         -5    1    5    5    0  502 -0.30019457654E+02  0.50435645376E+02  0.65116564901E+03  0.65382238767E+03  0.47000000000E+01 0.  1.
         13    1    6    6    0    0  0.93434539439E+02  0.62217596050E+01  0.90903391563E+03  0.91384428828E+03  0.00000000000E+00 0. -1.
        -14    1    6    6    0    0 -0.12260662223E+01 -0.27665860664E+02  0.42986873766E+03  0.43075983413E+03  0.00000000000E+00 0.  1.
</event>
<event>
12    1  0.8563264E-002  0.1879589E+03  0.7818608E-02  0.1163353E+00
         21   -1    0    0  501  502  0.00000000000E+00  0.00000000000E+00  0.58561789305E+02  0.58561789305E+02  0.00000000000E+00 0. -1.
         21   -1    0    0  502  503 -0.00000000000E+00 -0.00000000000E+00 -0.90237891144E+03  0.90237891144E+03  0.00000000000E+00 0. -1.
         -6    2    1    2    0  503  0.11703296899E+02  0.26085693129E+02 -0.72576108045E+03  0.74970506343E+03  0.18577164934E+03 0.  0.
        -24    2    3    3    0    0  0.20311411538E+01 -0.56245509383E+02 -0.29246976468E+03  0.30853000541E+03  0.80526505726E+02 0.  0.
          6    2    1    2  501    0 -0.11703296899E+02 -0.26085693129E+02 -0.11805604169E+03  0.21123563731E+03  0.17281734562E+03 0.  0.
         24    2    5    5    0    0  0.46138954010E+01  0.42048573187E+02 -0.27011198457E+02  0.96258324377E+02  0.82138234897E+02 0.  0.
          5    1    5    5  501    0 -0.16317192300E+02 -0.68134266316E+02 -0.91044843231E+02  0.11497731294E+03  0.47000000000E+01 0. -1.
        -13    1    6    6    0    0 -0.89741199361E+00  0.26129585198E+02 -0.56523027096E+02  0.62276907141E+02  0.00000000000E+00 0.  1.
         14    1    6    6    0    0  0.55113073946E+01  0.15918987989E+02  0.29511828639E+02  0.33981417237E+02  0.00000000000E+00 0. -1.
         -5    1    3    3    0  503  0.96721557457E+01  0.82331202512E+02 -0.43329131577E+03  0.44117505802E+03  0.47000000000E+01 0.  1.
         13    1    4    4    0    0 -0.23426711201E+02 -0.16235828642E+02 -0.22054175079E+03  0.22237598065E+03  0.00000000000E+00 0. -1.
        -14    1    4    4    0    0  0.25457852355E+02 -0.40009680741E+02 -0.71928013896E+02  0.86154024761E+02  0.00000000000E+00 0.  1.
</event>
<event>
12    1  0.8563264E-002  0.2413838E+03  0.7818608E-02  0.1118880E+00
         21   -1    0    0  501  502  0.00000000000E+00  0.00000000000E+00  0.52469839666E+03  0.52469839666E+03  0.00000000000E+00 0.  1.
         21   -1    0    0  502  503 -0.00000000000E+00 -0.00000000000E+00 -0.11245707426E+03  0.11245707426E+03  0.00000000000E+00 0.  1.
         -6    2    1    2    0  503 -0.15874340162E+03  0.60852061722E+02  0.17027379271E+03  0.29539683634E+03  0.17135835393E+03 0.  0.
        -24    2    3    3    0    0 -0.93585890672E+02  0.10189861686E+03  0.14109455685E+03  0.21291145141E+03  0.79258848822E+02 0.  0.
          6    2    1    2  501    0  0.15874340162E+03 -0.60852061722E+02  0.24196752968E+03  0.34175863457E+03  0.17131327418E+03 0.  0.
         24    2    5    5    0    0  0.17699223744E+03 -0.34208968023E+02  0.23771285565E+03  0.30884865582E+03  0.79897339477E+02 0.  0.
          5    1    5    5  501    0 -0.18248835816E+02 -0.26643093699E+02  0.42546740372E+01  0.32909978756E+02  0.47000000000E+01 0. -1.
        -11    1    6    6    0    0  0.12513925145E+03 -0.55725886152E+02  0.19500110099E+03  0.23830785977E+03  0.00000000000E+00 0.  1.
         12    1    6    6    0    0  0.51852985982E+02  0.21516918129E+02  0.42711754657E+02  0.70540796047E+02  0.00000000000E+00 0. -1.
         -5    1    3    3    0  503 -0.65157510949E+02 -0.41046555141E+02  0.29179235858E+02  0.82485384931E+02  0.47000000000E+01 0.  1.
         11    1    4    4    0    0 -0.52132320216E+01  0.15713967928E+02  0.66836770383E+02  0.68856811220E+02  0.00000000000E+00 0. -1.
        -12    1    4    4    0    0 -0.88372658650E+02  0.86184648935E+02  0.74257786472E+02  0.14405464019E+03  0.00000000000E+00 0.  1.
</event>
<event>
12    1  0.8563264E-002  0.1723226E+03  0.7818608E-02  0.1175548E+00
         21   -1    0    0  501  502  0.00000000000E+00  0.00000000000E+00  0.71998100784E+03  0.71998100784E+03  0.00000000000E+00 0. -1.
         21   -1    0    0  502  503 -0.00000000000E+00 -0.00000000000E+00 -0.47012509209E+02  0.47012509209E+02  0.00000000000E+00 0. -1.
         -6    2    1    2    0  503 -0.16398460164E+02  0.62426804557E+01  0.20073203101E+03  0.26429843183E+03  0.17103342434E+03 0.  0.
        -24    2    3    3    0    0 -0.15414730068E+02 -0.19172621727E+02  0.26411637241E+02  0.88069617522E+02  0.80333552279E+02 0.  0.
          6    2    1    2  501    0  0.16398460164E+02 -0.62426804557E+01  0.47223646763E+03  0.50269508522E+03  0.17142691385E+03 0.  0.
         24    2    5    5    0    0  0.64808847168E+02 -0.25037837563E+02  0.39679197538E+03  0.41098475368E+03  0.81470952200E+02 0.  0.
          5    1    5    5  501    0 -0.48410387005E+02  0.18795157107E+02  0.75444492250E+02  0.91710331542E+02  0.47000000000E+01 0. -1.
        -11    1    6    6    0    0 -0.85578137176E+01 -0.14315729733E+02  0.16247811574E+02  0.23284494291E+02  0.00000000000E+00 0.  1.
         12    1    6    6    0    0  0.73366660886E+02 -0.10722107829E+02  0.38054416380E+03  0.38770025939E+03  0.00000000000E+00 0. -1.
         -5    1    3    3    0  503 -0.98373009605E+00  0.25415302183E+02  0.17432039376E+03  0.17622881431E+03  0.47000000000E+01 0.  1.
         11    1    4    4    0    0  0.31558101206E+01 -0.27394671519E+02 -0.22190021234E+02  0.35395256850E+02  0.00000000000E+00 0. -1.
        -12    1    4    4    0    0 -0.18570540188E+02  0.82220497916E+01  0.48601658475E+02  0.52674360672E+02  0.00000000000E+00 0.  1.
</event>
<event>
12    1  0.8563264E-002  0.2536418E+03  0.7818608E-02  0.1112234E+00
         21   -1    0    0  501  502  0.00000000000E+00  0.00000000000E+00  0.15494366396E+03  0.15494366396E+03  0.00000000000E+00 0.  1.
         21   -1    0    0  502  503 -0.00000000000E+00 -0.00000000000E+00 -0.44721009810E+03  0.44721009810E+03  0.00000000000E+00 0. -1.
         -6    2    1    2    0  503  0.43017512265E+02 -0.17385401181E+03 -0.53232894449E+02  0.25916769977E+03  0.17960632441E+03 0.  0.
        -24    2    3    3    0    0 -0.40811106789E+02 -0.53845633369E+02 -0.23161595569E+02  0.10964973668E+03  0.83196794257E+02 0.  0.
          6    2    1    2  501    0 -0.43017512265E+02  0.17385401181E+03 -0.23903353969E+03  0.34298606229E+03  0.16860214129E+03 0.  0.
         24    2    5    5    0    0  0.26959441665E+02  0.41846344145E+02 -0.79094583064E+02  0.12406745127E+03  0.81601785411E+02 0.  0.
          5    1    5    5  501    0 -0.69976953930E+02  0.13200766767E+03 -0.15993895663E+03  0.21891861102E+03  0.47000000000E+01 0. -1.
        -13    1    6    6    0    0  0.44655181302E+02  0.18176538129E+02 -0.81204866642E+02  0.94438880350E+02  0.00000000000E+00 0.  1.
         14    1    6    6    0    0 -0.17695739637E+02  0.23669806016E+02  0.21102835786E+01  0.29628570923E+02  0.00000000000E+00 0. -1.
         -5    1    3    3    0  503  0.83828619055E+02 -0.12000837844E+03 -0.30071298879E+02  0.14951796309E+03  0.47000000000E+01 0.  1.
         13    1    4    4    0    0 -0.29225013761E+02 -0.72269413489E+02 -0.34339371250E+02  0.85183108497E+02  0.00000000000E+00 0. -1.
        -14    1    4    4    0    0 -0.11586093028E+02  0.18423780120E+02  0.11177775681E+02  0.24466628184E+02  0.00000000000E+00 0.  1.
</event>
<event>
12    1  0.8563264E-002  0.1752090E+03  0.7818608E-02  0.1172635E+00
         21   -1    0    0  501  502  0.00000000000E+00  0.00000000000E+00  0.49095211632E+03  0.49095211632E+03  0.00000000000E+00 0.  1.
         21   -1    0    0  502  503 -0.00000000000E+00 -0.00000000000E+00 -0.11440883714E+03  0.11440883714E+03  0.00000000000E+00 0.  1.
         -6    2    1    2    0  503 -0.18977972957E+02 -0.28063789478E+02 -0.15737694383E+02  0.17591438377E+03  0.17190245971E+03 0.  0.
        -24    2    3    3    0    0  0.57569447074E+02 -0.89695710121E+01  0.70913223278E+00  0.95188397883E+02  0.75270404426E+02 0.  0.
          6    2    1    2  501    0  0.18977972957E+02  0.28063789478E+02  0.39228097356E+03  0.42944656968E+03  0.17144169345E+03 0.  0.
         24    2    5    5    0    0 -0.55504135025E+02  0.35646266585E+02  0.19604091886E+03  0.21935771362E+03  0.73036972370E+02 0.  0.
          5    1    5    5  501    0  0.74482107981E+02 -0.75824771071E+01  0.19624005470E+03  0.21008885606E+03  0.47000000000E+01 0. -1.
        -13    1    6    6    0    0 -0.22463000146E+02  0.50988238506E+01  0.16015224633E+03  0.16180026695E+03  0.00000000000E+00 0.  1.
         14    1    6    6    0    0 -0.33041134879E+02  0.30547442735E+02  0.35888672526E+02  0.57557446672E+02  0.00000000000E+00 0. -1.
         -5    1    3    3    0  503 -0.76547420030E+02 -0.19094218466E+02 -0.16446826615E+02  0.80725985890E+02  0.47000000000E+01 0.  1.
         11    1    4    4    0    0  0.11726586627E+02  0.14144398681E+02  0.30664902121E+02  0.35747910010E+02  0.00000000000E+00 0. -1.
        -12    1    4    4    0    0  0.45842860446E+02 -0.23113969693E+02 -0.29955769889E+02  0.59440487872E+02  0.00000000000E+00 0.  1.
</event>
<event>
12    1  0.8563264E-002  0.2396955E+03  0.7818608E-02  0.1120173E+00
         21   -1    0    0  503  502  0.00000000000E+00  0.00000000000E+00  0.51000879122E+02  0.51000879122E+02  0.00000000000E+00 0. -1.
         21   -1    0    0  501  503 -0.00000000000E+00 -0.00000000000E+00 -0.12761989247E+04  0.12761989247E+04  0.00000000000E+00 0. -1.
          6    2    1    2  501    0 -0.12009202451E+03  0.11563016187E+03 -0.84478890501E+03  0.87813566520E+03  0.17222521238E+03 0.  0.
         24    2    3    3    0    0 -0.53784308066E+01  0.92846419263E+02 -0.47474458876E+03  0.49002074215E+03  0.78028956734E+02 0.  0.
         -6    2    1    2    0  502  0.12009202451E+03 -0.11563016187E+03 -0.38040914062E+03  0.44906413867E+03  0.17074852179E+03 0.  0.
        -24    2    5    5    0    0  0.83566201363E+02 -0.10044468389E+03 -0.15044045109E+03  0.21567085972E+03  0.82517548900E+02 0.  0.
          5    1    3    3  501    0 -0.11471359370E+03  0.22783742610E+02 -0.37004431624E+03  0.38811492305E+03  0.47000000000E+01 0. -1.
        -13    1    4    4    0    0  0.39756790842E+01  0.51304690204E+01 -0.22607623415E+03  0.22616938649E+03  0.00000000000E+00 0.  1.
         14    1    4    4    0    0 -0.93541098908E+01  0.87715950242E+02 -0.24866835461E+03  0.26385135566E+03  0.00000000000E+00 0. -1.
         -5    1    5    5    0  502  0.36525823143E+02 -0.15185477984E+02 -0.22996868953E+03  0.23339327895E+03  0.47000000000E+01 0.  1.
         13    1    6    6    0    0  0.97368591110E+02 -0.66700729549E+02 -0.11246048504E+03  0.16302450906E+03  0.00000000000E+00 0. -1.
        -14    1    6    6    0    0 -0.13802389747E+02 -0.33743954340E+02 -0.37979966047E+02  0.52646350663E+02  0.00000000000E+00 0.  1.
</event>
<event>
12    1  0.8563264E-002  0.1791500E+03  0.7818608E-02  0.1173311E+00
         21   -1    0    0  503  502  0.00000000000E+00  0.00000000000E+00  0.37207841277E+03  0.37207841277E+03  0.00000000000E+00 0. -1.
         21   -1    0    0  501  503 -0.00000000000E+00 -0.00000000000E+00 -0.92864969211E+02  0.92864969211E+02  0.00000000000E+00 0. -1.
          6    2    1    2  501    0 -0.43139305354E+02 -0.20180189550E+02  0.39634664756E+02  0.16579008069E+03  0.15377647573E+03 0.  0.
         24    2    3    3    0    0 -0.76135902162E+02  0.13145180356E+02  0.20929832360E+02  0.11508193109E+03  0.82682051358E+02 0.  0.
         -6    2    1    2    0  502  0.43139305354E+02  0.20180189550E+02  0.23957877880E+03  0.29915330129E+03  0.17270340676E+03 0.  0.
        -24    2    5    5    0    0  0.76453220732E+02  0.24208275933E+01  0.84144775526E+02  0.13913133009E+03  0.80163759869E+02 0.  0.
          5    1    3    3  501    0  0.32996596808E+02 -0.33325369905E+02  0.18704832396E+02  0.50708149594E+02  0.47000000000E+01 0. -1.
        -11    1    4    4    0    0 -0.23553693600E+02 -0.33532074927E+02  0.17868647450E+02  0.44704195472E+02  0.00000000000E+00 0.  1.
         12    1    4    4    0    0 -0.52582208563E+02  0.46677255283E+02  0.30611849098E+01  0.70377735621E+02  0.00000000000E+00 0. -1.
         -5    1    5    5    0  502 -0.33313915378E+02  0.17759361956E+02  0.15543400328E+03  0.16002197121E+03  0.47000000000E+01 0.  1.
         13    1    6    6    0    0  0.43819117465E+02 -0.33352447481E+02  0.19621610895E+02  0.58459459649E+02  0.00000000000E+00 0. -1.
        -14    1    6    6    0    0  0.32634103268E+02  0.35773275074E+02  0.64523164631E+02  0.80671870436E+02  0.00000000000E+00 0.  1.
</event>
<event>
12    1  0.8563264E-002  0.1858380E+03  0.7818608E-02  0.1162319E+00
         21   -1    0    0  501  502  0.00000000000E+00  0.00000000000E+00  0.11362252328E+03  0.11362252328E+03  0.00000000000E+00 0.  1.
         21   -1    0    0  502  503 -0.00000000000E+00 -0.00000000000E+00 -0.73084487455E+03  0.73084487455E+03  0.00000000000E+00 0.  1.
         -6    2    1    2    0  503  0.63716873925E+02  0.28486469070E+02 -0.63151480033E+03  0.65829073678E+03  0.17223365569E+03 0.  0.
        -24    2    3    3    0    0  0.74815089115E+01 -0.91938694613E+01 -0.13925088341E+03  0.16137215382E+03  0.80682484387E+02 0.  0.
          6    2    1    2  501    0 -0.63716873925E+02 -0.28486469070E+02  0.14292449062E+02  0.18617666105E+03  0.17200626755E+03 0.  0.
         24    2    5    5    0    0  0.14911127924E+02 -0.46836110423E+02  0.24433193886E+02  0.10466594570E+03  0.89117990604E+02 0.  0.
          5    1    5    5  501    0 -0.78628001849E+02  0.18349641353E+02 -0.10140744824E+02  0.81510715358E+02  0.47000000000E+01 0. -1.
        -13    1    6    6    0    0 -0.23916722964E+02 -0.36625049525E+02 -0.17039175242E+02  0.46943981328E+02  0.00000000000E+00 0.  1.
         14    1    6    6    0    0  0.38827850888E+02 -0.10211060898E+02  0.41472369128E+02  0.57721964367E+02  0.00000000000E+00 0. -1.
         -5    1    3    3    0  503  0.56235365014E+02  0.37680338531E+02 -0.49226391691E+03  0.49691858295E+03  0.47000000000E+01 0.  1.
         11    1    4    4    0    0  0.37783748438E+01 -0.20230738923E+02 -0.14631476649E+03  0.14775510078E+03  0.00000000000E+00 0. -1.
        -12    1    4    4    0    0  0.37031340677E+01  0.11036869462E+02  0.70638830765E+01  0.13617053042E+02  0.00000000000E+00 0.  1.
</event>
<event>
12    1  0.8563264E-002  0.2911009E+03  0.7818608E-02  0.1089803E+00
         21   -1    0    0  503  502  0.00000000000E+00  0.00000000000E+00  0.11076536321E+04  0.11076536321E+04  0.00000000000E+00 0.  1.
         21   -1    0    0  501  503 -0.00000000000E+00 -0.00000000000E+00 -0.77891983086E+02  0.77891983086E+02  0.00000000000E+00 0. -1.
          6    2    1    2  501    0 -0.23490554341E+03 -0.82100102716E+00  0.43399403099E+03  0.52246281195E+03  0.17156713719E+03 0.  0.
         24    2    3    3    0    0 -0.16502990466E+03  0.59114389084E+02  0.24248182641E+03  0.30992135627E+03  0.80773946927E+02 0.  0.
         -6    2    1    2    0  502  0.23490554341E+03  0.82100102716E+00  0.59576761799E+03  0.66308280321E+03  0.17192574238E+03 0.  0.
        -24    2    5    5    0    0  0.20133094166E+03 -0.54028743487E+02  0.50184667754E+03  0.54915747060E+03  0.79187035276E+02 0.  0.
          5    1    3    3  501    0 -0.69875638749E+02 -0.59935390111E+02  0.19151220459E+03  0.21254145568E+03  0.47000000000E+01 0. -1.
        -13    1    4    4    0    0 -0.65423917097E+02 -0.14263918587E+02  0.10899139496E+03  0.12791744399E+03  0.00000000000E+00 0.  1.
         14    1    4    4    0    0 -0.99605987568E+02  0.73378307671E+02  0.13349043145E+03  0.18200391228E+03  0.00000000000E+00 0. -1.
         -5    1    5    5    0  502  0.33574601752E+02  0.54849744514E+02  0.93920940448E+02  0.11392533261E+03  0.47000000000E+01 0.  1.
         13    1    6    6    0    0  0.86500454082E+02 -0.62026478099E+02  0.21011107769E+03  0.23553402623E+03  0.00000000000E+00 0. -1.
        -14    1    6    6    0    0  0.11483048758E+03  0.79977346117E+01  0.29173559985E+03  0.31362344437E+03  0.00000000000E+00 0.  1.
</event>
<event>
12    1  0.8563264E-002  0.2732975E+03  0.7818608E-02  0.1099561E+00
         21   -1    0    0  501  502  0.00000000000E+00  0.00000000000E+00  0.46908456328E+03  0.46908456328E+03  0.00000000000E+00 0. -1.
         21   -1    0    0  502  503 -0.00000000000E+00 -0.00000000000E+00 -0.21908361978E+03  0.21908361978E+03  0.00000000000E+00 0.  1.
         -6    2    1    2    0  503 -0.21039955730E+03 -0.13010842195E+02  0.30561838883E+03  0.40926884366E+03  0.17222407227E+03 0.  0.
        -24    2    3    3    0    0 -0.21583096205E+03 -0.22416067208E+02  0.20810949665E+03  0.31104444511E+03  0.79709472379E+02 0.  0.
          6    2    1    2  501    0  0.21039955730E+03  0.13010842195E+02 -0.55617445329E+02  0.27889933941E+03  0.17393759103E+03 0.  0.
         24    2    5    5    0    0  0.19193119515E+03 -0.44016358393E+02 -0.48506471822E+02  0.21835317560E+03  0.80933355357E+02 0.  0.
          5    1    5    5  501    0  0.18468362147E+02  0.57027200588E+02 -0.71109735064E+01  0.60546163805E+02  0.47000000000E+01 0. -1.
        -13    1    6    6    0    0  0.37429122200E+02  0.20130904157E+02  0.48155758203E+01  0.42771278462E+02  0.00000000000E+00 0.  1.
         14    1    6    6    0    0  0.15450207295E+03 -0.64147262551E+02 -0.53322047643E+02  0.17558189714E+03  0.00000000000E+00 0. -1.
         -5    1    3    3    0  503  0.54314047557E+01  0.94052250133E+01  0.97508892188E+02  0.98224398552E+02  0.47000000000E+01 0.  1.
         13    1    4    4    0    0 -0.81119802069E+02 -0.27704054961E+02  0.12853583195E+03  0.15449723960E+03  0.00000000000E+00 0. -1.
        -14    1    4    4    0    0 -0.13471115998E+03  0.52879877528E+01  0.79573664699E+02  0.15654720551E+03  0.00000000000E+00 0.  1.
</event>
<event>
12    1  0.8563264E-002  0.2105404E+03  0.7818608E-02  0.1141298E+00
         21   -1    0    0  501  502  0.00000000000E+00  0.00000000000E+00  0.12309009437E+04  0.12309009437E+04  0.00000000000E+00 0. -1.
         21   -1    0    0  502  503 -0.00000000000E+00 -0.00000000000E+00 -0.72954926305E+02  0.72954926305E+02  0.00000000000E+00 0. -1.
         -6    2    1    2    0  503 -0.65619722888E+02 -0.10109785324E+03  0.11364577425E+03  0.23854357837E+03  0.17164193198E+03 0.  0.
        -24    2    3    3    0    0 -0.38907388796E+02 -0.13040993103E+03  0.54985955309E+02  0.16758012964E+03  0.80864760907E+02 0.  0.
          6    2    1    2  501    0  0.65619722888E+02  0.10109785324E+03  0.10443002432E+04  0.10653122917E+04  0.17262837806E+03 0.  0.
         24    2    5    5    0    0 -0.60875959896E+01  0.10545520656E+03  0.55381406009E+03  0.56957071391E+03  0.80888352582E+02 0.  0.
          5    1    5    5  501    0  0.71707318877E+02 -0.43573533173E+01  0.49048618308E+03  0.49574157774E+03  0.47000000000E+01 0. -1.
        -11    1    6    6    0    0  0.31172522923E+01 -0.45025322218E+00 -0.19677346340E+01  0.37137540855E+01  0.00000000000E+00 0.  1.
         12    1    6    6    0    0 -0.92048482819E+01  0.10590545978E+03  0.55578179472E+03  0.56585695983E+03  0.00000000000E+00 0. -1.
         -5    1    3    3    0  503 -0.26712334092E+02  0.29312077788E+02  0.58659818937E+02  0.70963448723E+02  0.47000000000E+01 0.  1.
         13    1    4    4    0    0 -0.39179840004E+02 -0.12647754103E+03  0.71585159407E+02  0.15051931204E+03  0.00000000000E+00 0. -1.
        -14    1    4    4    0    0  0.27245120808E+00 -0.39323899957E+01 -0.16599204099E+02  0.17060817608E+02  0.00000000000E+00 0.  1.
</event>
<event>
12    1  0.8563264E-002  0.1743366E+03  0.7818608E-02  0.1173756E+00
         21   -1    0    0  503  502  0.00000000000E+00  0.00000000000E+00  0.52590301709E+02  0.52590301709E+02  0.00000000000E+00 0.  1.
         21   -1    0    0  501  503 -0.00000000000E+00 -0.00000000000E+00 -0.59364113496E+03  0.59364113496E+03  0.00000000000E+00 0.  1.
          6    2    1    2  501    0  0.43189073990E+01  0.97659562924E+01 -0.32932842062E+03  0.37196946215E+03  0.17259792954E+03 0.  0.
         24    2    3    3    0    0  0.26901675352E+01  0.62230637125E+02 -0.28623098564E+03  0.30389101894E+03  0.80880684060E+02 0.  0.
         -6    2    1    2    0  502 -0.43189073990E+01 -0.97659562924E+01 -0.21172241263E+03  0.27426197451E+03  0.17400926352E+03 0.  0.
        -24    2    5    5    0    0  0.43908115657E+02 -0.31836965429E+02 -0.19632137233E+03  0.21883402814E+03  0.80029592329E+02 0.  0.
          5    1    3    3  501    0  0.16287398639E+01 -0.52464680833E+02 -0.43097434984E+02  0.68078443216E+02  0.47000000000E+01 0. -1.
        -13    1    4    4    0    0 -0.38717993594E+02  0.23029950722E+02 -0.12365341200E+03  0.13160405753E+03  0.00000000000E+00 0.  1.
         14    1    4    4    0    0  0.41408161129E+02  0.39200686404E+02 -0.16257757364E+03  0.17228696141E+03  0.00000000000E+00 0. -1.
         -5    1    5    5    0  502 -0.48227023056E+02  0.22071009137E+02 -0.15401040296E+02  0.55427946375E+02  0.47000000000E+01 0.  1.
         13    1    6    6    0    0 -0.14475750998E+02 -0.19526898554E+02 -0.11743139201E+03  0.11992071949E+03  0.00000000000E+00 0. -1.
        -14    1    6    6    0    0  0.58383866655E+02 -0.12310066875E+02 -0.78889980323E+02  0.98913308647E+02  0.00000000000E+00 0.  1.
</event>
<event>
12    1  0.8563264E-002  0.1941582E+03  0.7818608E-02  0.1154878E+00
         21   -1    0    0  501  502  0.00000000000E+00  0.00000000000E+00  0.25524263122E+02  0.25524263122E+02  0.00000000000E+00 0. -1.
         21   -1    0    0  502  503 -0.00000000000E+00 -0.00000000000E+00 -0.19655283426E+04  0.19655283426E+04  0.00000000000E+00 0. -1.
         -6    2    1    2    0  503 -0.76270133355E+02  0.41972768908E+02 -0.14673878418E+04  0.14801088593E+04  0.17296332198E+03 0.  0.
        -24    2    3    3    0    0  0.29710855195E+01 -0.29312236894E+02 -0.60636868731E+03  0.61250480381E+03  0.81308764361E+02 0.  0.
          6    2    1    2  501    0  0.76270133355E+02 -0.41972768908E+02 -0.47261623768E+03  0.51094374635E+03  0.17354698859E+03 0.  0.
         24    2    5    5    0    0  0.37894997116E+02 -0.55209625370E+02 -0.45415654006E+03  0.46610273960E+03  0.80681270717E+02 0.  0.
          5    1    5    5  501    0  0.38375136239E+02  0.13236856463E+02 -0.18459697620E+02  0.44841006753E+02  0.47000000000E+01 0. -1.
        -13    1    6    6    0    0  0.28956320017E+02 -0.54689767212E+02 -0.15619782458E+03  0.16800952209E+03  0.00000000000E+00 0.  1.
         14    1    6    6    0    0  0.89386770989E+01 -0.51985815819E+00 -0.29795871547E+03  0.29809321751E+03  0.00000000000E+00 0. -1.
         -5    1    3    3    0  503 -0.79241218874E+02  0.71285005801E+02 -0.86101915445E+03  0.86760405552E+03  0.47000000000E+01 0.  1.
         11    1    4    4    0    0  0.10726213320E+02 -0.29889065421E+02 -0.60331505554E+03  0.60415019997E+03  0.00000000000E+00 0. -1.
        -12    1    4    4    0    0 -0.77551278000E+01  0.57682852715E+00 -0.30536317692E+01  0.83546038402E+01  0.00000000000E+00 0.  1.
</event>
<event>
12    1  0.8563264E-002  0.1956535E+03  0.7818608E-02  0.1153572E+00
         21   -1    0    0  503  502  0.00000000000E+00  0.00000000000E+00  0.30178964165E+04  0.30178964165E+04  0.00000000000E+00 0. -1.
         21   -1    0    0  501  503 -0.00000000000E+00 -0.00000000000E+00 -0.16448523464E+02  0.16448523464E+02  0.00000000000E+00 0.  1.
          6    2    1    2  501    0 -0.70727801020E+02  0.61164135725E+02  0.77016681121E+03  0.79450219056E+03  0.17126978829E+03 0.  0.
         24    2    3    3    0    0 -0.75946687708E+02  0.98947819799E+02  0.50548994424E+03  0.52704980701E+03  0.81870903984E+02 0.  0.
         -6    2    1    2    0  502  0.70727801020E+02 -0.61164135725E+02  0.22312810819E+04  0.22398427494E+04  0.17186274350E+03 0.  0.
        -24    2    5    5    0    0  0.68926671432E+02 -0.59256417687E+02  0.22311518432E+04  0.22344584985E+04  0.80647533760E+02 0.  0.
          5    1    3    3  501    0  0.52188866883E+01 -0.37783684075E+02  0.26467686697E+03  0.26745238355E+03  0.47000000000E+01 0. -1.
        -11    1    4    4    0    0 -0.32955970563E+02  0.21279382956E+00  0.57277916709E+02  0.66082531878E+02  0.00000000000E+00 0.  1.
         12    1    4    4    0    0 -0.42990717145E+02  0.98735025970E+02  0.44821202753E+03  0.46096727513E+03  0.00000000000E+00 0. -1.
         -5    1    5    5    0  502  0.18011295880E+01 -0.19077180376E+01  0.12923862063E+00  0.53842509716E+01  0.47000000000E+01 0.  1.
         13    1    6    6    0    0  0.44493907460E+02 -0.34648978718E+02  0.19927584639E+04  0.19935562583E+04  0.00000000000E+00 0. -1.
        -14    1    6    6    0    0  0.24432763972E+02 -0.24607438970E+02  0.23839337933E+03  0.24090224016E+03  0.00000000000E+00 0.  1.
</event>
<event>
12    1  0.8563264E-002  0.2145912E+03  0.7818608E-02  0.1138155E+00
         21   -1    0    0  501  502  0.00000000000E+00  0.00000000000E+00  0.30655171876E+02  0.30655171876E+02  0.00000000000E+00 0. -1.
         21   -1    0    0  502  503 -0.00000000000E+00 -0.00000000000E+00 -0.18741796637E+04  0.18741796637E+04  0.00000000000E+00 0. -1.
         -6    2    1    2    0  503 -0.97808253519E+02  0.83276049103E+02 -0.13481128743E+04  0.13649440559E+04  0.17077060345E+03 0.  0.
        -24    2    3    3    0    0 -0.23334182533E+02 -0.72573909399E+01 -0.80030473497E+03  0.80471326546E+03  0.80489856439E+02 0.  0.
          6    2    1    2  501    0  0.97808253519E+02 -0.83276049103E+02 -0.49541161753E+03  0.53989077971E+03  0.17189539965E+03 0.  0.
         24    2    5    5    0    0  0.45126856474E+02 -0.11872469539E+03 -0.31665187550E+03  0.35013021613E+03  0.78681456006E+02 0.  0.
          5    1    5    5  501    0  0.52681397045E+02  0.35448646289E+02 -0.17875974203E+03  0.18976056358E+03  0.47000000000E+01 0. -1.
        -13    1    6    6    0    0 -0.16235532347E+02 -0.20483864127E+02 -0.11164520680E+03  0.11466400220E+03  0.00000000000E+00 0.  1.
         14    1    6    6    0    0  0.61362388821E+02 -0.98240831265E+02 -0.20500666870E+03  0.23546621393E+03  0.00000000000E+00 0. -1.
         -5    1    3    3    0  503 -0.74474070986E+02  0.90533440043E+02 -0.54780813931E+03  0.56023079040E+03  0.47000000000E+01 0.  1.
         13    1    4    4    0    0 -0.49299633724E+02  0.14113866927E+01 -0.33579181382E+03  0.33939444327E+03  0.00000000000E+00 0. -1.
        -14    1    4    4    0    0  0.25965451191E+02 -0.86687776326E+01 -0.46451292116E+03  0.46531882219E+03  0.00000000000E+00 0.  1.
</event>
<event>
12    1  0.8563264E-002  0.1900920E+03  0.7818608E-02  0.1158436E+00
         21   -1    0    0  503  502  0.00000000000E+00  0.00000000000E+00  0.53473513789E+02  0.53473513789E+02  0.00000000000E+00 0.  1.
         21   -1    0    0  501  503 -0.00000000000E+00 -0.00000000000E+00 -0.12520473390E+04  0.12520473390E+04  0.00000000000E+00 0.  1.
          6    2    1    2  501    0 -0.39822929105E+02 -0.70482006290E+02 -0.10427161140E+04  0.10599018154E+04  0.17199239794E+03 0.  0.
         24    2    3    3    0    0 -0.67699025679E+02 -0.64728793950E+02 -0.45403107622E+03  0.47051031567E+03  0.80391318807E+02 0.  0.
         -6    2    1    2    0  502  0.39822929105E+02  0.70482006290E+02 -0.15585771123E+03  0.24561903743E+03  0.17170761924E+03 0.  0.
        -24    2    5    5    0    0  0.30285922546E+02  0.31227453491E+02 -0.17769646517E+03  0.19945741285E+03  0.79465935168E+02 0.  0.
          5    1    3    3  501    0  0.27876096575E+02 -0.57532123400E+01 -0.58868503782E+03  0.58939149973E+03  0.47000000000E+01 0. -1.
        -11    1    4    4    0    0 -0.19522556350E+02  0.12333333932E+02 -0.18737056892E+03  0.18878816549E+03  0.00000000000E+00 0.  1.
         12    1    4    4    0    0 -0.48176469330E+02 -0.77062127882E+02 -0.26666050730E+03  0.28172215018E+03  0.00000000000E+00 0. -1.
         -5    1    5    5    0  502  0.95370065586E+01  0.39254552799E+02  0.21838753945E+02  0.46161624575E+02  0.47000000000E+01 0.  1.
         13    1    6    6    0    0 -0.15838328959E+01 -0.23838623371E+02 -0.28038111684E+02  0.36836452024E+02  0.00000000000E+00 0. -1.
        -14    1    6    6    0    0  0.31869755442E+02  0.55066076862E+02 -0.14965835349E+03  0.16262096083E+03  0.00000000000E+00 0.  1.
</event>
<event>
12    1  0.8563264E-002  0.1788710E+03  0.7818608E-02  0.1169338E+00
         21   -1    0    0  501  502  0.00000000000E+00  0.00000000000E+00  0.15646621615E+03  0.15646621615E+03  0.00000000000E+00 0.  1.
         21   -1    0    0  502  503 -0.00000000000E+00 -0.00000000000E+00 -0.24027016697E+03  0.24027016697E+03  0.00000000000E+00 0.  1.
         -6    2    1    2    0  503 -0.26046411948E+02 -0.34391510615E+02 -0.12042680109E+03  0.21415466134E+03  0.17175102029E+03 0.  0.
        -24    2    3    3    0    0 -0.36201359312E+02  0.25186113385E+02 -0.99748614832E+01  0.88161259916E+02  0.75683757603E+02 0.  0.
          6    2    1    2  501    0  0.26046411948E+02  0.34391510615E+02  0.36622850277E+02  0.18258172179E+03  0.17359049626E+03 0.  0.
         24    2    5    5    0    0  0.24461432971E+02 -0.15536591825E+02  0.81925346667E+02  0.11498191594E+03  0.75294961176E+02 0.  0.
          5    1    5    5  501    0  0.15849789771E+01  0.49928102439E+02 -0.45302496390E+02  0.67599805848E+02  0.47000000000E+01 0. -1.
        -13    1    6    6    0    0  0.31558461954E+02  0.66504158374E+01  0.85531425068E+02  0.91410006158E+02  0.00000000000E+00 0.  1.
         14    1    6    6    0    0 -0.70970289829E+01 -0.22187007662E+02 -0.36060784010E+01  0.23571909783E+02  0.00000000000E+00 0. -1.
         -5    1    3    3    0  503  0.10154947364E+02 -0.59577624000E+02 -0.11045193961E+03  0.12599340142E+03  0.47000000000E+01 0.  1.
         13    1    4    4    0    0 -0.13343041227E+02  0.19749128092E+02  0.32093725831E+02  0.39975893327E+02  0.00000000000E+00 0. -1.
        -14    1    4    4    0    0 -0.22858318086E+02  0.54369852928E+01 -0.42068587314E+02  0.48185366590E+02  0.00000000000E+00 0.  1.
</event>
<event>
12    1  0.8563264E-002  0.2191776E+03  0.7818608E-02  0.1134821E+00
         21   -1    0    0  501  502  0.00000000000E+00  0.00000000000E+00  0.12831656480E+03  0.12831656480E+03  0.00000000000E+00 0. -1.
         21   -1    0    0  502  503 -0.00000000000E+00 -0.00000000000E+00 -0.41320246208E+03  0.41320246208E+03  0.00000000000E+00 0. -1.
         -6    2    1    2    0  503 -0.87465592051E+02 -0.10267100336E+03 -0.22902208987E+03  0.31700149164E+03  0.17276360534E+03 0.  0.
        -24    2    3    3    0    0 -0.12406669503E+03 -0.86359730159E+02 -0.21392439526E+03  0.27392332135E+03  0.80123600049E+02 0.  0.
          6    2    1    2  501    0  0.87465592051E+02  0.10267100336E+03 -0.55863807415E+02  0.22451753524E+03  0.17057489243E+03 0.  0.
         24    2    5    5    0    0  0.59866787432E+02  0.12530130514E+03 -0.81903482835E+02  0.18008804873E+03  0.80243850163E+02 0.  0.
          5    1    5    5  501    0  0.27598804618E+02 -0.22630301781E+02  0.26039675420E+02  0.44429486504E+02  0.47000000000E+01 0. -1.
        -11    1    6    6    0    0 -0.15231992038E+02  0.41140090311E+02 -0.63507238982E+01  0.44326654581E+02  0.00000000000E+00 0.  1.
         12    1    6    6    0    0  0.75098779471E+02  0.84161214825E+02 -0.75552758937E+02  0.13576139415E+03  0.00000000000E+00 0. -1.
         -5    1    3    3    0  503  0.36601102979E+02 -0.16311273197E+02 -0.15097694605E+02  0.43078170284E+02  0.47000000000E+01 0.  1.
         11    1    4    4    0    0 -0.80496814661E+02 -0.44938067905E+02 -0.18609123416E+03  0.20767550300E+03  0.00000000000E+00 0. -1.
        -12    1    4    4    0    0 -0.43569880369E+02 -0.41421662253E+02 -0.27833161106E+02  0.66247818352E+02  0.00000000000E+00 0.  1.
</event>
<event>
12    1  0.8563264E-002  0.2290649E+03  0.7818608E-02  0.1127673E+00
         21   -1    0    0  503  502  0.00000000000E+00  0.00000000000E+00  0.20699298744E+04  0.20699298744E+04  0.00000000000E+00 0.  1.
         21   -1    0    0  501  503 -0.00000000000E+00 -0.00000000000E+00 -0.30817679045E+02  0.30817679045E+02  0.00000000000E+00 0. -1.
          6    2    1    2  501    0  0.91947389962E+02 -0.11349187012E+03  0.56399078389E+03  0.60794686769E+03  0.17372122067E+03 0.  0.
         24    2    3    3    0    0  0.11182047552E+03 -0.13110049761E+03  0.53891234409E+03  0.57112267137E+03  0.77868041738E+02 0.  0.
         -6    2    1    2    0  502 -0.91947389962E+02  0.11349187012E+03  0.14751214115E+04  0.14928006857E+04  0.17645390823E+03 0.  0.
        -24    2    5    5    0    0 -0.69125760641E+02  0.15157466080E+03  0.11803834015E+04  0.11947005176E+04  0.79063921875E+02 0.  0.
          5    1    3    3  501    0 -0.19873085557E+02  0.17608627485E+02  0.25078439803E+02  0.36824196317E+02  0.47000000000E+01 0. -1.
        -11    1    4    4    0    0  0.44414688124E+02 -0.33515163159E+01  0.13530802652E+03  0.14245055010E+03  0.00000000000E+00 0.  1.
         12    1    4    4    0    0  0.67405787395E+02 -0.12774898129E+03  0.40360431756E+03  0.42867212127E+03  0.00000000000E+00 0. -1.
         -5    1    5    5    0  502 -0.22821629321E+02 -0.38082790678E+02  0.29473800998E+03  0.29810016813E+03  0.47000000000E+01 0.  1.
         11    1    6    6    0    0 -0.59736087637E+02  0.12070048641E+03  0.67591743410E+03  0.68920344261E+03  0.00000000000E+00 0. -1.
        -12    1    6    6    0    0 -0.93896730038E+01  0.30874174392E+02  0.50446596737E+03  0.50549707501E+03  0.00000000000E+00 0.  1.
</event>
<event>
12    1  0.8563264E-002  0.2776068E+03  0.7818608E-02  0.1097256E+00
         21   -1    0    0  501  502  0.00000000000E+00  0.00000000000E+00  0.16416963426E+03  0.16416963426E+03  0.00000000000E+00 0. -1.
         21   -1    0    0  502  503 -0.00000000000E+00 -0.00000000000E+00 -0.10536160069E+04  0.10536160069E+04  0.00000000000E+00 0. -1.
         -6    2    1    2    0  503 -0.21630682409E+03 -0.33857915391E+02 -0.89866148864E+03  0.94002595737E+03  0.16769415251E+03 0.  0.
        -24    2    3    3    0    0 -0.85506800995E+02 -0.71413752530E+02 -0.51464952142E+03  0.53258716698E+03  0.79834976494E+02 0.  0.
          6    2    1    2  501    0  0.21630682409E+03  0.33857915391E+02  0.92151159590E+01  0.27775968382E+03  0.17067666218E+03 0.  0.
         24    2    5    5    0    0  0.19084980924E+03  0.44277140334E+02  0.59784002536E+02  0.22000224151E+03  0.80266708321E+02 0.  0.
          5    1    5    5  501    0  0.25457014846E+02 -0.10419224943E+02 -0.50568886577E+02  0.57757442317E+02  0.47000000000E+01 0. -1.
        -11    1    6    6    0    0  0.24928223711E+02  0.36283428159E+02  0.23769660520E+02  0.50028994169E+02  0.00000000000E+00 0.  1.
         12    1    6    6    0    0  0.16592158553E+03  0.79937121749E+01  0.36014342016E+02  0.16997324734E+03  0.00000000000E+00 0. -1.
         -5    1    3    3    0  503 -0.13080002309E+03  0.37555837139E+02 -0.38401196722E+03  0.40743879038E+03  0.47000000000E+01 0.  1.
         13    1    4    4    0    0 -0.62595524865E+02 -0.77032348289E+02 -0.48311108864E+03  0.49320229762E+03  0.00000000000E+00 0. -1.
        -14    1    4    4    0    0 -0.22911276131E+02  0.56185957589E+01 -0.31538432782E+02  0.39384869361E+02  0.00000000000E+00 0.  1.
</event>
<event>
12    1  0.8563264E-002  0.1825218E+03  0.7818608E-02  0.1165485E+00
         21   -1    0    0  503  502  0.00000000000E+00  0.00000000000E+00  0.12738348028E+04  0.12738348028E+04  0.00000000000E+00 0.  1.
         21   -1    0    0  501  503 -0.00000000000E+00 -0.00000000000E+00 -0.26263532419E+02  0.26263532419E+02  0.00000000000E+00 0.  1.
          6    2    1    2  501    0 -0.59719687265E+02  0.53000320970E+01  0.67701210279E+03  0.70118441191E+03  0.17239391172E+03 0.  0.
         24    2    3    3    0    0 -0.23813341460E+02 -0.62423113700E+02  0.33737021512E+03  0.35296839848E+03  0.79399672074E+02 0.  0.
         -6    2    1    2    0  502  0.59719687265E+02 -0.53000320970E+01  0.57055916760E+03  0.59891392332E+03  0.17194648127E+03 0.  0.
        -24    2    5    5    0    0  0.73426964560E+02 -0.56790747704E+02  0.32058136116E+03  0.34327711659E+03  0.80312274880E+02 0.  0.
          5    1    3    3  501    0 -0.35906345805E+02  0.67723145797E+02  0.33964188767E+03  0.34821601343E+03  0.47000000000E+01 0. -1.
        -11    1    4    4    0    0 -0.12913462907E+02  0.14371865372E+02  0.27974778260E+02  0.33998474337E+02  0.00000000000E+00 0.  1.
         12    1    4    4    0    0 -0.10899878553E+02 -0.76794979072E+02  0.30939543686E+03  0.31896992415E+03  0.00000000000E+00 0. -1.
         -5    1    5    5    0  502 -0.13707277295E+02  0.51490715607E+02  0.24997780644E+03  0.25563680673E+03  0.47000000000E+01 0.  1.
         13    1    6    6    0    0 -0.11806118599E+02  0.27781911240E+01  0.83733698047E+02  0.84607534953E+02  0.00000000000E+00 0. -1.
        -14    1    6    6    0    0  0.85233083158E+02 -0.59568938828E+02  0.23684766312E+03  0.25866958163E+03  0.00000000000E+00 0.  1.
</event>
<event>
12    1  0.8563264E-002  0.2109197E+03  0.7818608E-02  0.1141319E+00
         21   -1    0    0  503  502  0.00000000000E+00  0.00000000000E+00  0.43695746796E+03  0.43695746796E+03  0.00000000000E+00 0.  1.
         21   -1    0    0  501  503 -0.00000000000E+00 -0.00000000000E+00 -0.11465740902E+03  0.11465740902E+03  0.00000000000E+00 0.  1.
          6    2    1    2  501    0 -0.20900863230E+02  0.11602721743E+03  0.25674912581E+03  0.33074372857E+03  0.17196551722E+03 0.  0.
         24    2    3    3    0    0  0.53551263833E+02  0.34815394816E+02  0.89905200237E+02  0.13075006652E+03  0.70233790242E+02 0.  0.
         -6    2    1    2    0  502  0.20900863230E+02 -0.11602721743E+03  0.65550933131E+02  0.22087114841E+03  0.17489419115E+03 0.  0.
        -24    2    5    5    0    0 -0.33445148954E+02 -0.42670869290E+02 -0.16914061535E+02  0.97756534342E+02  0.79566786126E+02 0.  0.
          5    1    3    3  501    0 -0.74452127063E+02  0.81211822614E+02  0.16684392557E+03  0.19999366204E+03  0.47000000000E+01 0. -1.
        -11    1    4    4    0    0  0.40680797200E+02  0.30260589436E+02  0.10109573922E+03  0.11309721049E+03  0.00000000000E+00 0.  1.
         12    1    4    4    0    0  0.12870466633E+02  0.45548053801E+01 -0.11190538978E+02  0.17652856030E+02  0.00000000000E+00 0. -1.
         -5    1    5    5    0  502  0.54346012184E+02 -0.73356348140E+02  0.82464994667E+02  0.12311461407E+03  0.47000000000E+01 0.  1.
         11    1    6    6    0    0  0.26228354442E+02 -0.11636664830E+02 -0.87702362579E+01  0.30004259516E+02  0.00000000000E+00 0. -1.
        -12    1    6    6    0    0 -0.59673503396E+02 -0.31034204459E+02 -0.81438252775E+01  0.67752274826E+02  0.00000000000E+00 0.  1.
</event>
<event>
12    1  0.8563264E-002  0.1759004E+03  0.7818608E-02  0.1171972E+00
         21   -1    0    0  503  502  0.00000000000E+00  0.00000000000E+00  0.66049701601E+03  0.66049701601E+03  0.00000000000E+00 0.  1.
         21   -1    0    0  501  503 -0.00000000000E+00 -0.00000000000E+00 -0.49174440030E+02  0.49174440030E+02  0.00000000000E+00 0.  1.
          6    2    1    2  501    0 -0.94298204170E+01  0.32195102850E+02  0.38487565909E+03  0.42293264670E+03  0.17209678825E+03 0.  0.
         24    2    3    3    0    0  0.42554012373E+02  0.62434628664E+02  0.27335119059E+03  0.29613933115E+03  0.85256690260E+02 0.  0.
         -6    2    1    2    0  502  0.94298204170E+01 -0.32195102850E+02  0.22644691689E+03  0.28673880934E+03  0.17267163187E+03 0.  0.
        -24    2    5    5    0    0  0.63229877206E+02 -0.48772030966E+02  0.11376828088E+03  0.16069197015E+03  0.80634726766E+02 0.  0.
          5    1    3    3  501    0 -0.51983832790E+02 -0.30239525814E+02  0.11152446850E+03  0.12679331555E+03  0.47000000000E+01 0. -1.
        -13    1    4    4    0    0  0.54021763826E+02  0.36474014726E+02  0.92995890059E+02  0.11356469647E+03  0.00000000000E+00 0.  1.
         14    1    4    4    0    0 -0.11467751453E+02  0.25960613938E+02  0.18035530053E+03  0.18257463468E+03  0.00000000000E+00 0. -1.
         -5    1    5    5    0  502 -0.53800056789E+02  0.16576928116E+02  0.11267863601E+03  0.12604683919E+03  0.47000000000E+01 0.  1.
         11    1    6    6    0    0  0.73115394509E+02 -0.33604013212E+02  0.11729811688E+03  0.14224605035E+03  0.00000000000E+00 0. -1.
        -12    1    6    6    0    0 -0.98855173034E+01 -0.15168017754E+02 -0.35298359995E+01  0.18445919796E+02  0.00000000000E+00 0.  1.
</event>
<event>
12    1  0.8563264E-002  0.2154427E+03  0.7818608E-02  0.1137420E+00
         21   -1    0    0  501  502  0.00000000000E+00  0.00000000000E+00  0.45110844144E+03  0.45110844144E+03  0.00000000000E+00 0.  1.
         21   -1    0    0  502  503 -0.00000000000E+00 -0.00000000000E+00 -0.28651245515E+03  0.28651245515E+03  0.00000000000E+00 0.  1.
         -6    2    1    2    0  503  0.44153171812E+02 -0.12196940086E+03 -0.21310639643E+03  0.30303450890E+03  0.17201610406E+03 0.  0.
        -24    2    3    3    0    0  0.21887712058E+02 -0.15488343466E+03 -0.17566728427E+03  0.24823613813E+03  0.79336216442E+02 0.  0.
          6    2    1    2  501    0 -0.44153171812E+02  0.12196940086E+03  0.37770238271E+03  0.43458638769E+03  0.17140653761E+03 0.  0.
         24    2    5    5    0    0 -0.87670865217E+02  0.12208791640E+03  0.27972540990E+03  0.32727664495E+03  0.79196322196E+02 0.  0.
          5    1    5    5  501    0  0.43517693404E+02 -0.11851554278E+00  0.97976972814E+02  0.10730974274E+03  0.47000000000E+01 0. -1.
        -13    1    6    6    0    0 -0.14494689751E+02  0.38972945942E+02  0.15502308697E+03  0.16050278515E+03  0.00000000000E+00 0.  1.
         14    1    6    6    0    0 -0.73176175466E+02  0.83114970460E+02  0.12470232293E+03  0.16677385980E+03  0.00000000000E+00 0. -1.
         -5    1    3    3    0  503  0.22265459754E+02  0.32914033804E+02 -0.37439112154E+02  0.54798370763E+02  0.47000000000E+01 0.  1.
         13    1    4    4    0    0 -0.10205511590E+02 -0.17120648730E+00  0.20758417207E+01  0.10415896377E+02  0.00000000000E+00 0. -1.
        -14    1    4    4    0    0  0.32093223648E+02 -0.15471222818E+03 -0.17774312599E+03  0.23782024176E+03  0.00000000000E+00 0.  1.
</event>
<event>
12    1  0.8563264E-002  0.2220387E+03  0.7818608E-02  0.1133006E+00
         21   -1    0    0  501  502  0.00000000000E+00  0.00000000000E+00  0.34955990671E+03  0.34955990671E+03  0.00000000000E+00 0. -1.
         21   -1    0    0  502  503 -0.00000000000E+00 -0.00000000000E+00 -0.22453367599E+03  0.22453367599E+03  0.00000000000E+00 0. -1.
         -6    2    1    2    0  503 -0.13234456483E+03 -0.32880372430E+02 -0.11447707074E+03  0.24981232387E+03  0.17522840723E+03 0.  0.
        -24    2    3    3    0    0 -0.78585528938E+02 -0.85732648805E+02 -0.99779889200E+02  0.17286107825E+03  0.79994710163E+02 0.  0.
          6    2    1    2  501    0  0.13234456483E+03  0.32880372430E+02  0.23950330145E+03  0.32428125883E+03  0.17088095474E+03 0.  0.
         24    2    5    5    0    0  0.32377383392E+02  0.70272111751E+02  0.12715142322E+03  0.16924379860E+03  0.80557521638E+02 0.  0.
          5    1    5    5  501    0  0.99967181436E+02 -0.37391739321E+02  0.11235187823E+03  0.15503746023E+03  0.47000000000E+01 0. -1.
        -11    1    6    6    0    0  0.40714644785E+00  0.15683575509E+02  0.98595589102E+02  0.99836018046E+02  0.00000000000E+00 0.  1.
         12    1    6    6    0    0  0.31970236945E+02  0.54588536242E+02  0.28555834120E+02  0.69407780555E+02  0.00000000000E+00 0. -1.
         -5    1    3    3    0  503 -0.53759035890E+02  0.52852276375E+02 -0.14697181538E+02  0.76951245623E+02  0.47000000000E+01 0.  1.
         13    1    4    4    0    0 -0.22556979192E+02 -0.44850198544E+02  0.13628522174E+01  0.50221658533E+02  0.00000000000E+00 0. -1.
        -14    1    4    4    0    0 -0.56028549747E+02 -0.40882450261E+02 -0.10114274142E+03  0.12263941971E+03  0.00000000000E+00 0.  1.
</event>
<event>
12    1  0.8563264E-002  0.2256071E+03  0.7818608E-02  0.1130078E+00
         21   -1    0    0  503  502  0.00000000000E+00  0.00000000000E+00  0.15849870806E+03  0.15849870806E+03  0.00000000000E+00 0.  1.
         21   -1    0    0  501  503 -0.00000000000E+00 -0.00000000000E+00 -0.38035386622E+03  0.38035386622E+03  0.00000000000E+00 0. -1.
          6    2    1    2  501    0  0.14456068031E+03  0.19577827750E+02 -0.21973506264E+03  0.31493182548E+03  0.17209728445E+03 0.  0.
         24    2    3    3    0    0  0.10340536659E+03 -0.50111291577E+02 -0.10362103550E+03  0.17331653499E+03  0.78086432377E+02 0.  0.
         -6    2    1    2    0  502 -0.14456068031E+03 -0.19577827750E+02 -0.21200955210E+01  0.22392074880E+03  0.16986737565E+03 0.  0.
        -24    2    5    5    0    0 -0.70292749305E+02  0.53142204208E+02 -0.75106876279E+01  0.11973304748E+03  0.80712005039E+02 0.  0.
          5    1    3    3  501    0  0.41155313721E+02  0.69689119327E+02 -0.11611402714E+03  0.14161529049E+03  0.47000000000E+01 0. -1.
        -13    1    4    4    0    0  0.18163983703E+01 -0.22398404379E+00  0.11638025973E+02  0.11781049208E+02  0.00000000000E+00 0.  1.
         14    1    4    4    0    0  0.10158896822E+03 -0.49887307533E+02 -0.11525906147E+03  0.16153548578E+03  0.00000000000E+00 0. -1.
         -5    1    5    5    0  502 -0.74267931002E+02 -0.72720031958E+02  0.53905921069E+01  0.10418770132E+03  0.47000000000E+01 0.  1.
         13    1    6    6    0    0  0.11351211972E+02  0.71377757669E+01 -0.21140115305E+02  0.25034023473E+02  0.00000000000E+00 0. -1.
        -14    1    6    6    0    0 -0.81643961277E+02  0.46004428441E+02  0.13629427677E+02  0.94699024008E+02  0.00000000000E+00 0.  1.
</event>
<event>
12    1  0.8563264E-002  0.1966935E+03  0.7818608E-02  0.1153219E+00
         21   -1    0    0  501  502  0.00000000000E+00  0.00000000000E+00  0.24108772332E+02  0.24108772332E+02  0.00000000000E+00 0. -1.
         21   -1    0    0  502  503 -0.00000000000E+00 -0.00000000000E+00 -0.16910531281E+04  0.16910531281E+04  0.00000000000E+00 0. -1.
         -6    2    1    2    0  503 -0.85603490852E+02  0.28608898014E+02 -0.61983052825E+03  0.65029087735E+03  0.17476245224E+03 0.  0.
        -24    2    3    3    0    0 -0.95449872471E+02  0.18912320611E+02 -0.62275171158E+03  0.63540470402E+03  0.80318675154E+02 0.  0.
          6    2    1    2  501    0  0.85603490852E+02 -0.28608898014E+02 -0.10471138276E+04  0.10648710231E+04  0.17133739038E+03 0.  0.
         24    2    5    5    0    0  0.61757791133E+01 -0.51691263892E+02 -0.37059928197E+03  0.38330255452E+03  0.82866721279E+02 0.  0.
          5    1    5    5  501    0  0.79427711739E+02  0.23082365878E+02 -0.67651454558E+03  0.68156846860E+03  0.47000000000E+01 0. -1.
        -11    1    6    6    0    0  0.17707176271E+02  0.17035928232E+02 -0.14873902208E+03  0.15075497880E+03  0.00000000000E+00 0.  1.
         12    1    6    6    0    0 -0.11531397158E+02 -0.68727192124E+02 -0.22186025988E+03  0.23254757572E+03  0.00000000000E+00 0. -1.
         -5    1    3    3    0  503  0.98463816188E+01  0.96965774026E+01  0.29211833337E+01  0.14886173329E+02  0.47000000000E+01 0.  1.
         13    1    4    4    0    0 -0.99742550078E+02  0.52917530674E+01 -0.40314610844E+03  0.41533524255E+03  0.00000000000E+00 0. -1.
        -14    1    4    4    0    0  0.42926776073E+01  0.13620567544E+02 -0.21960560314E+03  0.22006946147E+03  0.00000000000E+00 0.  1.
</event>
<event>
12    1  0.8563264E-002  0.1916485E+03  0.7818608E-02  0.1157537E+00
         21   -1    0    0  501  502  0.00000000000E+00  0.00000000000E+00  0.13200581218E+03  0.13200581218E+03  0.00000000000E+00 0.  1.
         21   -1    0    0  502  503 -0.00000000000E+00 -0.00000000000E+00 -0.29677414926E+03  0.29677414926E+03  0.00000000000E+00 0.  1.
         -6    2    1    2    0  503 -0.52663448512E+02  0.62094942307E+02 -0.24369266319E+02  0.19319163447E+03  0.17349330194E+03 0.  0.
        -24    2    3    3    0    0 -0.52093151824E+02  0.10860290429E+03 -0.20461245273E+02  0.14628024572E+03  0.80442280180E+02 0.  0.
          6    2    1    2  501    0  0.52663448512E+02 -0.62094942307E+02 -0.14039907076E+03  0.23558832697E+03  0.17076516058E+03 0.  0.
         24    2    5    5    0    0  0.75795955274E+02  0.10511788017E+02 -0.59239601150E+02  0.12416211971E+03  0.77790597785E+02 0.  0.
          5    1    5    5  501    0 -0.23132506762E+02 -0.72606730324E+02 -0.81159469608E+02  0.11142620726E+03  0.47000000000E+01 0. -1.
        -11    1    6    6    0    0  0.69202306225E+01 -0.63845248186E+01 -0.52034089598E+02  0.52879090663E+02  0.00000000000E+00 0.  1.
         12    1    6    6    0    0  0.68875724651E+02  0.16896312835E+02 -0.72055115517E+01  0.71283029049E+02  0.00000000000E+00 0. -1.
         -5    1    3    3    0  503 -0.57029668803E+00 -0.46507961985E+02 -0.39080210460E+01  0.46911388754E+02  0.47000000000E+01 0.  1.
         13    1    4    4    0    0 -0.39060356237E+02  0.34502483857E+02 -0.43187258024E+02  0.67685094942E+02  0.00000000000E+00 0. -1.
        -14    1    4    4    0    0 -0.13032795587E+02  0.74100420435E+02  0.22726012751E+02  0.78595150773E+02  0.00000000000E+00 0.  1.
</event>
<event>
12    1  0.8563264E-002  0.2188419E+03  0.7818608E-02  0.1134762E+00
         21   -1    0    0  503  502  0.00000000000E+00  0.00000000000E+00  0.10403411737E+04  0.10403411737E+04  0.00000000000E+00 0.  1.
         21   -1    0    0  501  503 -0.00000000000E+00 -0.00000000000E+00 -0.48916564447E+02  0.48916564447E+02  0.00000000000E+00 0. -1.
          6    2    1    2  501    0  0.13315421546E+03 -0.19977434902E+02  0.36312400178E+03  0.42393568800E+03  0.17243341872E+03 0.  0.
         24    2    3    3    0    0  0.10801282059E+03 -0.38845945029E+01  0.36902002955E+03  0.39314733969E+03  0.81897429796E+02 0.  0.
         -6    2    1    2    0  502 -0.13315421546E+03  0.19977434902E+02  0.62830060750E+03  0.66532205018E+03  0.17251850354E+03 0.  0.
        -24    2    5    5    0    0 -0.13972856283E+03  0.32714541118E+02  0.35128462355E+03  0.38789566123E+03  0.80422912084E+02 0.  0.
          5    1    3    3  501    0  0.25141394867E+02 -0.16092840399E+02 -0.58960277764E+01  0.30788348308E+02  0.47000000000E+01 0. -1.
        -11    1    4    4    0    0  0.88755693129E+02 -0.93250406865E+01  0.16028411526E+03  0.18345442772E+03  0.00000000000E+00 0.  1.
         12    1    4    4    0    0  0.19257127459E+02  0.54404461836E+01  0.20873591430E+03  0.20969291197E+03  0.00000000000E+00 0. -1.
         -5    1    5    5    0  502  0.65743473757E+01 -0.12737106216E+02  0.27701598395E+03  0.27742638894E+03  0.47000000000E+01 0.  1.
         11    1    6    6    0    0 -0.13558886749E+02  0.18419870721E+02  0.12429767434E+02  0.26031407294E+02  0.00000000000E+00 0. -1.
        -12    1    6    6    0    0 -0.12616967608E+03  0.14294670398E+02  0.33885485612E+03  0.36186425394E+03  0.00000000000E+00 0.  1.
</event>
<event>
12    1  0.8563264E-002  0.2211255E+03  0.7818608E-02  0.1133348E+00
         21   -1    0    0  501  502  0.00000000000E+00  0.00000000000E+00  0.25560775057E+03  0.25560775057E+03  0.00000000000E+00 0.  1.
         21   -1    0    0  502  503 -0.00000000000E+00 -0.00000000000E+00 -0.32249427127E+03  0.32249427127E+03  0.00000000000E+00 0.  1.
         -6    2    1    2    0  503  0.12937684589E+03 -0.51088529747E+02 -0.21871703562E+03  0.30986892743E+03  0.16980342867E+03 0.  0.
        -24    2    3    3    0    0  0.15342858392E+03 -0.60752363111E+02 -0.15236817047E+03  0.23848168988E+03  0.80164063331E+02 0.  0.
          6    2    1    2  501    0 -0.12937684589E+03  0.51088529747E+02  0.15183051493E+03  0.26823309442E+03  0.17189555420E+03 0.  0.
         24    2    5    5    0    0 -0.77856211717E+02  0.68282920077E+02  0.16207782335E+03  0.21276129857E+03  0.90961543909E+02 0.  0.
          5    1    5    5  501    0 -0.51520634177E+02 -0.17194390330E+02 -0.10247308421E+02  0.55471795849E+02  0.47000000000E+01 0. -1.
        -13    1    6    6    0    0 -0.80176357395E+02  0.13932828577E+02  0.78711547354E+02  0.11321607520E+03  0.00000000000E+00 0.  1.
         14    1    6    6    0    0  0.23201456779E+01  0.54350091500E+02  0.83366275993E+02  0.99545223366E+02  0.00000000000E+00 0. -1.
         -5    1    3    3    0  503 -0.24051738024E+02  0.96638333642E+01 -0.66348865150E+02  0.71387237543E+02  0.47000000000E+01 0.  1.
         11    1    4    4    0    0  0.10763565760E+02  0.48124832048E+01  0.78433621965E+01  0.14160955936E+02  0.00000000000E+00 0. -1.
        -12    1    4    4    0    0  0.14266501816E+03 -0.65564846316E+02 -0.16021153267E+03  0.22432073395E+03  0.00000000000E+00 0.  1.
</event>
<event>
12    1  0.8563264E-002  0.1938427E+03  0.7818608E-02  0.1155166E+00
         21   -1    0    0  503  502  0.00000000000E+00  0.00000000000E+00  0.76348538501E+03  0.76348538501E+03  0.00000000000E+00 0. -1.
         21   -1    0    0  501  503 -0.00000000000E+00 -0.00000000000E+00 -0.90855904764E+02  0.90855904764E+02  0.00000000000E+00 0.  1.
          6    2    1    2  501    0 -0.64889335487E+02  0.60094488461E+02  0.46352564997E+02  0.19875166029E+03  0.17184786523E+03 0.  0.
         24    2    3    3    0    0 -0.64648448013E+02  0.77067140967E+01 -0.26519409109E+02  0.10887979851E+03  0.83142745877E+02 0.  0.
         -6    2    1    2    0  502  0.64889335487E+02 -0.60094488461E+02  0.62627691525E+03  0.65558962949E+03  0.17249062093E+03 0.  0.
        -24    2    5    5    0    0  0.97399202982E+01 -0.79473924829E+02  0.54909019131E+03  0.55865201603E+03  0.64661163356E+02 0.  0.
          5    1    3    3  501    0 -0.24088747436E+00  0.52387774364E+02  0.72871974106E+02  0.89871861779E+02  0.47000000000E+01 0. -1.
        -11    1    4    4    0    0 -0.22356172484E+02  0.36887717189E+02  0.11873470001E+02  0.44737919234E+02  0.00000000000E+00 0.  1.
         12    1    4    4    0    0 -0.42292275529E+02 -0.29181003092E+02 -0.38392879110E+02  0.64141879278E+02  0.00000000000E+00 0. -1.
         -5    1    5    5    0  502  0.55149415189E+02  0.19379436368E+02  0.77186723940E+02  0.96937613455E+02  0.47000000000E+01 0.  1.
         11    1    6    6    0    0  0.93553714666E+01 -0.80694051686E+02  0.34043552470E+03  0.34999342769E+03  0.00000000000E+00 0. -1.
        -12    1    6    6    0    0  0.38454883159E+00  0.12201268572E+01  0.20865466661E+03  0.20865858834E+03  0.00000000000E+00 0.  1.
</event>
<event>
12    1  0.8563264E-002  0.2124833E+03  0.7818608E-02  0.1139750E+00
         21   -1    0    0  501  502  0.00000000000E+00  0.00000000000E+00  0.72326368537E+03  0.72326368537E+03  0.00000000000E+00 0.  1.
         21   -1    0    0  502  503 -0.00000000000E+00 -0.00000000000E+00 -0.16000540252E+03  0.16000540252E+03  0.00000000000E+00 0. -1.
         -6    2    1    2    0  503  0.12043652690E+03  0.27771763944E+02 -0.63439542590E+02  0.22175146960E+03  0.17283781653E+03 0.  0.
        -24    2    3    3    0    0  0.15767109179E+03  0.27493086243E+02 -0.50846242857E+02  0.18216395033E+03  0.70585560906E+02 0.  0.
          6    2    1    2  501    0 -0.12043652690E+03 -0.27771763944E+02  0.62669782544E+03  0.66151761829E+03  0.17198595006E+03 0.  0.
         24    2    5    5    0    0 -0.11384178002E+03  0.17577407210E+02  0.28573588325E+03  0.31745777752E+03  0.76586744351E+02 0.  0.
          5    1    5    5  501    0 -0.65947468815E+01 -0.45349171154E+02  0.34096194219E+03  0.34405984077E+03  0.47000000000E+01 0. -1.
        -11    1    6    6    0    0 -0.19452593736E+02  0.21509067427E+02  0.14554864874E+03  0.14840974541E+03  0.00000000000E+00 0.  1.
         12    1    6    6    0    0 -0.94389186280E+02 -0.39316602174E+01  0.14018723451E+03  0.16904803210E+03  0.00000000000E+00 0. -1.
         -5    1    3    3    0  503 -0.37234564892E+02  0.27867770107E+00 -0.12593299733E+02  0.39587519272E+02  0.47000000000E+01 0.  1.
         13    1    4    4    0    0  0.77256784802E+02  0.35564070520E+02  0.29119380349E+01  0.85099314292E+02  0.00000000000E+00 0. -1.
        -14    1    4    4    0    0  0.80414306988E+02 -0.80709842774E+01 -0.53758180892E+02  0.97064636034E+02  0.00000000000E+00 0.  1.
</event>
<event>
12    1  0.8563264E-002  0.2564330E+03  0.7818608E-02  0.1109573E+00
         21   -1    0    0  501  502  0.00000000000E+00  0.00000000000E+00  0.23131643549E+04  0.23131643549E+04  0.00000000000E+00 0.  1.
         21   -1    0    0  502  503 -0.00000000000E+00 -0.00000000000E+00 -0.56067165228E+02  0.56067165228E+02  0.00000000000E+00 0. -1.
         -6    2    1    2    0  503 -0.18013011626E+03 -0.54056112975E+02  0.29198120446E+03  0.38745486250E+03  0.17175367416E+03 0.  0.
        -24    2    3    3    0    0 -0.14776953140E+03 -0.78091457137E+02  0.14439612459E+03  0.23439163694E+03  0.78454372594E+02 0.  0.
          6    2    1    2  501    0  0.18013011626E+03  0.54056112975E+02  0.19651159852E+04  0.19817766576E+04  0.17432430479E+03 0.  0.
         24    2    5    5    0    0  0.89451674848E+02 -0.33712760367E+02  0.79477481100E+03  0.80464178476E+03  0.81506130042E+02 0.  0.
          5    1    5    5  501    0  0.90678441409E+02  0.87768873341E+02  0.11703411742E+04  0.11771348729E+04  0.47000000000E+01 0. -1.
        -13    1    6    6    0    0  0.27544196879E+02 -0.40484376139E+01  0.54190168817E+03  0.54261635827E+03  0.00000000000E+00 0.  1.
         14    1    6    6    0    0  0.61907477969E+02 -0.29664322753E+02  0.25287312284E+03  0.26202542649E+03  0.00000000000E+00 0. -1.
         -5    1    3    3    0  503 -0.32360584852E+02  0.24035344163E+02  0.14758507987E+03  0.15306322556E+03  0.47000000000E+01 0.  1.
         13    1    4    4    0    0 -0.14745366413E+03 -0.85076032410E+02  0.14882259046E+03  0.22611651374E+03  0.00000000000E+00 0. -1.
        -14    1    4    4    0    0 -0.31586727860E+00  0.69845752729E+01 -0.44264658653E+01  0.82751231977E+01  0.00000000000E+00 0.  1.
</event>
<event>
12    1  0.8563264E-002  0.2044090E+03  0.7818608E-02  0.1146095E+00
         21   -1    0    0  503  502  0.00000000000E+00  0.00000000000E+00  0.19039566563E+04  0.19039566563E+04  0.00000000000E+00 0. -1.
         21   -1    0    0  501  503 -0.00000000000E+00 -0.00000000000E+00 -0.49525687803E+02  0.49525687803E+02  0.00000000000E+00 0.  1.
          6    2    1    2  501    0 -0.95057174484E+02 -0.57325133885E+02  0.19804875299E+03  0.28453505220E+03  0.17150757994E+03 0.  0.
         24    2    3    3    0    0 -0.21432236606E+02 -0.79186055327E+02  0.66920864854E+02  0.13249839738E+03  0.79672147144E+02 0.  0.
         -6    2    1    2    0  502  0.95057174484E+02  0.57325133885E+02  0.16563822155E+04  0.16689472919E+04  0.17164201670E+03 0.  0.
        -24    2    5    5    0    0  0.69690536562E+02  0.10609543234E+03  0.12222210179E+04  0.12312944113E+04  0.78413641798E+02 0.  0.
          5    1    3    3  501    0 -0.73624937878E+02  0.21860921442E+02  0.13112788814E+03  0.15203665483E+03  0.47000000000E+01 0. -1.
        -13    1    4    4    0    0 -0.21970268394E+02 -0.37527245258E+02  0.78075459915E+02  0.89368698497E+02  0.00000000000E+00 0.  1.
         14    1    4    4    0    0  0.53803178775E+00 -0.41658810069E+02 -0.11154595062E+02  0.43129698880E+02  0.00000000000E+00 0. -1.
         -5    1    5    5    0  502  0.25366637922E+02 -0.48770298452E+02  0.43416119766E+03  0.43765288058E+03  0.47000000000E+01 0.  1.
         13    1    6    6    0    0  0.18998463109E+02  0.19416220710E+02  0.76470173171E+02  0.81151824452E+02  0.00000000000E+00 0. -1.
        -14    1    6    6    0    0  0.50692073453E+02  0.86679211626E+02  0.11457508447E+04  0.11501425869E+04  0.00000000000E+00 0.  1.
</event>
<event>
12    1  0.8563264E-002  0.1786810E+03  0.7818608E-02  0.1169204E+00
         21   -1    0    0  501  502  0.00000000000E+00  0.00000000000E+00  0.23997021222E+03  0.23997021222E+03  0.00000000000E+00 0. -1.
         21   -1    0    0  502  503 -0.00000000000E+00 -0.00000000000E+00 -0.14839094233E+03  0.14839094233E+03  0.00000000000E+00 0. -1.
         -6    2    1    2    0  503  0.87631135425E+01  0.45969519738E+02 -0.17324938869E+02  0.17951895298E+03  0.17244393892E+03 0.  0.
        -24    2    3    3    0    0  0.42620337182E+02  0.95568223787E+02 -0.26266013623E+02  0.11862251751E+03  0.49311455549E+02 0.  0.
          6    2    1    2  501    0 -0.87631135425E+01 -0.45969519738E+02  0.10890420876E+03  0.20884220156E+03  0.17194461191E+03 0.  0.
         24    2    5    5    0    0 -0.12718160732E+02 -0.53812147712E+01 -0.10619651926E+02  0.82465399216E+02  0.80604317353E+02 0.  0.
          5    1    5    5  501    0  0.39550471898E+01 -0.40588304967E+02  0.11952386069E+03  0.12637680235E+03  0.47000000000E+01 0. -1.
        -11    1    6    6    0    0  0.17607237289E+02 -0.33573012557E+02 -0.15124641228E+02  0.40815643440E+02  0.00000000000E+00 0.  1.
         12    1    6    6    0    0 -0.30325398022E+02  0.28191797786E+02  0.45049893017E+01  0.41649755776E+02  0.00000000000E+00 0. -1.
         -5    1    3    3    0  503 -0.33857223639E+02 -0.49598704049E+02  0.89410747541E+01  0.60896435476E+02  0.47000000000E+01 0.  1.
         11    1    4    4    0    0  0.32874352857E+02  0.73735618271E+02  0.30540751823E+01  0.80789800425E+02  0.00000000000E+00 0. -1.
        -12    1    4    4    0    0  0.97459843242E+01  0.21832605517E+02 -0.29320088805E+02  0.37832717080E+02  0.00000000000E+00 0.  1.
</event>
<event>
12    1  0.8563264E-002  0.1897260E+03  0.7818608E-02  0.1158842E+00
         21   -1    0    0  503  502  0.00000000000E+00  0.00000000000E+00  0.18714584553E+04  0.18714584553E+04  0.00000000000E+00 0.  1.
         21   -1    0    0  501  503 -0.00000000000E+00 -0.00000000000E+00 -0.41935822753E+02  0.41935822753E+02  0.00000000000E+00 0. -1.
          6    2    1    2  501    0  0.74729314331E+02  0.26536222988E+02  0.21058730281E+03  0.28344836519E+03  0.17235812157E+03 0.  0.
         24    2    3    3    0    0  0.42617746081E+02 -0.49261687567E+02  0.14661194597E+03  0.17908643562E+03  0.79585818959E+02 0.  0.
         -6    2    1    2    0  502 -0.74729314331E+02 -0.26536222988E+02  0.16189353297E+04  0.16299459128E+04  0.17170741230E+03 0.  0.
        -24    2    5    5    0    0 -0.23517108024E+02 -0.74651791209E+02  0.11924164487E+04  0.11976517493E+04  0.79917339444E+02 0.  0.
          5    1    3    3  501    0  0.32111568250E+02  0.75797910556E+02  0.63975356839E+02  0.10436192957E+03  0.47000000000E+01 0. -1.
        -11    1    4    4    0    0  0.24776080064E+02 -0.31771110071E+02  0.14865506519E+03  0.15401813525E+03  0.00000000000E+00 0.  1.
         12    1    4    4    0    0  0.17841666017E+02 -0.17490577496E+02 -0.20431192212E+01  0.25068300373E+02  0.00000000000E+00 0. -1.
         -5    1    5    5    0  502 -0.51212206307E+02  0.48115568221E+02  0.42651888105E+03  0.43229416358E+03  0.47000000000E+01 0.  1.
         11    1    6    6    0    0 -0.26877001810E+02 -0.75847105181E+02  0.11911536669E+04  0.11938685919E+04  0.00000000000E+00 0. -1.
        -12    1    6    6    0    0  0.33598937859E+01  0.11953139718E+01  0.12627817797E+01  0.37831573542E+01  0.00000000000E+00 0.  1.
</event>
<event>
12    1  0.8563264E-002  0.2825525E+03  0.7818608E-02  0.1094603E+00
         21   -1    0    0  503  502  0.00000000000E+00  0.00000000000E+00  0.28943014113E+03  0.28943014113E+03  0.00000000000E+00 0.  1.
         21   -1    0    0  501  503 -0.00000000000E+00 -0.00000000000E+00 -0.33785857793E+03  0.33785857793E+03  0.00000000000E+00 0. -1.
          6    2    1    2  501    0 -0.19717825322E+03 -0.10372017925E+03 -0.16098628188E+03  0.32519604855E+03  0.17377786945E+03 0.  0.
         24    2    3    3    0    0 -0.20215459992E+03 -0.98679936881E+02 -0.91692408609E+02  0.25538273361E+03  0.78794864176E+02 0.  0.
         -6    2    1    2    0  502  0.19717825322E+03  0.10372017925E+03  0.11255784507E+03  0.30209267051E+03  0.17015749751E+03 0.  0.
        -24    2    5    5    0    0  0.15084255867E+02  0.37730141183E+02  0.70460868013E+02  0.10383235054E+03  0.64539327301E+02 0.  0.
          5    1    3    3  501    0  0.49763466916E+01 -0.50402423692E+01 -0.69293873273E+02  0.69813314939E+02  0.47000000000E+01 0. -1.
        -13    1    4    4    0    0 -0.81878355958E+02 -0.10909444038E+02 -0.62668586305E+02  0.10368429415E+03  0.00000000000E+00 0.  1.
         14    1    4    4    0    0 -0.12027624396E+03 -0.87770492843E+02 -0.29023822305E+02  0.15169843946E+03  0.00000000000E+00 0. -1.
         -5    1    5    5    0  502  0.18209399736E+03  0.65990038067E+02  0.42096977061E+02  0.19826031997E+03  0.47000000000E+01 0.  1.
         13    1    6    6    0    0 -0.19298618563E+00  0.41178654875E+02  0.11396800644E+02  0.42727109965E+02  0.00000000000E+00 0. -1.
        -14    1    6    6    0    0  0.15277242053E+02 -0.34485136921E+01  0.59064067369E+02  0.61105240574E+02  0.00000000000E+00 0.  1.
</event>
<event>
12    1  0.8563264E-002  0.1859428E+03  0.7818608E-02  0.1162266E+00
         21   -1    0    0  501  502  0.00000000000E+00  0.00000000000E+00  0.28490185806E+03  0.28490185806E+03  0.00000000000E+00 0. -1.
         21   -1    0    0  502  503 -0.00000000000E+00 -0.00000000000E+00 -0.20252305444E+03  0.20252305444E+03  0.00000000000E+00 0. -1.
         -6    2    1    2    0  503  0.38931529518E+02 -0.61550782117E+02 -0.11332020025E+03  0.21775262865E+03  0.17108645980E+03 0.  0.
        -24    2    3    3    0    0 -0.28560037805E+02  0.84231066673E+01 -0.79386814664E+02  0.11467488406E+03  0.77210350386E+02 0.  0.
          6    2    1    2  501    0 -0.38931529518E+02  0.61550782117E+02  0.19569900387E+03  0.26967228385E+03  0.17064840401E+03 0.  0.
         24    2    5    5    0    0 -0.35885261655E+02  0.12626237983E+02  0.28854632241E+02  0.95712446213E+02  0.82952448238E+02 0.  0.
          5    1    5    5  501    0 -0.30462678628E+01  0.48924544135E+02  0.16684437163E+03  0.17395983764E+03  0.47000000000E+01 0. -1.
        -11    1    6    6    0    0 -0.31084054795E+01 -0.32517246954E+02 -0.50802143744E+00  0.32669429439E+02  0.00000000000E+00 0.  1.
         12    1    6    6    0    0 -0.32776856175E+02  0.45143484937E+02  0.29362653679E+02  0.63043016774E+02  0.00000000000E+00 0. -1.
         -5    1    3    3    0  503  0.67491567323E+02 -0.69973888785E+02 -0.33933385586E+02  0.10307774458E+03  0.47000000000E+01 0.  1.
         13    1    4    4    0    0 -0.38148072638E+02 -0.27680889012E+01 -0.89142422977E+02  0.97001594504E+02  0.00000000000E+00 0. -1.
        -14    1    4    4    0    0  0.95880348325E+01  0.11191195569E+02  0.97556083136E+01  0.17673289557E+02  0.00000000000E+00 0.  1.
</event>
<event>
12    1  0.8563264E-002  0.1833757E+03  0.7818608E-02  0.1164583E+00
         21   -1    0    0  501  502  0.00000000000E+00  0.00000000000E+00  0.20448341188E+03  0.20448341188E+03  0.00000000000E+00 0.  1.
         21   -1    0    0  502  503 -0.00000000000E+00 -0.00000000000E+00 -0.24548641414E+03  0.24548641414E+03  0.00000000000E+00 0. -1.
         -6    2    1    2    0  503 -0.10152406589E+02 -0.59777153330E+02 -0.14978971528E+03  0.23675353482E+03  0.17302860464E+03 0.  0.
        -24    2    3    3    0    0 -0.11448925427E+00  0.26446601517E+02 -0.11951535907E+03  0.14469962492E+03  0.77166213832E+02 0.  0.
          6    2    1    2  501    0  0.10152406589E+02  0.59777153330E+02  0.10878671302E+03  0.21321629120E+03  0.17306142980E+03 0.  0.
         24    2    5    5    0    0  0.59163160932E+02  0.72477657791E+02  0.41756421895E+02  0.12908242891E+03  0.78519960485E+02 0.  0.
          5    1    5    5  501    0 -0.49010754342E+02 -0.12700504461E+02  0.67030291129E+02  0.84133862289E+02  0.47000000000E+01 0. -1.
        -13    1    6    6    0    0  0.50091195069E+02  0.48953340445E+02  0.64435066271E+02  0.95170558102E+02  0.00000000000E+00 0.  1.
         14    1    6    6    0    0  0.90719658625E+01  0.23524317347E+02 -0.22678644376E+02  0.33911870812E+02  0.00000000000E+00 0. -1.
         -5    1    3    3    0  503 -0.10037917335E+02 -0.86223754847E+02 -0.30274356210E+02  0.92053909902E+02  0.47000000000E+01 0.  1.
         13    1    4    4    0    0 -0.35847487527E+02  0.38268516477E+01 -0.35267455659E+02  0.50432931545E+02  0.00000000000E+00 0. -1.
        -14    1    4    4    0    0  0.35732998273E+02  0.22619749870E+02 -0.84247903413E+02  0.94266693372E+02  0.00000000000E+00 0.  1.
</event>
<event>
12    1  0.8563264E-002  0.1861163E+03  0.7818608E-02  0.1162014E+00
         21   -1    0    0  503  502  0.00000000000E+00  0.00000000000E+00  0.15618061657E+03  0.15618061657E+03  0.00000000000E+00 0. -1.
         21   -1    0    0  501  503 -0.00000000000E+00 -0.00000000000E+00 -0.31275504916E+03  0.31275504916E+03  0.00000000000E+00 0. -1.
          6    2    1    2  501    0  0.71843929558E+02  0.12831410272E+01 -0.20474393713E+03  0.27668689208E+03  0.17167515776E+03 0.  0.
         24    2    3    3    0    0 -0.27397713101E+02  0.55599689135E+01 -0.72089849303E+02  0.11089668757E+03  0.79495792366E+02 0.  0.
         -6    2    1    2    0  502 -0.71843929558E+02 -0.12831410272E+01  0.48169504541E+02  0.19224877365E+03  0.17168603070E+03 0.  0.
        -24    2    5    5    0    0 -0.29491217659E+02  0.46283025750E+02  0.74123662501E+02  0.12331401651E+03  0.81854620722E+02 0.  0.
          5    1    3    3  501    0  0.99241642659E+02 -0.42768278863E+01 -0.13265408783E+03  0.16579020451E+03  0.47000000000E+01 0. -1.
        -13    1    4    4    0    0 -0.54618752796E+00 -0.18542416743E+02  0.10109723250E+02  0.21126429979E+02  0.00000000000E+00 0.  1.
         14    1    4    4    0    0 -0.26851525573E+02  0.24102385657E+02 -0.82199572553E+02  0.89770257590E+02  0.00000000000E+00 0. -1.
         -5    1    5    5    0  502 -0.42352711898E+02 -0.47566166777E+02 -0.25954157961E+02  0.68934757144E+02  0.47000000000E+01 0.  1.
         13    1    6    6    0    0 -0.25771573790E+02  0.68317176928E+02  0.42161038422E+02  0.84314671557E+02  0.00000000000E+00 0. -1.
        -14    1    6    6    0    0 -0.37196438697E+01 -0.22034151178E+02  0.31962624079E+02  0.38999344952E+02  0.00000000000E+00 0.  1.
</event>
<event>
12    1  0.8563264E-002  0.1984249E+03  0.7818608E-02  0.1151345E+00
         21   -1    0    0  501  502  0.00000000000E+00  0.00000000000E+00  0.20573414028E+03  0.20573414028E+03  0.00000000000E+00 0. -1.
         21   -1    0    0  502  503 -0.00000000000E+00 -0.00000000000E+00 -0.36537287892E+03  0.36537287892E+03  0.00000000000E+00 0. -1.
         -6    2    1    2    0  503 -0.21405369338E+02  0.95116006535E+02  0.11805690151E+03  0.22980465632E+03  0.17136949418E+03 0.  0.
        -24    2    3    3    0    0 -0.74708782506E+02  0.86205133395E+02  0.71051794246E+02  0.15802563693E+03  0.83132528257E+02 0.  0.
          6    2    1    2  501    0  0.21405369338E+02 -0.95116006535E+02 -0.27769564015E+03  0.34130236288E+03  0.17282126552E+03 0.  0.
         24    2    5    5    0    0 -0.52192929601E+01 -0.10685805927E+03 -0.11597565234E+03  0.17691807866E+03  0.80023551338E+02 0.  0.
          5    1    5    5  501    0  0.26624662298E+02  0.11742052737E+02 -0.16171998780E+03  0.16438428422E+03  0.47000000000E+01 0. -1.
        -13    1    6    6    0    0 -0.42068306685E+02 -0.45375159912E+02 -0.56066853534E+02  0.83499339096E+02  0.00000000000E+00 0.  1.
         14    1    6    6    0    0  0.36849013725E+02 -0.61482899360E+02 -0.59908798811E+02  0.93418739561E+02  0.00000000000E+00 0. -1.
         -5    1    3    3    0  503  0.53303413168E+02  0.89108731397E+01  0.47005107262E+02  0.71779019387E+02  0.47000000000E+01 0.  1.
         11    1    4    4    0    0 -0.21828480147E+02  0.74283689966E+02  0.12838454535E+02  0.78481686115E+02  0.00000000000E+00 0. -1.
        -12    1    4    4    0    0 -0.52880302359E+02  0.11921443429E+02  0.58213339711E+02  0.79543950816E+02  0.00000000000E+00 0.  1.
</event>
<event>
12    1  0.8563264E-002  0.2079437E+03  0.7818608E-02  0.1145918E+00
         21   -1    0    0  501  502  0.00000000000E+00  0.00000000000E+00  0.30808274222E+04  0.30808274222E+04  0.00000000000E+00 0.  1.
         21   -1    0    0  502  503 -0.00000000000E+00 -0.00000000000E+00 -0.13233540757E+02  0.13233540757E+02  0.00000000000E+00 0.  1.
         -6    2    1    2    0  503 -0.34268047870E+01  0.11564630020E+03  0.16927451735E+04  0.17054696704E+04  0.17278531345E+03 0.  0.
        -24    2    3    3    0    0 -0.62960711405E+02  0.76739110815E+02  0.13198242645E+04  0.13257985630E+04  0.77154379113E+02 0.  0.
          6    2    1    2  501    0  0.34268047870E+01 -0.11564630020E+03  0.13748487080E+04  0.13885912926E+04  0.15681517230E+03 0.  0.
         24    2    5    5    0    0 -0.23122236869E+02 -0.51713055866E+02  0.11415250102E+04  0.11451691299E+04  0.71582883148E+02 0.  0.
          5    1    5    5  501    0  0.26549041656E+02 -0.63933244331E+02  0.23332369777E+03  0.24342216268E+03  0.47000000000E+01 0. -1.
        -11    1    6    6    0    0 -0.41749140735E+02 -0.71423585918E+01  0.46716424328E+03  0.46908041340E+03  0.00000000000E+00 0.  1.
         12    1    6    6    0    0  0.18626903866E+02 -0.44570697275E+02  0.67436076692E+03  0.67608871649E+03  0.00000000000E+00 0. -1.
         -5    1    3    3    0  503  0.59533906618E+02  0.38907189382E+02  0.37292090899E+03  0.37967110739E+03  0.47000000000E+01 0.  1.
         11    1    4    4    0    0  0.13487709952E+01 -0.13204675845E+02  0.84538453758E+02  0.85574136345E+02  0.00000000000E+00 0. -1.
        -12    1    4    4    0    0 -0.64309482401E+02  0.89943786660E+02  0.12352858107E+04  0.12402244267E+04  0.00000000000E+00 0.  1.
</event>
<event>
12    1  0.8563264E-002  0.2196106E+03  0.7818608E-02  0.1134604E+00
         21   -1    0    0  503  502  0.00000000000E+00  0.00000000000E+00  0.70768038240E+02  0.70768038240E+02  0.00000000000E+00 0. -1.
         21   -1    0    0  501  503 -0.00000000000E+00 -0.00000000000E+00 -0.79981962373E+03  0.79981962373E+03  0.00000000000E+00 0. -1.
          6    2    1    2  501    0 -0.66079737497E+02 -0.12004174301E+03 -0.53849229710E+03  0.58155202032E+03  0.17161656834E+03 0.  0.
         24    2    3    3    0    0 -0.94382142297E+02 -0.33005571558E+02 -0.33388120757E+03  0.35735543422E+03  0.78923311276E+02 0.  0.
         -6    2    1    2    0  502  0.66079737497E+02  0.12004174301E+03 -0.19055928839E+03  0.28903564165E+03  0.16867782302E+03 0.  0.
        -24    2    5    5    0    0  0.70447610746E+02  0.19069676501E+02 -0.57004463701E+02  0.12148440253E+03  0.78628447493E+02 0.  0.
          5    1    3    3  501    0  0.28302404800E+02 -0.87036171453E+02 -0.20461108953E+03  0.22419658610E+03  0.47000000000E+01 0. -1.
        -13    1    4    4    0    0 -0.18341498497E+02  0.21802311776E+02 -0.41675058105E+02  0.50483282718E+02  0.00000000000E+00 0.  1.
         14    1    4    4    0    0 -0.76040643800E+02 -0.54807883334E+02 -0.29220614946E+03  0.30687215150E+03  0.00000000000E+00 0. -1.
         -5    1    5    5    0  502 -0.43678732497E+01  0.10097206651E+03 -0.13355482469E+03  0.16755123912E+03  0.47000000000E+01 0.  1.
         13    1    6    6    0    0  0.26634232179E+02  0.42775557674E+02 -0.69523143414E+01  0.50867134112E+02  0.00000000000E+00 0. -1.
        -14    1    6    6    0    0  0.43813378567E+02 -0.23705881172E+02 -0.50052149360E+02  0.70617268421E+02  0.00000000000E+00 0.  1.
</event>
<event>
12    1  0.8563264E-002  0.1945221E+03  0.7818608E-02  0.1155507E+00
         21   -1    0    0  503  502  0.00000000000E+00  0.00000000000E+00  0.69832930172E+03  0.69832930172E+03  0.00000000000E+00 0.  1.
         21   -1    0    0  501  503 -0.00000000000E+00 -0.00000000000E+00 -0.57888485036E+02  0.57888485036E+02  0.00000000000E+00 0.  1.
          6    2    1    2  501    0  0.55117176400E+02 -0.56158300579E+02  0.42802724814E+03  0.46819286317E+03  0.17264290925E+03 0.  0.
         24    2    3    3    0    0  0.82524903287E+02 -0.58477644540E+01  0.18179869079E+03  0.21534325175E+03  0.80482271907E+02 0.  0.
         -6    2    1    2    0  502 -0.55117176400E+02  0.56158300579E+02  0.21241356854E+03  0.28802492358E+03  0.17789652792E+03 0.  0.
        -24    2    5    5    0    0  0.29977493727E+02  0.13488540372E+02  0.15380350846E+03  0.17613640557E+03  0.79296426784E+02 0.  0.
          5    1    3    3  501    0 -0.27407726887E+02 -0.50310536125E+02  0.24622855736E+03  0.25284961142E+03  0.47000000000E+01 0. -1.
        -13    1    4    4    0    0  0.42077538287E+02  0.34649241204E+02  0.11577130142E+03  0.12796125733E+03  0.00000000000E+00 0.  1.
         14    1    4    4    0    0  0.40447364999E+02 -0.40497005658E+02  0.66027389361E+02  0.87381994418E+02  0.00000000000E+00 0. -1.
         -5    1    5    5    0  502 -0.85094670127E+02  0.42669760208E+02  0.58610060077E+02  0.11188851801E+03  0.47000000000E+01 0.  1.
         11    1    6    6    0    0 -0.14471011767E+02  0.29629760354E+02  0.34123182916E+02  0.47452339168E+02  0.00000000000E+00 0. -1.
        -12    1    6    6    0    0  0.44448505494E+02 -0.16141219982E+02  0.11968032555E+03  0.12868406640E+03  0.00000000000E+00 0.  1.
</event>
<event>
12    1  0.8563264E-002  0.2289351E+03  0.7818608E-02  0.1127430E+00
         21   -1    0    0  501  502  0.00000000000E+00  0.00000000000E+00  0.21691644738E+03  0.21691644738E+03  0.00000000000E+00 0.  1.
         21   -1    0    0  502  503 -0.00000000000E+00 -0.00000000000E+00 -0.30235780911E+03  0.30235780911E+03  0.00000000000E+00 0.  1.
         -6    2    1    2    0  503  0.55447573333E+02  0.14147440853E+03 -0.15932658668E+03  0.27891977018E+03  0.17123619744E+03 0.  0.
        -24    2    3    3    0    0  0.79662248354E+02  0.52545445659E+02 -0.51619269628E+02  0.13708300812E+03  0.83786063554E+02 0.  0.
          6    2    1    2  501    0 -0.55447573333E+02 -0.14147440853E+03  0.73885224944E+02  0.24035448632E+03  0.17094388252E+03 0.  0.
         24    2    5    5    0    0 -0.88701634834E+02 -0.46474141582E+02  0.50095414770E+02  0.13682222856E+03  0.78631709828E+02 0.  0.
          5    1    5    5  501    0  0.33254061501E+02 -0.95000266952E+02  0.23789810173E+02  0.10353225775E+03  0.47000000000E+01 0. -1.
        -13    1    6    6    0    0 -0.86941665382E+02 -0.27535950782E+02  0.65552966866E+02  0.11231328163E+03  0.00000000000E+00 0.  1.
         14    1    6    6    0    0 -0.17599694526E+01 -0.18938190799E+02 -0.15457552096E+02  0.24508946938E+02  0.00000000000E+00 0. -1.
         -5    1    3    3    0  503 -0.24214675022E+02  0.88928962874E+02 -0.10770731705E+03  0.14183676206E+03  0.47000000000E+01 0.  1.
         13    1    4    4    0    0  0.15613895083E+02  0.13473107412E+02 -0.58222759555E+02  0.61767370619E+02  0.00000000000E+00 0. -1.
        -14    1    4    4    0    0  0.64048353271E+02  0.39072338247E+02  0.66034899277E+01  0.75315637500E+02  0.00000000000E+00 0.  1.
</event>
<event>
12    1  0.8563264E-002  0.2038860E+03  0.7818608E-02  0.1146661E+00
         21   -1    0    0  503  502  0.00000000000E+00  0.00000000000E+00  0.44043223744E+02  0.44043223744E+02  0.00000000000E+00 0.  1.
         21   -1    0    0  501  503 -0.00000000000E+00 -0.00000000000E+00 -0.26528458951E+04  0.26528458951E+04  0.00000000000E+00 0.  1.
          6    2    1    2  501    0 -0.40549361648E+02  0.10248610306E+03 -0.23887253036E+04  0.23974107026E+04  0.17152798307E+03 0.  0.
         24    2    3    3    0    0  0.28550195348E+02  0.89403922295E+02 -0.18312669406E+04  0.18355140851E+04  0.82250678781E+02 0.  0.
         -6    2    1    2    0  502  0.40549361648E+02 -0.10248610306E+03 -0.22007736775E+03  0.29947841621E+03  0.17060369846E+03 0.  0.
        -24    2    5    5    0    0  0.76046082640E+02 -0.46217641825E+02 -0.89256175542E+02  0.15263689871E+03  0.86094604210E+02 0.  0.
          5    1    3    3  501    0 -0.69099556997E+02  0.13082180765E+02 -0.55745836305E+03  0.56189661750E+03  0.47000000000E+01 0. -1.
        -11    1    4    4    0    0  0.52262458041E+01  0.28011845259E+02 -0.13491601097E+03  0.13789237520E+03  0.00000000000E+00 0.  1.
         12    1    4    4    0    0  0.23323949544E+02  0.61392077037E+02 -0.16963509296E+04  0.16976217099E+04  0.00000000000E+00 0. -1.
         -5    1    5    5    0  502 -0.35496720992E+02 -0.56268461236E+02 -0.13082119221E+03  0.14684151750E+03  0.47000000000E+01 0.  1.
         11    1    6    6    0    0 -0.17681964037E+02  0.24605940854E+00 -0.51827971714E+01  0.18427527885E+02  0.00000000000E+00 0. -1.
        -12    1    6    6    0    0  0.93728046677E+02 -0.46463701233E+02 -0.84073378371E+02  0.13420937082E+03  0.00000000000E+00 0.  1.
</event>
<event>
12    1  0.8563264E-002  0.1804939E+03  0.7818608E-02  0.1167389E+00
         21   -1    0    0  503  502  0.00000000000E+00  0.00000000000E+00  0.11384521976E+04  0.11384521976E+04  0.00000000000E+00 0.  1.
         21   -1    0    0  501  503 -0.00000000000E+00 -0.00000000000E+00 -0.41552675571E+02  0.41552675571E+02  0.00000000000E+00 0.  1.
          6    2    1    2  501    0 -0.52648432316E+02 -0.58294747999E+01  0.21844447086E+03  0.28319869544E+03  0.17227209306E+03 0.  0.
         24    2    3    3    0    0 -0.92399418907E+02 -0.38429496879E+02  0.15097970394E+03  0.19824878578E+03  0.80580588347E+02 0.  0.
         -6    2    1    2    0  502  0.52648432316E+02  0.58294747999E+01  0.87845505117E+03  0.89680617773E+03  0.17254623525E+03 0.  0.
        -24    2    5    5    0    0  0.86617784962E+02 -0.18429221257E+02  0.78369417622E+03  0.79315235642E+03  0.84094124487E+02 0.  0.
          5    1    3    3  501    0  0.39750986591E+02  0.32600022079E+02  0.67464766924E+02  0.84949909656E+02  0.47000000000E+01 0. -1.
        -11    1    4    4    0    0 -0.65274796969E+02  0.16316347565E+02  0.75175079912E+02  0.10088763530E+03  0.00000000000E+00 0.  1.
         12    1    4    4    0    0 -0.27124621938E+02 -0.54745844443E+02  0.75804624024E+02  0.97361150479E+02  0.00000000000E+00 0. -1.
         -5    1    5    5    0  502 -0.33969352646E+02  0.24258696057E+02  0.94760874943E+02  0.10365382132E+03  0.47000000000E+01 0.  1.
         11    1    6    6    0    0 -0.12075842629E+02 -0.70457719272E+00  0.24069593968E+02  0.26938221137E+02  0.00000000000E+00 0. -1.
        -12    1    6    6    0    0  0.98693627592E+02 -0.17724644064E+02  0.75962458226E+03  0.76621413528E+03  0.00000000000E+00 0.  1.
</event>
<event>
12    1  0.8563264E-002  0.3469547E+03  0.7818608E-02  0.1064295E+00
         21   -1    0    0  503  502  0.00000000000E+00  0.00000000000E+00  0.10986800338E+04  0.10986800338E+04  0.00000000000E+00 0.  1.
         21   -1    0    0  501  503 -0.00000000000E+00 -0.00000000000E+00 -0.10938565459E+03  0.10938565459E+03  0.00000000000E+00 0.  1.
          6    2    1    2  501    0  0.70371156951E+02 -0.29157021581E+03  0.55799686527E+03  0.65706777889E+03  0.17439115208E+03 0.  0.
         24    2    3    3    0    0  0.77203896250E+02 -0.82837804815E+02  0.22116783565E+03  0.26071971100E+03  0.78974759726E+02 0.  0.
         -6    2    1    2    0  502 -0.70371156951E+02  0.29157021581E+03  0.43129751394E+03  0.55099790949E+03  0.16618020415E+03 0.  0.
        -24    2    5    5    0    0 -0.39148577631E+00  0.18305376563E+03  0.18404968162E+03  0.27202379793E+03  0.81325438578E+02 0.  0.
          5    1    3    3  501    0 -0.68327392995E+01 -0.20873241100E+03  0.33682902962E+03  0.39634806789E+03  0.47000000000E+01 0. -1.
        -11    1    4    4    0    0  0.35537579928E+02 -0.87663514133E+02  0.13446617877E+03  0.16440487989E+03  0.00000000000E+00 0.  1.
         12    1    4    4    0    0  0.41666316322E+02  0.48257093184E+01  0.86701656881E+02  0.96314831112E+02  0.00000000000E+00 0. -1.
         -5    1    5    5    0  502 -0.69979671174E+02  0.10851645018E+03  0.24724783231E+03  0.27897411156E+03  0.47000000000E+01 0.  1.
         13    1    6    6    0    0 -0.25103571076E+02  0.15973297829E+03  0.17175032733E+03  0.23588766092E+03  0.00000000000E+00 0. -1.
        -14    1    6    6    0    0  0.24712085299E+02  0.23320787336E+02  0.12299354294E+02  0.36136137008E+02  0.00000000000E+00 0.  1.
</event>
<event>
12    1  0.8563264E-002  0.2144687E+03  0.7818608E-02  0.1138224E+00
         21   -1    0    0  501  502  0.00000000000E+00  0.00000000000E+00  0.18133963243E+03  0.18133963243E+03  0.00000000000E+00 0. -1.
         21   -1    0    0  502  503 -0.00000000000E+00 -0.00000000000E+00 -0.31642381393E+03  0.31642381393E+03  0.00000000000E+00 0.  1.
         -6    2    1    2    0  503 -0.10628566725E+03  0.71009520056E+02 -0.17929317524E+03  0.27954041751E+03  0.17221442256E+03 0.  0.
        -24    2    3    3    0    0 -0.10167302469E+03  0.76440404142E+01 -0.17233664038E+03  0.21545497565E+03  0.79530457141E+02 0.  0.
          6    2    1    2  501    0  0.10628566725E+03 -0.71009520056E+02  0.44208993738E+02  0.21822302884E+03  0.17125378883E+03 0.  0.
         24    2    5    5    0    0  0.78883964540E+02 -0.92253548806E+02 -0.17809769165E+02  0.14701503055E+03  0.81011321434E+02 0.  0.
          5    1    5    5  501    0  0.27401702710E+02  0.21244028750E+02  0.62018762903E+02  0.71207998294E+02  0.47000000000E+01 0. -1.
        -11    1    6    6    0    0  0.82341047238E+02 -0.88269736075E+02 -0.37679686966E+02  0.12645692222E+03  0.00000000000E+00 0.  1.
         12    1    6    6    0    0 -0.34570826987E+01 -0.39838127312E+01  0.19869917801E+02  0.20558108329E+02  0.00000000000E+00 0. -1.
         -5    1    3    3    0  503 -0.46126425608E+01  0.63365479642E+02 -0.69565348593E+01  0.64085441864E+02  0.47000000000E+01 0.  1.
         13    1    4    4    0    0 -0.63730277242E+02  0.20650189048E+02 -0.41960653213E+02  0.79048560791E+02  0.00000000000E+00 0. -1.
        -14    1    4    4    0    0 -0.37942747447E+02 -0.13006148634E+02 -0.13037598716E+03  0.13640641486E+03  0.00000000000E+00 0.  1.
</event>
<event>
12    1  0.8563264E-002  0.1891213E+03  0.7818608E-02  0.1159979E+00
         21   -1    0    0  503  502  0.00000000000E+00  0.00000000000E+00  0.54456251354E+03  0.54456251354E+03  0.00000000000E+00 0.  1.
         21   -1    0    0  501  503 -0.00000000000E+00 -0.00000000000E+00 -0.79359480662E+02  0.79359480662E+02  0.00000000000E+00 0. -1.
          6    2    1    2  501    0 -0.72031742171E+02  0.28146748106E+02  0.99608414447E+02  0.21374917631E+03  0.17258639238E+03 0.  0.
         24    2    3    3    0    0 -0.14075597374E+01  0.31345826538E+02 -0.44298117610E+01  0.87876018888E+02  0.81963585802E+02 0.  0.
         -6    2    1    2    0  502  0.72031742171E+02 -0.28146748106E+02  0.36559461843E+03  0.41017281789E+03  0.16911979246E+03 0.  0.
        -24    2    5    5    0    0  0.14043498832E+02  0.15096425326E+02  0.78612221735E+02  0.11417688139E+03  0.80195741283E+02 0.  0.
          5    1    3    3  501    0 -0.70624182433E+02 -0.31990784312E+01  0.10403822621E+03  0.12587315742E+03  0.47000000000E+01 0. -1.
        -13    1    4    4    0    0 -0.19526448208E+02  0.50567636769E+02  0.13609053409E+02  0.55888947053E+02  0.00000000000E+00 0.  1.
         14    1    4    4    0    0  0.18118888471E+02 -0.19221810231E+02 -0.18038865170E+02  0.31987071835E+02  0.00000000000E+00 0. -1.
         -5    1    5    5    0  502  0.57988243338E+02 -0.43243173432E+02  0.28698239670E+03  0.29599593651E+03  0.47000000000E+01 0.  1.
         13    1    6    6    0    0 -0.10119522167E+02 -0.23921996787E+02  0.35775586014E+01  0.26219564922E+02  0.00000000000E+00 0. -1.
        -14    1    6    6    0    0  0.24163020999E+02  0.39018422113E+02  0.75034663133E+02  0.87957316464E+02  0.00000000000E+00 0.  1.
</event>
<event>
12    1  0.8563264E-002  0.1784376E+03  0.7818608E-02  0.1169516E+00
         21   -1    0    0  501  502  0.00000000000E+00  0.00000000000E+00  0.94552540858E+02  0.94552540858E+02  0.00000000000E+00 0. -1.
         21   -1    0    0  502  503 -0.00000000000E+00 -0.00000000000E+00 -0.36117936924E+03  0.36117936924E+03  0.00000000000E+00 0.  1.
         -6    2    1    2    0  503  0.24722030101E+02 -0.43247166453E+02 -0.19407561162E+03  0.26310880558E+03  0.17052684354E+03 0.  0.
        -24    2    3    3    0    0  0.37876610249E+01 -0.20844730419E+02 -0.21106785168E+03  0.22774013057E+03  0.82867845975E+02 0.  0.
          6    2    1    2  501    0 -0.24722030101E+02  0.43247166453E+02 -0.72551216762E+02  0.19262310452E+03  0.17134317950E+03 0.  0.
         24    2    5    5    0    0 -0.53006179697E+02  0.23090212539E+02 -0.10547511099E+03  0.14453600936E+03  0.80142660067E+02 0.  0.
          5    1    5    5  501    0  0.28284149597E+02  0.20156953913E+02  0.32923894228E+02  0.48087095157E+02  0.47000000000E+01 0. -1.
        -13    1    6    6    0    0 -0.38694117234E+02  0.45750174445E+02 -0.35599435699E+02  0.69696721532E+02  0.00000000000E+00 0.  1.
         14    1    6    6    0    0 -0.14312062464E+02 -0.22659961906E+02 -0.69875675290E+02  0.74839287829E+02  0.00000000000E+00 0. -1.
         -5    1    3    3    0  503  0.20934369076E+02 -0.22402436034E+02  0.16992240069E+02  0.35368675002E+02  0.47000000000E+01 0.  1.
         11    1    4    4    0    0  0.57299041829E+01  0.20711784644E+02 -0.12499424520E+02  0.24860519673E+02  0.00000000000E+00 0. -1.
        -12    1    4    4    0    0 -0.19422431580E+01 -0.41556515063E+02 -0.19856842716E+03  0.20287961090E+03  0.00000000000E+00 0.  1.
</event>
<event>
12    1  0.8563264E-002  0.2106529E+03  0.7818608E-02  0.1141179E+00
         21   -1    0    0  501  502  0.00000000000E+00  0.00000000000E+00  0.53924114184E+03  0.53924114184E+03  0.00000000000E+00 0. -1.
         21   -1    0    0  502  503 -0.00000000000E+00 -0.00000000000E+00 -0.44582324368E+03  0.44582324368E+03  0.00000000000E+00 0. -1.
         -6    2    1    2    0  503  0.12072082701E+03 -0.10382640135E+02 -0.39821930066E+03  0.45019824411E+03  0.17151830891E+03 0.  0.
        -24    2    3    3    0    0  0.47715489633E+02 -0.69483078963E+02 -0.20897626662E+03  0.23887466027E+03  0.79280244038E+02 0.  0.
          6    2    1    2  501    0 -0.12072082701E+03  0.10382640135E+02  0.49163719881E+03  0.53486614141E+03  0.17231754605E+03 0.  0.
         24    2    5    5    0    0 -0.30740799544E+02  0.32817749603E+01  0.91555407198E+02  0.12470232339E+03  0.78819477721E+02 0.  0.
          5    1    5    5  501    0 -0.89980027463E+02  0.71008651742E+01  0.40008179161E+03  0.41016381802E+03  0.47000000000E+01 0. -1.
        -13    1    6    6    0    0 -0.42216232148E+02 -0.27412079499E+02  0.43439680696E+02  0.66487880235E+02  0.00000000000E+00 0.  1.
         14    1    6    6    0    0  0.11475432604E+02  0.30693854459E+02  0.48115726502E+02  0.58214443155E+02  0.00000000000E+00 0. -1.
         -5    1    3    3    0  503  0.73005337374E+02  0.59100438828E+02 -0.18924303404E+03  0.21132358384E+03  0.47000000000E+01 0.  1.
         11    1    4    4    0    0  0.36398491998E+02 -0.25312930726E+02 -0.28448144300E+02  0.52677239827E+02  0.00000000000E+00 0. -1.
        -12    1    4    4    0    0  0.11316997636E+02 -0.44170148237E+02 -0.18052812232E+03  0.18619742044E+03  0.00000000000E+00 0.  1.
</event>
<event>
12    1  0.8563264E-002  0.2252962E+03  0.7818608E-02  0.1130356E+00
         21   -1    0    0  501  502  0.00000000000E+00  0.00000000000E+00  0.10870427512E+03  0.10870427512E+03  0.00000000000E+00 0.  1.
         21   -1    0    0  502  503 -0.00000000000E+00 -0.00000000000E+00 -0.50635035488E+03  0.50635035488E+03  0.00000000000E+00 0. -1.
         -6    2    1    2    0  503  0.11386311485E+03 -0.84624160687E+02 -0.28817416514E+03  0.36457015918E+03  0.17245577409E+03 0.  0.
        -24    2    3    3    0    0  0.98903379022E+02 -0.42820367822E+02 -0.28803147029E+03  0.31992196598E+03  0.88161636562E+02 0.  0.
          6    2    1    2  501    0 -0.11386311485E+03  0.84624160687E+02 -0.10947191462E+03  0.25048447082E+03  0.17502089172E+03 0.  0.
         24    2    5    5    0    0  0.45872923414E+01  0.40282422229E+01 -0.38495784857E+02  0.90528533040E+02  0.81708138250E+02 0.  0.
          5    1    5    5  501    0 -0.11845040719E+03  0.80595918464E+02 -0.70976129764E+02  0.15995593778E+03  0.47000000000E+01 0. -1.
        -11    1    6    6    0    0  0.22660609980E+02  0.23727668942E+02  0.10722890575E+02  0.34517906952E+02  0.00000000000E+00 0.  1.
         12    1    6    6    0    0 -0.18073317639E+02 -0.19699426719E+02 -0.49218675432E+02  0.56010626088E+02  0.00000000000E+00 0. -1.
         -5    1    3    3    0  503  0.14959735826E+02 -0.41803792865E+02 -0.14269485067E+00  0.44648193196E+02  0.47000000000E+01 0.  1.
         13    1    4    4    0    0  0.44469124556E+02  0.17937819922E+02 -0.16862546208E+03  0.17531062399E+03  0.00000000000E+00 0. -1.
        -14    1    4    4    0    0  0.54434254465E+02 -0.60758187745E+02 -0.11940600821E+03  0.14461134199E+03  0.00000000000E+00 0.  1.
</event>
<event>
12    1  0.8563264E-002  0.2986893E+03  0.7818608E-02  0.1085994E+00
         21   -1    0    0  503  502  0.00000000000E+00  0.00000000000E+00  0.83179792297E+03  0.83179792297E+03  0.00000000000E+00 0. -1.
         21   -1    0    0  501  503 -0.00000000000E+00 -0.00000000000E+00 -0.13145886013E+03  0.13145886013E+03  0.00000000000E+00 0.  1.
          6    2    1    2  501    0 -0.11216502789E+03 -0.21597519035E+03  0.14198431626E+03  0.33003065815E+03  0.17185579109E+03 0.  0.
         24    2    3    3    0    0 -0.14675262491E+03 -0.19238763826E+03  0.11132784033E+03  0.27792898833E+03  0.79380717112E+02 0.  0.
         -6    2    1    2    0  502  0.11216502789E+03  0.21597519035E+03  0.55835474658E+03  0.63322612494E+03  0.17317339852E+03 0.  0.
        -24    2    5    5    0    0  0.93743472776E+02  0.58533711582E+02  0.30356939588E+03  0.33311808130E+03  0.81235730398E+02 0.  0.
          5    1    3    3  501    0  0.34587597029E+02 -0.23587552090E+02  0.30656475932E+02  0.52101669824E+02  0.47000000000E+01 0. -1.
        -11    1    4    4    0    0 -0.77507891460E+01 -0.20166258573E+01 -0.10006184583E+02  0.12816600257E+02  0.00000000000E+00 0.  1.
         12    1    4    4    0    0 -0.13900183577E+03 -0.19037101240E+03  0.12133402491E+03  0.26511238807E+03  0.00000000000E+00 0. -1.
         -5    1    5    5    0  502  0.18421555110E+02  0.15744147876E+03  0.25478535070E+03  0.30010804364E+03  0.47000000000E+01 0.  1.
         11    1    6    6    0    0  0.46972677737E+01  0.39244211836E+02  0.14444981828E+03  0.14975954891E+03  0.00000000000E+00 0. -1.
        -12    1    6    6    0    0  0.89046205002E+02  0.19289499746E+02  0.15911957760E+03  0.18335853239E+03  0.00000000000E+00 0.  1.
</event>
<event>
12    1  0.8563264E-002  0.1877269E+03  0.7818608E-02  0.1160989E+00
         21   -1    0    0  503  502  0.00000000000E+00  0.00000000000E+00  0.11863286157E+03  0.11863286157E+03  0.00000000000E+00 0. -1.
         21   -1    0    0  501  503 -0.00000000000E+00 -0.00000000000E+00 -0.33361054241E+03  0.33361054241E+03  0.00000000000E+00 0. -1.
          6    2    1    2  501    0  0.15559556950E+02 -0.70137888999E+02 -0.28973076471E+02  0.18797252694E+03  0.17126823534E+03 0.  0.
         24    2    3    3    0    0 -0.10164904261E+02  0.13863735461E+01 -0.65520933145E+02  0.10350179908E+03  0.79463088426E+02 0.  0.
         -6    2    1    2    0  502 -0.15559556950E+02  0.70137888999E+02 -0.18600460437E+03  0.26427087705E+03  0.17343575273E+03 0.  0.
        -24    2    5    5    0    0 -0.51078732935E+02  0.43126839790E+02 -0.19293269058E+03  0.21886936804E+03  0.78815074090E+02 0.  0.
          5    1    3    3  501    0  0.25724461211E+02 -0.71524262545E+02  0.36547856674E+02  0.84470727857E+02  0.47000000000E+01 0. -1.
        -11    1    4    4    0    0  0.18213660290E+02  0.32945510966E+02 -0.29259482780E+02  0.47678731595E+02  0.00000000000E+00 0.  1.
         12    1    4    4    0    0 -0.28378564551E+02 -0.31559137420E+02 -0.36261450366E+02  0.55823067484E+02  0.00000000000E+00 0. -1.
         -5    1    5    5    0  502  0.35519175985E+02  0.27011049209E+02  0.69280862064E+01  0.45401509011E+02  0.47000000000E+01 0.  1.
         11    1    6    6    0    0 -0.42231876263E+02  0.59361043429E+02 -0.97769039343E+02  0.12192641184E+03  0.00000000000E+00 0. -1.
        -12    1    6    6    0    0 -0.88468566723E+01 -0.16234203639E+02 -0.95163651234E+02  0.96942956200E+02  0.00000000000E+00 0.  1.
</event>
<event>
12    1  0.8563264E-002  0.2812835E+03  0.7818608E-02  0.1095001E+00
         21   -1    0    0  503  502  0.00000000000E+00  0.00000000000E+00  0.11019653409E+04  0.11019653409E+04  0.00000000000E+00 0.  1.
         21   -1    0    0  501  503 -0.00000000000E+00 -0.00000000000E+00 -0.11012530209E+03  0.11012530209E+03  0.00000000000E+00 0. -1.
          6    2    1    2  501    0 -0.56388836386E+01  0.22265140669E+03  0.13824510410E+03  0.31334445024E+03  0.17166126463E+03 0.  0.
         24    2    3    3    0    0 -0.36994794407E+01  0.25004262120E+02  0.48462420172E+02  0.96201236252E+02  0.79165474894E+02 0.  0.
         -6    2    1    2    0  502  0.56388836386E+01 -0.22265140669E+03  0.85359493474E+03  0.89874619279E+03  0.17179918663E+03 0.  0.
        -24    2    5    5    0    0 -0.61823057328E+02 -0.10437373197E+03  0.44706895858E+03  0.46999663756E+03  0.79436888457E+02 0.  0.
          5    1    3    3  501    0 -0.19394041980E+01  0.19764714457E+03  0.89782683933E+02  0.21714321399E+03  0.47000000000E+01 0. -1.
        -13    1    4    4    0    0 -0.14562879192E+02 -0.89975089423E+01 -0.15409243116E+02  0.23032094801E+02  0.00000000000E+00 0.  1.
         14    1    4    4    0    0  0.10863399751E+02  0.34001771062E+02  0.63871663287E+02  0.73169141451E+02  0.00000000000E+00 0. -1.
         -5    1    5    5    0  502  0.67461940967E+02 -0.11827767472E+03  0.40652597616E+03  0.42874955523E+03  0.47000000000E+01 0.  1.
         13    1    6    6    0    0 -0.64839706007E+01  0.51307779288E+01  0.22533592935E+01  0.85699699540E+01  0.00000000000E+00 0. -1.
        -14    1    6    6    0    0 -0.55339086727E+02 -0.10950450990E+03  0.44481559928E+03  0.46142666760E+03  0.00000000000E+00 0.  1.
</event>
<event>
12    1  0.8563264E-002  0.2354611E+03  0.7818608E-02  0.1123029E+00
         21   -1    0    0  501  502  0.00000000000E+00  0.00000000000E+00  0.40817881546E+03  0.40817881546E+03  0.00000000000E+00 0. -1.
         21   -1    0    0  502  503 -0.00000000000E+00 -0.00000000000E+00 -0.27291942994E+03  0.27291942994E+03  0.00000000000E+00 0. -1.
         -6    2    1    2    0  503 -0.14954263143E+03 -0.58671427315E+02 -0.17417710843E+03  0.29288152191E+03  0.17215279777E+03 0.  0.
        -24    2    3    3    0    0 -0.90206157087E+01  0.31197955269E+01 -0.75250718975E+02  0.11019842841E+03  0.79936964447E+02 0.  0.
          6    2    1    2  501    0  0.14954263143E+03  0.58671427315E+02  0.30943649395E+03  0.38821672349E+03  0.17075112184E+03 0.  0.
         24    2    5    5    0    0  0.15216429398E+03  0.95477495530E+02  0.26977482439E+03  0.33384119771E+03  0.80009780014E+02 0.  0.
          5    1    5    5  501    0 -0.26216625450E+01 -0.36806068215E+02  0.39661669558E+02  0.54375525782E+02  0.47000000000E+01 0. -1.
        -11    1    6    6    0    0  0.70646380216E+02  0.51321883258E+02  0.64364844549E+02  0.10847893783E+03  0.00000000000E+00 0.  1.
         12    1    6    6    0    0  0.81517913759E+02  0.44155612272E+02  0.20540997984E+03  0.22536225988E+03  0.00000000000E+00 0. -1.
         -5    1    3    3    0  503 -0.14052201572E+03 -0.61791222842E+02 -0.98926389456E+02  0.18268309351E+03  0.47000000000E+01 0.  1.
         13    1    4    4    0    0 -0.30082434241E+02  0.30180742958E+02 -0.25133130969E+02  0.49472258567E+02  0.00000000000E+00 0. -1.
        -14    1    4    4    0    0  0.21061818533E+02 -0.27060947431E+02 -0.50117588006E+02  0.60726169839E+02  0.00000000000E+00 0.  1.
</event>
<event>
12    1  0.8563264E-002  0.2022356E+03  0.7818608E-02  0.1148079E+00
         21   -1    0    0  501  502  0.00000000000E+00  0.00000000000E+00  0.20219621416E+03  0.20219621416E+03  0.00000000000E+00 0.  1.
         21   -1    0    0  502  503 -0.00000000000E+00 -0.00000000000E+00 -0.75908243451E+03  0.75908243451E+03  0.00000000000E+00 0.  1.
         -6    2    1    2    0  503 -0.65536750787E+02  0.79215187133E+02 -0.69028174186E+03  0.71901103653E+03  0.17296784653E+03 0.  0.
        -24    2    3    3    0    0 -0.42465429445E+02 -0.22834257479E+02 -0.24181237558E+03  0.25847522087E+03  0.77533855887E+02 0.  0.
          6    2    1    2  501    0  0.65536750787E+02 -0.79215187133E+02  0.13339552151E+03  0.24226761214E+03  0.17415257436E+03 0.  0.
         24    2    5    5    0    0  0.68952598545E+02 -0.61385740245E+02  0.16543320931E+02  0.12392030980E+03  0.80993158728E+02 0.  0.
          5    1    5    5  501    0 -0.34158477586E+01 -0.17829446888E+02  0.11685220057E+03  0.11834730234E+03  0.47000000000E+01 0. -1.
        -11    1    6    6    0    0  0.57112576924E+02 -0.13512456318E+02  0.38234483035E+02  0.70045047017E+02  0.00000000000E+00 0.  1.
         12    1    6    6    0    0  0.11840021621E+02 -0.47873283927E+02 -0.21691162105E+02  0.53875262778E+02  0.00000000000E+00 0. -1.
         -5    1    3    3    0  503 -0.23071321342E+02  0.10204944461E+03 -0.44846936628E+03  0.46053581566E+03  0.47000000000E+01 0.  1.
         13    1    4    4    0    0  0.21318111181E+02  0.46835410652E+01 -0.56193146302E+02  0.60283224139E+02  0.00000000000E+00 0. -1.
        -14    1    4    4    0    0 -0.63783540626E+02 -0.27517798545E+02 -0.18561922928E+03  0.19819199673E+03  0.00000000000E+00 0.  1.
</event>
<event>
12    1  0.8563264E-002  0.1811875E+03  0.7818608E-02  0.1167206E+00
         21   -1    0    0  501  502  0.00000000000E+00  0.00000000000E+00  0.19073096967E+04  0.19073096967E+04  0.00000000000E+00 0. -1.
         21   -1    0    0  502  503 -0.00000000000E+00 -0.00000000000E+00 -0.39807168175E+02  0.39807168175E+02  0.00000000000E+00 0. -1.
         -6    2    1    2    0  503 -0.32492837901E+02 -0.33168000057E+02  0.19931321806E+03  0.26935974335E+03  0.17513712257E+03 0.  0.
        -24    2    3    3    0    0 -0.34510860601E+02  0.70258836844E+01  0.20868331119E+03  0.22777237325E+03  0.84209067848E+02 0.  0.
          6    2    1    2  501    0  0.32492837901E+02  0.33168000057E+02  0.16681893105E+04  0.16777571216E+04  0.17279317851E+03 0.  0.
         24    2    5    5    0    0 -0.14855419165E+02 -0.26264784691E+02  0.75737665739E+03  0.76376812140E+03  0.93871293342E+02 0.  0.
          5    1    5    5  501    0  0.47348257066E+02  0.59432784748E+02  0.91081265311E+03  0.91398900017E+03  0.47000000000E+01 0. -1.
        -11    1    6    6    0    0  0.96210928505E+01  0.15984046770E+02  0.34305372150E+02  0.39050143881E+02  0.00000000000E+00 0.  1.
         12    1    6    6    0    0 -0.24476512016E+02 -0.42248831461E+02  0.72307128524E+03  0.72471797751E+03  0.00000000000E+00 0. -1.
         -5    1    3    3    0  503  0.20180227003E+01 -0.40193883741E+02 -0.93700931327E+01  0.41587370092E+02  0.47000000000E+01 0.  1.
         11    1    4    4    0    0 -0.72879491858E+01  0.34605496048E+02  0.34771859185E+02  0.49595733196E+02  0.00000000000E+00 0. -1.
        -12    1    4    4    0    0 -0.27222911415E+02 -0.27579612364E+02  0.17391145200E+03  0.17817664006E+03  0.00000000000E+00 0.  1.
</event>
<event>
12    1  0.8563264E-002  0.2129511E+03  0.7818608E-02  0.1139285E+00
         21   -1    0    0  501  502  0.00000000000E+00  0.00000000000E+00  0.50864068589E+02  0.50864068589E+02  0.00000000000E+00 0.  1.
         21   -1    0    0  502  503 -0.00000000000E+00 -0.00000000000E+00 -0.12743565843E+04  0.12743565843E+04  0.00000000000E+00 0. -1.
         -6    2    1    2    0  503 -0.91583555063E+02  0.85270113203E+02 -0.24840955131E+03  0.32719332044E+03  0.17230677292E+03 0.  0.
        -24    2    3    3    0    0 -0.53748520054E+02 -0.73807335432E+01 -0.18518186000E+03  0.20872180392E+03  0.79555587639E+02 0.  0.
          6    2    1    2  501    0  0.91583555063E+02 -0.85270113203E+02 -0.97508296438E+03  0.99802733243E+03  0.17208494730E+03 0.  0.
         24    2    5    5    0    0  0.82638385126E+02 -0.11540765031E+03 -0.60437140841E+03  0.62595551821E+03  0.80046755241E+02 0.  0.
          5    1    5    5  501    0  0.89451699366E+01  0.30137537107E+02 -0.37071155597E+03  0.37207181423E+03  0.47000000000E+01 0. -1.
        -13    1    6    6    0    0  0.48284557268E+02 -0.16040036045E+02 -0.12064032748E+03  0.13093040076E+03  0.00000000000E+00 0.  1.
         14    1    6    6    0    0  0.34353827858E+02 -0.99367614266E+02 -0.48373108092E+03  0.49502511745E+03  0.00000000000E+00 0. -1.
         -5    1    3    3    0  503 -0.37835035009E+02  0.92650846747E+02 -0.63227691312E+02  0.11847151652E+03  0.47000000000E+01 0.  1.
         11    1    4    4    0    0 -0.60330742856E+02  0.23371515626E+02 -0.11913516732E+03  0.13556996116E+03  0.00000000000E+00 0. -1.
        -12    1    4    4    0    0  0.65822228018E+01 -0.30752249170E+02 -0.66046692678E+02  0.73151842764E+02  0.00000000000E+00 0.  1.
</event>
<event>
12    1  0.8563264E-002  0.1950919E+03  0.7818608E-02  0.1155816E+00
         21   -1    0    0  501  502  0.00000000000E+00  0.00000000000E+00  0.96580269619E+03  0.96580269619E+03  0.00000000000E+00 0.  1.
         21   -1    0    0  502  503 -0.00000000000E+00 -0.00000000000E+00 -0.93560056684E+02  0.93560056684E+02  0.00000000000E+00 0.  1.
         -6    2    1    2    0  503  0.31203438172E+02  0.82730865851E+02  0.23145186379E+02  0.18814099537E+03  0.16444842282E+03 0.  0.
        -24    2    3    3    0    0  0.69128855369E+02  0.14429674479E+02  0.17300695322E+01  0.10699860668E+03  0.80366003636E+02 0.  0.
          6    2    1    2  501    0 -0.31203438172E+02 -0.82730865851E+02  0.84909745313E+03  0.87122175751E+03  0.17390461503E+03 0.  0.
         24    2    5    5    0    0 -0.16871636984E+02  0.41166048078E+01  0.33912902921E+03  0.35369130712E+03  0.98931510195E+02 0.  0.
          5    1    5    5  501    0 -0.14331801188E+02 -0.86847470659E+02  0.50996842392E+03  0.51753045039E+03  0.47000000000E+01 0. -1.
        -13    1    6    6    0    0  0.37057271358E+02 -0.19133585691E+02  0.13818803741E+03  0.14434427299E+03  0.00000000000E+00 0.  1.
         14    1    6    6    0    0 -0.53928908342E+02  0.23250190499E+02  0.20094099181E+03  0.20934703414E+03  0.00000000000E+00 0. -1.
         -5    1    3    3    0  503 -0.37925417198E+02  0.68301191372E+02  0.21415116847E+02  0.81142388688E+02  0.47000000000E+01 0.  1.
         13    1    4    4    0    0  0.59722347131E+02 -0.12293101656E+02 -0.26968765887E+02  0.66672283811E+02  0.00000000000E+00 0. -1.
        -14    1    4    4    0    0  0.94065082384E+01  0.26722776134E+02  0.28698835419E+02  0.40326322867E+02  0.00000000000E+00 0.  1.
</event>
<event>
12    1  0.8563264E-002  0.3241810E+03  0.7818608E-02  0.1074161E+00
         21   -1    0    0  503  502  0.00000000000E+00  0.00000000000E+00  0.65747696903E+03  0.65747696903E+03  0.00000000000E+00 0.  1.
         21   -1    0    0  501  503 -0.00000000000E+00 -0.00000000000E+00 -0.39583347021E+03  0.39583347021E+03  0.00000000000E+00 0. -1.
          6    2    1    2  501    0  0.17407385922E+03 -0.21222464676E+03 -0.27708413502E+03  0.42646098139E+03  0.17248867096E+03 0.  0.
         24    2    3    3    0    0  0.51104857921E+02 -0.23389458960E+02 -0.68936715715E+02  0.11965886015E+03  0.80044979515E+02 0.  0.
         -6    2    1    2    0  502 -0.17407385922E+03  0.21222464676E+03  0.53872763383E+03  0.62684945785E+03  0.16544416034E+03 0.  0.
        -24    2    5    5    0    0 -0.19017893614E+03  0.20395180221E+03  0.53410760697E+03  0.60758165809E+03  0.78231515644E+02 0.  0.
          5    1    3    3  501    0  0.12296900130E+03 -0.18883518780E+03 -0.20814741930E+03  0.30680212124E+03  0.47000000000E+01 0. -1.
        -13    1    4    4    0    0  0.53002836316E+02 -0.38578431405E+01 -0.57006395583E+01  0.53447927019E+02  0.00000000000E+00 0.  1.
         14    1    4    4    0    0 -0.18979783954E+01 -0.19531615819E+02 -0.63236076157E+02  0.66210933132E+02  0.00000000000E+00 0. -1.
         -5    1    5    5    0  502  0.16105076919E+02  0.82728445500E+01  0.46200268621E+01  0.19267799763E+02  0.47000000000E+01 0.  1.
         13    1    6    6    0    0  0.24874093371E+01  0.14699577228E+02  0.99036055189E+01  0.17898217178E+02  0.00000000000E+00 0. -1.
        -14    1    6    6    0    0 -0.19266634547E+03  0.18925222499E+03  0.52420400145E+03  0.58968344091E+03  0.00000000000E+00 0.  1.
</event>
<event>
12    1  0.8563264E-002  0.3065957E+03  0.7818608E-02  0.1082184E+00
         21   -1    0    0  503  502  0.00000000000E+00  0.00000000000E+00  0.11456502926E+04  0.11456502926E+04  0.00000000000E+00 0.  1.
         21   -1    0    0  501  503 -0.00000000000E+00 -0.00000000000E+00 -0.14117123134E+03  0.14117123134E+03  0.00000000000E+00 0.  1.
          6    2    1    2  501    0  0.17044857362E+03 -0.18859800367E+03  0.83602360203E+02  0.31624703739E+03  0.16852569771E+03 0.  0.
         24    2    3    3    0    0  0.45688965218E+02 -0.11750465007E+03  0.17404246854E+00  0.15010974773E+03  0.81474423861E+02 0.  0.
         -6    2    1    2    0  502 -0.17044857362E+03  0.18859800367E+03  0.92087670104E+03  0.97057448654E+03  0.17140306929E+03 0.  0.
        -24    2    5    5    0    0 -0.15442364499E+03  0.19993111278E+03  0.69436701923E+03  0.74316744256E+03  0.79581268452E+02 0.  0.
          5    1    3    3  501    0  0.12475960840E+03 -0.71093353601E+02  0.83428317734E+02  0.16613728965E+03  0.47000000000E+01 0. -1.
        -11    1    4    4    0    0  0.52967050818E+02 -0.41963892945E+02 -0.21965003949E+02  0.71055880699E+02  0.00000000000E+00 0.  1.
         12    1    4    4    0    0 -0.72780856000E+01 -0.75540757125E+02  0.22139046417E+02  0.79053867035E+02  0.00000000000E+00 0. -1.
         -5    1    5    5    0  502 -0.16024928624E+02 -0.11333109110E+02  0.22650968181E+03  0.22740704398E+03  0.47000000000E+01 0.  1.
         13    1    6    6    0    0 -0.42767604365E+02  0.11001949293E+03  0.25478641163E+03  0.28080148211E+03  0.00000000000E+00 0. -1.
        -14    1    6    6    0    0 -0.11165604063E+03  0.89911619846E+02  0.43958060761E+03  0.46236596044E+03  0.00000000000E+00 0.  1.
</event>
<event>
12    1  0.8563264E-002  0.2003999E+03  0.7818608E-02  0.1150852E+00
         21   -1    0    0  503  502  0.00000000000E+00  0.00000000000E+00  0.17072881226E+04  0.17072881226E+04  0.00000000000E+00 0.  1.
         21   -1    0    0  501  503 -0.00000000000E+00 -0.00000000000E+00 -0.26455211047E+02  0.26455211047E+02  0.00000000000E+00 0.  1.
          6    2    1    2  501    0  0.74615195084E+02  0.24968447871E+02  0.52778845629E+03  0.56455358923E+03  0.18430748708E+03 0.  0.
         24    2    3    3    0    0  0.10478948537E+03 -0.31377020738E+02  0.39809026793E+03  0.41988496896E+03  0.76564822620E+02 0.  0.
         -6    2    1    2    0  502 -0.74615195084E+02 -0.24968447871E+02  0.11530444552E+04  0.11691897444E+04  0.17692453732E+03 0.  0.
        -24    2    5    5    0    0  0.31207911771E+02 -0.18173261155E+02  0.52054443082E+03  0.52784500449E+03  0.79684648028E+02 0.  0.
          5    1    3    3  501    0 -0.30174290290E+02  0.56345468609E+02  0.12969818836E+03  0.14466862028E+03  0.47000000000E+01 0. -1.
        -11    1    4    4    0    0  0.18420832680E+02 -0.42487217660E+02  0.12947737539E+03  0.13750956869E+03  0.00000000000E+00 0.  1.
         12    1    4    4    0    0  0.86368652694E+02  0.11110196922E+02  0.26861289253E+03  0.28237540027E+03  0.00000000000E+00 0. -1.
         -5    1    5    5    0  502 -0.10582310685E+03 -0.67951867165E+01  0.63250002441E+03  0.64134473989E+03  0.47000000000E+01 0.  1.
         11    1    6    6    0    0  0.30649077943E+02  0.21769831191E+02  0.37623868779E+03  0.37811220784E+03  0.00000000000E+00 0. -1.
        -12    1    6    6    0    0  0.55883382752E+00 -0.39943092345E+02  0.14430574303E+03  0.14973279665E+03  0.00000000000E+00 0.  1.
</event>
<event>
12    1  0.8563264E-002  0.2375476E+03  0.7818608E-02  0.1121472E+00
         21   -1    0    0  503  502  0.00000000000E+00  0.00000000000E+00  0.26017744385E+03  0.26017744385E+03  0.00000000000E+00 0. -1.
         21   -1    0    0  501  503 -0.00000000000E+00 -0.00000000000E+00 -0.22499567533E+03  0.22499567533E+03  0.00000000000E+00 0.  1.
          6    2    1    2  501    0 -0.64879073270E+02 -0.15059608608E+03 -0.28989820347E+02  0.23930998331E+03  0.17187316002E+03 0.  0.
         24    2    3    3    0    0 -0.77012381302E+02 -0.49981725011E+02 -0.56347317370E+02  0.13423387061E+03  0.80091398631E+02 0.  0.
         -6    2    1    2    0  502  0.64879073270E+02  0.15059608608E+03  0.64171588871E+02  0.24586313587E+03  0.17158733483E+03 0.  0.
        -24    2    5    5    0    0  0.16772467771E+01  0.15327190731E+03  0.58529841749E+02  0.18217993399E+03  0.79175092340E+02 0.  0.
          5    1    3    3  501    0  0.12133308032E+02 -0.10061436107E+03  0.27357497023E+02  0.10507611270E+03  0.47000000000E+01 0. -1.
        -11    1    4    4    0    0 -0.18785424557E+02 -0.42469414754E+02 -0.59455565335E+02  0.75442081193E+02  0.00000000000E+00 0.  1.
         12    1    4    4    0    0 -0.58226956746E+02 -0.75123102569E+01  0.31082479653E+01  0.58791789416E+02  0.00000000000E+00 0. -1.
         -5    1    5    5    0  502  0.63201826493E+02 -0.26758212333E+01  0.56417471213E+01  0.63683201882E+02  0.47000000000E+01 0.  1.
         13    1    6    6    0    0  0.13966169353E+02  0.11503616481E+03  0.75791352353E+02  0.13846552709E+03  0.00000000000E+00 0. -1.
        -14    1    6    6    0    0 -0.12288922575E+02  0.38235742500E+02 -0.17261510604E+02  0.43714406903E+02  0.00000000000E+00 0.  1.
</event>
<event>
12    1  0.8563264E-002  0.1952467E+03  0.7818608E-02  0.1155163E+00
         21   -1    0    0  503  502  0.00000000000E+00  0.00000000000E+00  0.32840453253E+02  0.32840453253E+02  0.00000000000E+00 0.  1.
         21   -1    0    0  501  503 -0.00000000000E+00 -0.00000000000E+00 -0.12278087572E+04  0.12278087572E+04  0.00000000000E+00 0. -1.
          6    2    1    2  501    0  0.80330513406E+02 -0.13111722973E+02 -0.77134292495E+03  0.79419479471E+03  0.17073533734E+03 0.  0.
         24    2    3    3    0    0 -0.38652817192E+00 -0.54552706177E+02 -0.40558949137E+03  0.41732577228E+03  0.81742385263E+02 0.  0.
         -6    2    1    2    0  502 -0.80330513406E+02  0.13111722973E+02 -0.42362537897E+03  0.46645441571E+03  0.17747211490E+03 0.  0.
        -24    2    5    5    0    0 -0.60531383016E+01 -0.41084432248E+02 -0.29235339788E+03  0.30611485505E+03  0.80692156849E+02 0.  0.
          5    1    3    3  501    0  0.80717041578E+02  0.41440983205E+02 -0.36575343358E+03  0.37686902243E+03  0.47000000000E+01 0. -1.
        -13    1    4    4    0    0 -0.39707578782E+02 -0.16040837264E+02 -0.19660164690E+03  0.20121184815E+03  0.00000000000E+00 0.  1.
         14    1    4    4    0    0  0.39321050610E+02 -0.38511868914E+02 -0.20898784447E+03  0.21611392413E+03  0.00000000000E+00 0. -1.
         -5    1    5    5    0  502 -0.74277375104E+02  0.54196155220E+02 -0.13127198109E+03  0.16033956066E+03  0.47000000000E+01 0.  1.
         11    1    6    6    0    0 -0.39875033678E+02 -0.17653368769E+02 -0.95181276167E+02  0.10469543960E+03  0.00000000000E+00 0. -1.
        -12    1    6    6    0    0  0.33821895376E+02 -0.23431063479E+02 -0.19717212171E+03  0.20141941546E+03  0.00000000000E+00 0.  1.
</event>
<event>
12    1  0.8563264E-002  0.1762674E+03  0.7818608E-02  0.1171889E+00
         21   -1    0    0  501  502  0.00000000000E+00  0.00000000000E+00  0.12650800215E+02  0.12650800215E+02  0.00000000000E+00 0.  1.
         21   -1    0    0  502  503 -0.00000000000E+00 -0.00000000000E+00 -0.26643911684E+04  0.26643911684E+04  0.00000000000E+00 0. -1.
         -6    2    1    2    0  503 -0.76750773252E+01  0.35063183849E+02 -0.17149718675E+04  0.17238340138E+04  0.17084164346E+03 0.  0.
        -24    2    3    3    0    0  0.30992971659E+02  0.74880366864E+02 -0.13294901650E+04  0.13343486366E+04  0.79840788943E+02 0.  0.
          6    2    1    2  501    0  0.76750773252E+01 -0.35063183849E+02 -0.93676850063E+03  0.95320795476E+03  0.17257417991E+03 0.  0.
         24    2    5    5    0    0 -0.57529457257E+02 -0.36311556065E+02 -0.67257909743E+03  0.68104748643E+03  0.82673265965E+02 0.  0.
          5    1    5    5  501    0  0.65204534582E+02  0.12483722160E+01 -0.26418940320E+03  0.27216046834E+03  0.47000000000E+01 0. -1.
        -11    1    6    6    0    0  0.14223151347E+02 -0.45876048043E+01 -0.28246861392E+02  0.31956678966E+02  0.00000000000E+00 0.  1.
         12    1    6    6    0    0 -0.71752608603E+02 -0.31723951261E+02 -0.64433223604E+03  0.64909080746E+03  0.00000000000E+00 0. -1.
         -5    1    3    3    0  503 -0.38668048984E+02 -0.39817183015E+02 -0.38548170254E+03  0.38948537722E+03  0.47000000000E+01 0.  1.
         13    1    4    4    0    0 -0.19574323033E+02  0.23335823739E+02 -0.71196199252E+03  0.71261321457E+03  0.00000000000E+00 0. -1.
        -14    1    4    4    0    0  0.50567294693E+02  0.51544543124E+02 -0.61752817246E+03  0.62173542202E+03  0.00000000000E+00 0.  1.
</event>
<event>
12    1  0.8563264E-002  0.3435423E+03  0.7818608E-02  0.1065580E+00
         21   -1    0    0  501  502  0.00000000000E+00  0.00000000000E+00  0.87821612430E+03  0.87821612430E+03  0.00000000000E+00 0. -1.
         21   -1    0    0  502  503 -0.00000000000E+00 -0.00000000000E+00 -0.56940211123E+03  0.56940211123E+03  0.00000000000E+00 0.  1.
         -6    2    1    2    0  503  0.21900597458E+03 -0.19784784874E+03 -0.47914824138E+03  0.58802192844E+03  0.17052672213E+03 0.  0.
        -24    2    3    3    0    0  0.20175883419E+03 -0.10299718939E+03 -0.38165742361E+03  0.45083351429E+03  0.79204926668E+02 0.  0.
          6    2    1    2  501    0 -0.21900597458E+03  0.19784784874E+03  0.78796225445E+03  0.85959630708E+03  0.17582351538E+03 0.  0.
         24    2    5    5    0    0 -0.17677255026E+03  0.18396328186E+03  0.49176324673E+03  0.56004266331E+03  0.82010184046E+02 0.  0.
          5    1    5    5  501    0 -0.42233424318E+02  0.13884566877E+02  0.29619900772E+03  0.29955364378E+03  0.47000000000E+01 0. -1.
        -11    1    6    6    0    0 -0.15438894364E+03  0.10871664501E+03  0.36468748081E+03  0.41067287892E+03  0.00000000000E+00 0.  1.
         12    1    6    6    0    0 -0.22383606621E+02  0.75246636852E+02  0.12707576592E+03  0.14936978439E+03  0.00000000000E+00 0. -1.
         -5    1    3    3    0  503  0.17247140388E+02 -0.94850659344E+02 -0.97490817769E+02  0.13718841416E+03  0.47000000000E+01 0.  1.
         11    1    4    4    0    0  0.64026811108E+02 -0.59706878042E+01 -0.61121720442E+02  0.88718354152E+02  0.00000000000E+00 0. -1.
        -12    1    4    4    0    0  0.13773202309E+03 -0.97026501589E+02 -0.32053570317E+03  0.36211516013E+03  0.00000000000E+00 0.  1.
</event>
<event>
12    1  0.8563264E-002  0.2120843E+03  0.7818608E-02  0.1140117E+00
         21   -1    0    0  501  502  0.00000000000E+00  0.00000000000E+00  0.38090085943E+03  0.38090085943E+03  0.00000000000E+00 0.  1.
         21   -1    0    0  502  503 -0.00000000000E+00 -0.00000000000E+00 -0.25536003690E+03  0.25536003690E+03  0.00000000000E+00 0.  1.
         -6    2    1    2    0  503  0.11387174210E+03  0.48600758139E+02  0.29654666719E+03  0.36458152841E+03  0.17219453447E+03 0.  0.
        -24    2    3    3    0    0  0.63205758983E+01 -0.13558017087E+02  0.16191259972E+03  0.18133473087E+03  0.80267211007E+02 0.  0.
          6    2    1    2  501    0 -0.11387174210E+03 -0.48600758139E+02 -0.17100584466E+03  0.27167936792E+03  0.17099085561E+03 0.  0.
         24    2    5    5    0    0 -0.12913078795E+03 -0.56962282593E+02 -0.83493497071E+02  0.18233030775E+03  0.79710194067E+02 0.  0.
          5    1    5    5  501    0  0.15259045844E+02  0.83615244533E+01 -0.87512347592E+02  0.89349060165E+02  0.47000000000E+01 0. -1.
        -11    1    6    6    0    0  0.61545049245E+00 -0.30364749051E+01 -0.32819185278E+02  0.32965100963E+02  0.00000000000E+00 0.  1.
         12    1    6    6    0    0 -0.12974623844E+03 -0.53925807687E+02 -0.50674311793E+02  0.14936520679E+03  0.00000000000E+00 0. -1.
         -5    1    3    3    0  503  0.10755116620E+03  0.62158775226E+02  0.13463406747E+03  0.18324679755E+03  0.47000000000E+01 0.  1.
         11    1    4    4    0    0  0.10919394412E+02 -0.60674242673E+01 -0.55302951547E+01  0.13661294816E+02  0.00000000000E+00 0. -1.
        -12    1    4    4    0    0 -0.45988185132E+01 -0.74905928193E+01  0.16744289488E+03  0.16767343605E+03  0.00000000000E+00 0.  1.
</event>
<event>
12    1  0.8563264E-002  0.2505842E+03  0.7818608E-02  0.1113095E+00
         21   -1    0    0  503  502  0.00000000000E+00  0.00000000000E+00  0.13503367924E+03  0.13503367924E+03  0.00000000000E+00 0.  1.
         21   -1    0    0  501  503 -0.00000000000E+00 -0.00000000000E+00 -0.18879031838E+04  0.18879031838E+04  0.00000000000E+00 0.  1.
          6    2    1    2  501    0  0.12506138571E+03 -0.13128215389E+03 -0.17546852560E+04  0.17723461205E+04  0.17150821876E+03 0.  0.
         24    2    3    3    0    0  0.14332430431E+03 -0.11039261206E+03 -0.16937875268E+04  0.17052601266E+04  0.79167723821E+02 0.  0.
         -6    2    1    2    0  502 -0.12506138571E+03  0.13128215389E+03  0.18157514402E+01  0.25059074254E+03  0.17296551438E+03 0.  0.
        -24    2    5    5    0    0 -0.56657635237E+02  0.14516757565E+03 -0.20769556923E+02  0.17707840228E+03  0.81496462561E+02 0.  0.
          5    1    3    3  501    0 -0.18262918599E+02 -0.20889541834E+02 -0.60897729259E+02  0.67085993938E+02  0.47000000000E+01 0. -1.
        -11    1    4    4    0    0  0.14239889701E+03 -0.73925782699E+02 -0.13275264466E+04  0.13371869479E+04  0.00000000000E+00 0.  1.
         12    1    4    4    0    0  0.92540729588E+00 -0.36466829361E+02 -0.36626108017E+03  0.36807317869E+03  0.00000000000E+00 0. -1.
         -5    1    5    5    0  502 -0.68403750471E+02 -0.13885421754E+02  0.22585308363E+02  0.73512340254E+02  0.47000000000E+01 0.  1.
         11    1    6    6    0    0 -0.32320717369E+02  0.69389258966E+02 -0.50955127545E+02  0.91956093078E+02  0.00000000000E+00 0. -1.
        -12    1    6    6    0    0 -0.24336917867E+02  0.75778316681E+02  0.30185570622E+02  0.85122309203E+02  0.00000000000E+00 0.  1.
</event>
<event>
12    1  0.8563264E-002  0.2181589E+03  0.7818608E-02  0.1135354E+00
         21   -1    0    0  501  502  0.00000000000E+00  0.00000000000E+00  0.60877434413E+03  0.60877434413E+03  0.00000000000E+00 0. -1.
         21   -1    0    0  502  503 -0.00000000000E+00 -0.00000000000E+00 -0.78579862831E+02  0.78579862831E+02  0.00000000000E+00 0.  1.
         -6    2    1    2    0  503 -0.93980933587E+02  0.94954904490E+02  0.23542526106E+03  0.32063608166E+03  0.17185340716E+03 0.  0.
        -24    2    3    3    0    0 -0.95664344858E+02  0.11433954705E+03  0.13054940394E+03  0.21386701475E+03  0.80440998469E+02 0.  0.
          6    2    1    2  501    0  0.93980933587E+02 -0.94954904490E+02  0.29476922024E+03  0.36671812530E+03  0.17246576605E+03 0.  0.
         24    2    5    5    0    0  0.10975641516E+03 -0.12320996974E+03  0.23754053545E+03  0.30080585866E+03  0.82652836071E+02 0.  0.
          5    1    5    5  501    0 -0.15775481569E+02  0.28255065254E+02  0.57228684786E+02  0.65912266639E+02  0.47000000000E+01 0. -1.
        -11    1    6    6    0    0  0.23421022789E+02 -0.18764733700E+02  0.32983133965E+01  0.30191694397E+02  0.00000000000E+00 0.  1.
         12    1    6    6    0    0  0.86335392367E+02 -0.10444523604E+03  0.23424222205E+03  0.27061416426E+03  0.00000000000E+00 0. -1.
         -5    1    3    3    0  503  0.16834112710E+01 -0.19384642556E+02  0.10487585713E+03  0.10676906691E+03  0.47000000000E+01 0.  1.
         13    1    4    4    0    0  0.35218339321E+01 -0.98455852972E+01  0.75396597077E+01  0.12891289020E+02  0.00000000000E+00 0. -1.
        -14    1    4    4    0    0 -0.99186178790E+02  0.12418513234E+03  0.12300974423E+03  0.20097572573E+03  0.00000000000E+00 0.  1.
</event>
<event>
12    1  0.8563264E-002  0.2198801E+03  0.7818608E-02  0.1136298E+00
         21   -1    0    0  501  502  0.00000000000E+00  0.00000000000E+00  0.53366239835E+02  0.53366239835E+02  0.00000000000E+00 0. -1.
         21   -1    0    0  502  503 -0.00000000000E+00 -0.00000000000E+00 -0.98952723552E+03  0.98952723552E+03  0.00000000000E+00 0. -1.
         -6    2    1    2    0  503 -0.11685777068E+03 -0.42309977044E+02 -0.64752356060E+03  0.68004527492E+03  0.16652009393E+03 0.  0.
        -24    2    3    3    0    0 -0.16796395531E+02 -0.69570041506E+02 -0.42894049473E+03  0.43806172879E+03  0.52782768356E+02 0.  0.
          6    2    1    2  501    0  0.11685777068E+03  0.42309977044E+02 -0.28863743508E+03  0.36284820043E+03  0.18138736146E+03 0.  0.
         24    2    5    5    0    0  0.74991622849E+02 -0.24438335241E+02 -0.25202390167E+03  0.27583813000E+03  0.79684698797E+02 0.  0.
          5    1    5    5  501    0  0.41866147835E+02  0.66748312285E+02 -0.36613533414E+02  0.87010070431E+02  0.47000000000E+01 0. -1.
        -11    1    6    6    0    0  0.74994224931E+02  0.74062632183E+01 -0.13555203912E+03  0.15509139827E+03  0.00000000000E+00 0.  1.
         12    1    6    6    0    0 -0.26020814968E-02 -0.31844598459E+02 -0.11647186255E+03  0.12074673173E+03  0.00000000000E+00 0. -1.
         -5    1    3    3    0  503 -0.10006137515E+03  0.27260064462E+02 -0.21858306587E+03  0.24198354613E+03  0.47000000000E+01 0.  1.
         13    1    4    4    0    0  0.14865499675E+02 -0.27443750976E+02 -0.95185575837E+02  0.10017203400E+03  0.00000000000E+00 0. -1.
        -14    1    4    4    0    0 -0.31661895205E+02 -0.42126290530E+02 -0.33375491889E+03  0.33788969479E+03  0.00000000000E+00 0.  1.
</event>
<event>
12    1  0.8563264E-002  0.1966586E+03  0.7818608E-02  0.1153894E+00
         21   -1    0    0  503  502  0.00000000000E+00  0.00000000000E+00  0.32803507227E+02  0.32803507227E+02  0.00000000000E+00 0.  1.
         21   -1    0    0  501  503 -0.00000000000E+00 -0.00000000000E+00 -0.11682117837E+04  0.11682117837E+04  0.00000000000E+00 0.  1.
          6    2    1    2  501    0  0.38104989344E+02 -0.71615423056E+02 -0.47191977093E+03  0.50899535514E+03  0.17258980944E+03 0.  0.
         24    2    3    3    0    0  0.91853919553E+02 -0.51926264760E+02 -0.30929178894E+03  0.33652344154E+03  0.80331416593E+02 0.  0.
         -6    2    1    2    0  502 -0.38104989344E+02  0.71615423056E+02 -0.66348850551E+03  0.69201993575E+03  0.17914752443E+03 0.  0.
        -24    2    5    5    0    0 -0.93656839122E+01 -0.14111196221E+02 -0.17206665066E+03  0.19232750000E+03  0.84238311314E+02 0.  0.
          5    1    3    3  501    0 -0.53748930209E+02 -0.19689158297E+02 -0.16262798199E+03  0.17247191360E+03  0.47000000000E+01 0. -1.
        -11    1    4    4    0    0  0.74706342866E+02 -0.91567733573E+00 -0.13732972633E+03  0.15633723122E+03  0.00000000000E+00 0.  1.
         12    1    4    4    0    0  0.17147576687E+02 -0.51010587424E+02 -0.17196206260E+03  0.18018621032E+03  0.00000000000E+00 0. -1.
         -5    1    5    5    0  502 -0.28739305432E+02  0.85726619278E+02 -0.49142185485E+03  0.49969243576E+03  0.47000000000E+01 0.  1.
         13    1    6    6    0    0  0.11974596988E+02  0.31998257283E+02 -0.83545030711E+02  0.90261019265E+02  0.00000000000E+00 0. -1.
        -14    1    6    6    0    0 -0.21340280900E+02 -0.46109453504E+02 -0.88521619946E+02  0.10206648073E+03  0.00000000000E+00 0.  1.
</event>
<event>
12    1  0.8563264E-002  0.2491536E+03  0.7818608E-02  0.1113902E+00
         21   -1    0    0  501  502  0.00000000000E+00  0.00000000000E+00  0.55583195518E+03  0.55583195518E+03  0.00000000000E+00 0. -1.
         21   -1    0    0  502  503 -0.00000000000E+00 -0.00000000000E+00 -0.17515403098E+03  0.17515403098E+03  0.00000000000E+00 0.  1.
         -6    2    1    2    0  503 -0.17925627986E+03 -0.37647038272E+01 -0.30070319365E+02  0.25057822564E+03  0.17244777817E+03 0.  0.
        -24    2    3    3    0    0 -0.46317790820E+02  0.49856395625E+02 -0.48992858181E+01  0.10496388877E+03  0.79764760469E+02 0.  0.
          6    2    1    2  501    0  0.17925627986E+03  0.37647038272E+01  0.41074824357E+03  0.48040776051E+03  0.17300436383E+03 0.  0.
         24    2    5    5    0    0  0.18445529973E+03 -0.16643650593E+02  0.26349877700E+03  0.33158563131E+03  0.78845777981E+02 0.  0.
          5    1    5    5  501    0 -0.51990198715E+01  0.20408354421E+02  0.14724946656E+03  0.14882212920E+03  0.47000000000E+01 0. -1.
        -11    1    6    6    0    0  0.17800083766E+03 -0.30531976169E+02  0.25876397663E+03  0.31555553454E+03  0.00000000000E+00 0.  1.
         12    1    6    6    0    0  0.64544620645E+01  0.13888325576E+02  0.47348003735E+01  0.16030096769E+02  0.00000000000E+00 0. -1.
         -5    1    3    3    0  503 -0.13293848904E+03 -0.53621099452E+02 -0.25171033546E+02  0.14561433687E+03  0.47000000000E+01 0.  1.
         11    1    4    4    0    0 -0.49788111430E+02  0.14562343187E+02  0.25910986221E+02  0.57985317847E+02  0.00000000000E+00 0. -1.
        -12    1    4    4    0    0  0.34703206100E+01  0.35294052438E+02 -0.30810272039E+02  0.46978570921E+02  0.00000000000E+00 0.  1.
</event>
<event>
12    1  0.8563264E-002  0.1806950E+03  0.7818608E-02  0.1167950E+00
         21   -1    0    0  501  502  0.00000000000E+00  0.00000000000E+00  0.12554014917E+03  0.12554014917E+03  0.00000000000E+00 0.  1.
         21   -1    0    0  502  503 -0.00000000000E+00 -0.00000000000E+00 -0.36408812864E+03  0.36408812864E+03  0.00000000000E+00 0.  1.
         -6    2    1    2    0  503  0.32340374429E+02  0.31235384519E+02 -0.25390084158E+03  0.31163491686E+03  0.17501181385E+03 0.  0.
        -24    2    3    3    0    0  0.17774032583E+02 -0.48054679752E+02 -0.98188128601E+02  0.13622787142E+03  0.79321849911E+02 0.  0.
          6    2    1    2  501    0 -0.32340374429E+02 -0.31235384519E+02  0.15352862108E+02  0.17799336095E+03  0.17153535234E+03 0.  0.
         24    2    5    5    0    0  0.18400699934E+02 -0.62600524251E+02 -0.23956071738E+02  0.10639929067E+03  0.80557459545E+02 0.  0.
          5    1    5    5  501    0 -0.50741074363E+02  0.31365139732E+02  0.39308933846E+02  0.71594070271E+02  0.47000000000E+01 0. -1.
        -13    1    6    6    0    0  0.28078635166E+02  0.35309278632E+01  0.11728319389E+02  0.30633815957E+02  0.00000000000E+00 0.  1.
         14    1    6    6    0    0 -0.96779352323E+01 -0.66131452114E+02 -0.35684391127E+02  0.75765474717E+02  0.00000000000E+00 0. -1.
         -5    1    3    3    0  503  0.14566341847E+02  0.79290064271E+02 -0.15571271298E+03  0.17540704544E+03  0.47000000000E+01 0.  1.
         11    1    4    4    0    0 -0.55372028275E+01  0.71272406445E+01  0.94348519308E+01  0.13056592408E+02  0.00000000000E+00 0. -1.
        -12    1    4    4    0    0  0.23311235410E+02 -0.55181920396E+02 -0.10762298053E+03  0.12317127901E+03  0.00000000000E+00 0.  1.
</event>
<event>
12    1  0.8563264E-002  0.2904934E+03  0.7818608E-02  0.1090110E+00
         21   -1    0    0  501  502  0.00000000000E+00  0.00000000000E+00  0.10290772779E+03  0.10290772779E+03  0.00000000000E+00 0. -1.
         21   -1    0    0  502  503 -0.00000000000E+00 -0.00000000000E+00 -0.11394800451E+04  0.11394800451E+04  0.00000000000E+00 0.  1.
         -6    2    1    2    0  503 -0.23274107219E+03 -0.22938107262E+02 -0.84749464437E+03  0.89589820208E+03  0.17231324033E+03 0.  0.
        -24    2    3    3    0    0 -0.18796185221E+03  0.43058013434E+02 -0.60011231564E+03  0.63593517960E+03  0.84232481001E+02 0.  0.
          6    2    1    2  501    0  0.23274107219E+03  0.22938107262E+02 -0.18907767299E+03  0.34648957086E+03  0.17207583458E+03 0.  0.
         24    2    5    5    0    0  0.91264692326E+02 -0.27634528327E+02 -0.14230667874E+03  0.18906411729E+03  0.80007114750E+02 0.  0.
          5    1    5    5  501    0  0.14147637986E+03  0.50572635589E+02 -0.46770994243E+02  0.15742545357E+03  0.47000000000E+01 0. -1.
        -11    1    6    6    0    0  0.77300364575E+02 -0.10833760445E+02 -0.14725559726E+03  0.16666411627E+03  0.00000000000E+00 0.  1.
         12    1    6    6    0    0  0.13964327751E+02 -0.16800767882E+02  0.49489185187E+01  0.22400001015E+02  0.00000000000E+00 0. -1.
         -5    1    3    3    0  503 -0.44779219980E+02 -0.65996120696E+02 -0.24738232873E+03  0.25996302248E+03  0.47000000000E+01 0.  1.
         13    1    4    4    0    0 -0.16096469872E+03  0.15628265433E+02 -0.38791730078E+03  0.42027813309E+03  0.00000000000E+00 0. -1.
        -14    1    4    4    0    0 -0.26997153484E+02  0.27429748001E+02 -0.21219501487E+03  0.21565704650E+03  0.00000000000E+00 0.  1.
</event>
<event>
12    1  0.8563264E-002  0.2053188E+03  0.7818608E-02  0.1145865E+00
         21   -1    0    0  501  502  0.00000000000E+00  0.00000000000E+00  0.53597473111E+03  0.53597473111E+03  0.00000000000E+00 0.  1.
         21   -1    0    0  502  503 -0.00000000000E+00 -0.00000000000E+00 -0.10002596822E+03  0.10002596822E+03  0.00000000000E+00 0.  1.
         -6    2    1    2    0  503 -0.44300175254E+02  0.10085250959E+03  0.66493501839E+02  0.21332704432E+03  0.17015671551E+03 0.  0.
        -24    2    3    3    0    0  0.14058352964E+02  0.10799425319E+03  0.73567532837E+02  0.15392288427E+03  0.80122883137E+02 0.  0.
          6    2    1    2  501    0  0.44300175254E+02 -0.10085250959E+03  0.36945526106E+03  0.42267365501E+03  0.17326885033E+03 0.  0.
         24    2    5    5    0    0  0.97942684087E+02 -0.78493027913E+02  0.26321043568E+03  0.30148158392E+03  0.76534222376E+02 0.  0.
          5    1    5    5  501    0 -0.53642508833E+02 -0.22359481676E+02  0.10624482538E+03  0.12119207109E+03  0.47000000000E+01 0. -1.
        -11    1    6    6    0    0  0.70098001704E+01 -0.44783340207E+02  0.51444773076E+02  0.68565658571E+02  0.00000000000E+00 0.  1.
         12    1    6    6    0    0  0.90932883916E+02 -0.33709687706E+02  0.21176566260E+03  0.23291592535E+03  0.00000000000E+00 0. -1.
         -5    1    3    3    0  503 -0.58358528217E+02 -0.71417436038E+01 -0.70740309989E+01  0.59404160056E+02  0.47000000000E+01 0.  1.
         11    1    4    4    0    0  0.36986997047E+02  0.26567227279E+02  0.65680361570E+01  0.46010809760E+02  0.00000000000E+00 0. -1.
        -12    1    4    4    0    0 -0.22928644083E+02  0.81427025913E+02  0.66999496680E+02  0.10791207451E+03  0.00000000000E+00 0.  1.
</event>
<event>
12    1  0.8563264E-002  0.2199327E+03  0.7818608E-02  0.1134775E+00
         21   -1    0    0  503  502  0.00000000000E+00  0.00000000000E+00  0.34577118890E+03  0.34577118890E+03  0.00000000000E+00 0. -1.
         21   -1    0    0  501  503 -0.00000000000E+00 -0.00000000000E+00 -0.26079016655E+03  0.26079016655E+03  0.00000000000E+00 0. -1.
          6    2    1    2  501    0 -0.68581165880E+02  0.11041406764E+03 -0.16662768054E+03  0.27237974836E+03  0.17184673622E+03 0.  0.
         24    2    3    3    0    0 -0.68583759820E+02  0.10427784649E+03 -0.19384444852E+03  0.24408671607E+03  0.80156430566E+02 0.  0.
         -6    2    1    2    0  502  0.68581165880E+02 -0.11041406764E+03  0.25160870289E+03  0.33418160709E+03  0.17741410457E+03 0.  0.
        -24    2    5    5    0    0  0.81748359869E+02 -0.57472085585E+02  0.24830191038E+03  0.27932494534E+03  0.79892123699E+02 0.  0.
          5    1    3    3  501    0  0.25939405984E-02  0.61362211467E+01  0.27216767980E+02  0.28293032286E+02  0.47000000000E+01 0. -1.
        -11    1    4    4    0    0 -0.36387481386E+01 -0.12246811962E+02 -0.31315559495E+02  0.33821430451E+02  0.00000000000E+00 0.  1.
         12    1    4    4    0    0 -0.64945011682E+02  0.11652465845E+03 -0.16252888903E+03  0.21026528562E+03  0.00000000000E+00 0. -1.
         -5    1    5    5    0  502 -0.13167193990E+02 -0.52941982053E+02  0.33067925124E+01  0.54856661746E+02  0.47000000000E+01 0.  1.
         13    1    6    6    0    0  0.43172772884E+02 -0.51678723528E+02  0.71288562716E+02  0.98064458180E+02  0.00000000000E+00 0. -1.
        -14    1    6    6    0    0  0.38575586986E+02 -0.57933620566E+01  0.17701334766E+03  0.18126048716E+03  0.00000000000E+00 0.  1.
</event>
<event>
12    1  0.8563264E-002  0.1898660E+03  0.7818608E-02  0.1158709E+00
         21   -1    0    0  501  502  0.00000000000E+00  0.00000000000E+00  0.24258967489E+03  0.24258967489E+03  0.00000000000E+00 0.  1.
         21   -1    0    0  502  503 -0.00000000000E+00 -0.00000000000E+00 -0.24126353862E+03  0.24126353862E+03  0.00000000000E+00 0.  1.
         -6    2    1    2    0  503  0.70575606359E+02  0.36682674573E+02 -0.14962198192E+03  0.24129512143E+03  0.17178493335E+03 0.  0.
        -24    2    3    3    0    0  0.21178049499E+02  0.18628206603E+02 -0.16542906795E+03  0.18617673606E+03  0.80619356633E+02 0.  0.
          6    2    1    2  501    0 -0.70575606359E+02 -0.36682674573E+02  0.15094811819E+03  0.24255809208E+03  0.17240231675E+03 0.  0.
         24    2    5    5    0    0 -0.15678872428E+02 -0.78222976643E+02  0.63253488895E+02  0.13097096872E+03  0.82387679139E+02 0.  0.
          5    1    5    5  501    0 -0.54896733931E+02  0.41540302070E+02  0.87694629297E+02  0.11158712336E+03  0.47000000000E+01 0. -1.
        -11    1    6    6    0    0 -0.43580473163E+02 -0.29935345869E+02  0.51840386246E+02  0.74045987194E+02  0.00000000000E+00 0.  1.
         12    1    6    6    0    0  0.27901600735E+02 -0.48287630774E+02  0.11413102648E+02  0.56924981523E+02  0.00000000000E+00 0. -1.
         -5    1    3    3    0  503  0.49397556860E+02  0.18054467970E+02  0.15807086030E+02  0.55118385374E+02  0.47000000000E+01 0.  1.
         13    1    4    4    0    0  0.46357299418E+02 -0.46619460691E+00 -0.58308145893E+02  0.74491988994E+02  0.00000000000E+00 0. -1.
        -14    1    4    4    0    0 -0.25179249919E+02  0.19094401210E+02 -0.10712092206E+03  0.11168474706E+03  0.00000000000E+00 0.  1.
</event>
<event>
12    1  0.8563264E-002  0.2143287E+03  0.7818608E-02  0.1138327E+00
         21   -1    0    0  501  502  0.00000000000E+00  0.00000000000E+00  0.41110327733E+03  0.41110327733E+03  0.00000000000E+00 0.  1.
         21   -1    0    0  502  503 -0.00000000000E+00 -0.00000000000E+00 -0.11776295468E+03  0.11776295468E+03  0.00000000000E+00 0.  1.
         -6    2    1    2    0  503  0.91264028616E+02  0.90606252600E+02  0.20860210727E+03  0.29908468662E+03  0.17145901750E+03 0.  0.
        -24    2    3    3    0    0 -0.16370381029E+02  0.21289786479E+02  0.97643578136E+02  0.12960364401E+03  0.80880107609E+02 0.  0.
          6    2    1    2  501    0 -0.91264028616E+02 -0.90606252600E+02  0.84738215380E+02  0.22978154539E+03  0.17052969691E+03 0.  0.
         24    2    5    5    0    0 -0.12575068350E+03 -0.95987341475E+02  0.66339704269E+02  0.19004641366E+03  0.81791679652E+02 0.  0.
          5    1    5    5  501    0  0.34486654882E+02  0.53810888752E+01  0.18398511111E+02  0.39735131729E+02  0.47000000000E+01 0. -1.
        -11    1    6    6    0    0 -0.11801188599E+03 -0.10602845457E+03  0.44459382479E+02  0.16475883923E+03  0.00000000000E+00 0.  1.
         12    1    6    6    0    0 -0.77387975045E+01  0.10041113096E+02  0.21880321791E+02  0.25287574433E+02  0.00000000000E+00 0. -1.
         -5    1    3    3    0  503  0.10763440964E+03  0.69316466121E+02  0.11095852913E+03  0.16948104260E+03  0.47000000000E+01 0.  1.
         11    1    4    4    0    0  0.31593844217E+02  0.17710138635E+02  0.51419067321E+02  0.62894677732E+02  0.00000000000E+00 0. -1.
        -12    1    4    4    0    0 -0.47964225246E+02  0.35796478444E+01  0.46224510815E+02  0.66708966280E+02  0.00000000000E+00 0.  1.
</event>
<event>
12    1  0.8563264E-002  0.2186419E+03  0.7818608E-02  0.1135372E+00
         21   -1    0    0  501  502  0.00000000000E+00  0.00000000000E+00  0.39795189145E+03  0.39795189145E+03  0.00000000000E+00 0. -1.
         21   -1    0    0  502  503 -0.00000000000E+00 -0.00000000000E+00 -0.12539695201E+03  0.12539695201E+03  0.00000000000E+00 0. -1.
         -6    2    1    2    0  503  0.11317703292E+03 -0.71503946804E+02  0.76799889855E+02  0.23173804825E+03  0.17286539484E+03 0.  0.
        -24    2    3    3    0    0  0.12326253272E+03 -0.38307367401E+01  0.71179638918E+02  0.16292629135E+03  0.79184019226E+02 0.  0.
          6    2    1    2  501    0 -0.11317703292E+03  0.71503946804E+02  0.19575504958E+03  0.29161079521E+03  0.16969078130E+03 0.  0.
         24    2    5    5    0    0 -0.30924501905E+02  0.23298405804E+02  0.17134846029E+03  0.19308656143E+03  0.80143526447E+02 0.  0.
          5    1    5    5  501    0 -0.82252531015E+02  0.48205541001E+02  0.24406589299E+02  0.98524233784E+02  0.47000000000E+01 0. -1.
        -13    1    6    6    0    0  0.18651360355E+02  0.32833992492E+02  0.85992765597E+02  0.93918581980E+02  0.00000000000E+00 0.  1.
         14    1    6    6    0    0 -0.49575862261E+02 -0.95355866880E+01  0.85355694688E+02  0.99167979450E+02  0.00000000000E+00 0. -1.
         -5    1    3    3    0  503 -0.10085499797E+02 -0.67673210064E+02  0.56202509372E+01  0.68811756896E+02  0.47000000000E+01 0.  1.
         13    1    4    4    0    0  0.42046493288E+02 -0.34824846181E+02  0.73685128493E+01  0.55090584413E+02  0.00000000000E+00 0. -1.
        -14    1    4    4    0    0  0.81216039429E+02  0.30994109441E+02  0.63811126069E+02  0.10783570694E+03  0.00000000000E+00 0.  1.
</event>
<event>
12    1  0.8563264E-002  0.2200029E+03  0.7818608E-02  0.1133905E+00
         21   -1    0    0  501  502  0.00000000000E+00  0.00000000000E+00  0.10346148330E+04  0.10346148330E+04  0.00000000000E+00 0.  1.
         21   -1    0    0  502  503 -0.00000000000E+00 -0.00000000000E+00 -0.46815046435E+02  0.46815046435E+02  0.00000000000E+00 0.  1.
         -6    2    1    2    0  503  0.73035378542E+02  0.11885134953E+03  0.51355546161E+03  0.55869533800E+03  0.17012189381E+03 0.  0.
        -24    2    3    3    0    0  0.93022117886E+02  0.26694489372E+02  0.29590351645E+03  0.32144691154E+03  0.80021970209E+02 0.  0.
          6    2    1    2  501    0 -0.73035378542E+02 -0.11885134953E+03  0.47424432497E+03  0.52273454144E+03  0.16995267356E+03 0.  0.
         24    2    5    5    0    0 -0.10977782579E+03 -0.87646241214E+02  0.28876822534E+03  0.33103884575E+03  0.80415140329E+02 0.  0.
          5    1    5    5  501    0  0.36742447249E+02 -0.31205108321E+02  0.18547609963E+03  0.19169569569E+03  0.47000000000E+01 0. -1.
        -13    1    6    6    0    0 -0.37945887581E+02 -0.67354490650E+02  0.20363995282E+03  0.21782044941E+03  0.00000000000E+00 0.  1.
         14    1    6    6    0    0 -0.71831938210E+02 -0.20291750564E+02  0.85128272517E+02  0.11321839634E+03  0.00000000000E+00 0. -1.
         -5    1    3    3    0  503 -0.19986739345E+02  0.92156860162E+02  0.21765194516E+03  0.23724842646E+03  0.47000000000E+01 0.  1.
         11    1    4    4    0    0 -0.25118809895E+00  0.23341056380E+02  0.12067452601E+03  0.12291138774E+03  0.00000000000E+00 0. -1.
        -12    1    4    4    0    0  0.93273305985E+02  0.33534329921E+01  0.17522899043E+03  0.19853552380E+03  0.00000000000E+00 0.  1.
</event>
<event>
12    1  0.8563264E-002  0.1943993E+03  0.7818608E-02  0.1154607E+00
         21   -1    0    0  501  502  0.00000000000E+00  0.00000000000E+00  0.43289101996E+02  0.43289101996E+02  0.00000000000E+00 0.  1.
         21   -1    0    0  502  503 -0.00000000000E+00 -0.00000000000E+00 -0.87705516147E+03  0.87705516147E+03  0.00000000000E+00 0.  1.
         -6    2    1    2    0  503  0.89576405635E+02 -0.69487425523E+01 -0.38179774488E+03  0.42843975135E+03  0.17239166182E+03 0.  0.
        -24    2    3    3    0    0  0.47561346028E+02 -0.66094955130E+02 -0.25669750845E+03  0.28374801402E+03  0.89379527204E+02 0.  0.
          6    2    1    2  501    0 -0.89576405635E+02  0.69487425523E+01 -0.45196831459E+03  0.49190451212E+03  0.17211180721E+03 0.  0.
         24    2    5    5    0    0 -0.97400715050E+02  0.59587282577E+02 -0.34944094889E+03  0.37629315268E+03  0.80311994474E+02 0.  0.
          5    1    5    5  501    0  0.78243094148E+01 -0.52638540025E+02 -0.10252736570E+03  0.11561135944E+03  0.47000000000E+01 0. -1.
        -13    1    6    6    0    0 -0.83145356591E+02  0.12267094261E+02 -0.26957887167E+03  0.28237634458E+03  0.00000000000E+00 0.  1.
         14    1    6    6    0    0 -0.14255358459E+02  0.47320188316E+02 -0.79862077220E+02  0.93916808106E+02  0.00000000000E+00 0. -1.
         -5    1    3    3    0  503  0.42015059607E+02  0.59146212577E+02 -0.12510023643E+03  0.14469173733E+03  0.47000000000E+01 0.  1.
         13    1    4    4    0    0 -0.69881098826E+01 -0.38857824546E+02 -0.18710177325E+03  0.19122195941E+03  0.00000000000E+00 0. -1.
        -14    1    4    4    0    0  0.54549455910E+02 -0.27237130583E+02 -0.69595735209E+02  0.92526054610E+02  0.00000000000E+00 0.  1.
</event>
<event>
12    1  0.8563264E-002  0.2659213E+03  0.7818608E-02  0.1103668E+00
         21   -1    0    0  501  502  0.00000000000E+00  0.00000000000E+00  0.47939902888E+03  0.47939902888E+03  0.00000000000E+00 0. -1.
         21   -1    0    0  502  503 -0.00000000000E+00 -0.00000000000E+00 -0.14778550704E+03  0.14778550704E+03  0.00000000000E+00 0. -1.
         -6    2    1    2    0  503 -0.13622636914E+03  0.15063720990E+03  0.18218270243E+03  0.32234246520E+03  0.17165353229E+03 0.  0.
        -24    2    3    3    0    0 -0.20115666773E+02  0.30008910041E+02  0.10459939556E+03  0.13775064134E+03  0.82030670514E+02 0.  0.
          6    2    1    2  501    0  0.13622636914E+03 -0.15063720990E+03  0.14943081941E+03  0.30484207073E+03  0.17131819996E+03 0.  0.
         24    2    5    5    0    0 -0.40715836633E+01 -0.69972788891E+02  0.56814496086E+02  0.11832092521E+03  0.76545315982E+02 0.  0.
          5    1    5    5  501    0  0.14029795280E+03 -0.80664421013E+02  0.92616323321E+02  0.18652114551E+03  0.47000000000E+01 0. -1.
        -11    1    6    6    0    0  0.98568757482E+01 -0.11092181582E+02 -0.17203938098E+02  0.22719374504E+02  0.00000000000E+00 0.  1.
         12    1    6    6    0    0 -0.13928459412E+02 -0.58880607309E+02  0.74018434185E+02  0.95601550708E+02  0.00000000000E+00 0. -1.
         -5    1    3    3    0  503 -0.11611070237E+03  0.12062829986E+03  0.77583306871E+02  0.18459182386E+03  0.47000000000E+01 0.  1.
         11    1    4    4    0    0 -0.47203630291E+02  0.30403056947E+02  0.43873640673E+02  0.71256051886E+02  0.00000000000E+00 0. -1.
        -12    1    4    4    0    0  0.27087963518E+02 -0.39414690669E+00  0.60725754890E+02  0.66494589451E+02  0.00000000000E+00 0.  1.
</event>
<event>
12    1  0.8563264E-002  0.2739932E+03  0.7818608E-02  0.1099083E+00
         21   -1    0    0  503  502  0.00000000000E+00  0.00000000000E+00  0.24017361212E+03  0.24017361212E+03  0.00000000000E+00 0.  1.
         21   -1    0    0  501  503 -0.00000000000E+00 -0.00000000000E+00 -0.31775236080E+03  0.31775236080E+03  0.00000000000E+00 0. -1.
          6    2    1    2  501    0 -0.17993890465E+03  0.11484712955E+03 -0.76205727768E+02  0.28392935155E+03  0.17099909695E+03 0.  0.
         24    2    3    3    0    0 -0.12885559254E+03  0.27564011334E+02 -0.94600474631E+02  0.18102986558E+03  0.80368053245E+02 0.  0.
         -6    2    1    2    0  502  0.17993890465E+03 -0.11484712955E+03 -0.13730209105E+01  0.27399662137E+03  0.17176842191E+03 0.  0.
        -24    2    5    5    0    0  0.10273663819E+03 -0.61056953842E+01  0.38162585720E+02  0.13482031721E+03  0.78281789962E+02 0.  0.
          5    1    3    3  501    0 -0.51083312105E+02  0.87283118212E+02  0.18394746862E+02  0.10289948597E+03  0.47000000000E+01 0. -1.
        -11    1    4    4    0    0 -0.22765524192E+02  0.22676481098E+02  0.82642046447E+01  0.33178139869E+02  0.00000000000E+00 0.  1.
         12    1    4    4    0    0 -0.10609006835E+03  0.48875302367E+01 -0.10286467928E+03  0.14785172571E+03  0.00000000000E+00 0. -1.
         -5    1    5    5    0  502  0.77202266456E+02 -0.10874143416E+03 -0.39535606630E+02  0.13917630417E+03  0.47000000000E+01 0.  1.
         13    1    6    6    0    0  0.21026178703E+02 -0.14079833963E+02 -0.21602731524E+02  0.33271908941E+02  0.00000000000E+00 0. -1.
        -14    1    6    6    0    0  0.81710459488E+02  0.79741385788E+01  0.59765317244E+02  0.10154840826E+03  0.00000000000E+00 0.  1.
</event>
<event>
12    1  0.8563264E-002  0.2254983E+03  0.7818608E-02  0.1129876E+00
         21   -1    0    0  501  502  0.00000000000E+00  0.00000000000E+00  0.57727496922E+03  0.57727496922E+03  0.00000000000E+00 0.  1.
         21   -1    0    0  502  503 -0.00000000000E+00 -0.00000000000E+00 -0.24688004625E+03  0.24688004625E+03  0.00000000000E+00 0. -1.
         -6    2    1    2    0  503 -0.39472629606E+02  0.13981473851E+03 -0.16533076323E+03  0.27961358565E+03  0.17246230434E+03 0.  0.
        -24    2    3    3    0    0 -0.28654952379E+02 -0.25524785658E+01 -0.59568026227E+02  0.10186856272E+03  0.77467624718E+02 0.  0.
          6    2    1    2  501    0  0.39472629606E+02 -0.13981473851E+03  0.49572568620E+03  0.54454142982E+03  0.17226480557E+03 0.  0.
         24    2    5    5    0    0  0.26107816671E+02 -0.16527259948E+03  0.47229699855E+03  0.50715541217E+03  0.78393284339E+02 0.  0.
          5    1    5    5  501    0  0.13364812936E+02  0.25457860976E+02  0.23428687654E+02  0.37386017647E+02  0.47000000000E+01 0. -1.
        -13    1    6    6    0    0  0.24831468613E+02 -0.15934776453E+03  0.35742491312E+03  0.39212355248E+03  0.00000000000E+00 0.  1.
         14    1    6    6    0    0  0.12763480577E+01 -0.59248349585E+01  0.11487208543E+03  0.11503185969E+03  0.00000000000E+00 0. -1.
         -5    1    3    3    0  503 -0.10817677227E+02  0.14236721708E+03 -0.10576273700E+03  0.17774502293E+03  0.47000000000E+01 0.  1.
         11    1    4    4    0    0  0.16885384849E+02 -0.43600833859E+01 -0.53032361773E+02  0.55826140327E+02  0.00000000000E+00 0. -1.
        -12    1    4    4    0    0 -0.45540337228E+02  0.18076048201E+01 -0.65356644546E+01  0.46042422394E+02  0.00000000000E+00 0.  1.
</event>
<event>
12    1  0.8563264E-002  0.2148296E+03  0.7818608E-02  0.1138929E+00
         21   -1    0    0  501  502  0.00000000000E+00  0.00000000000E+00  0.11194408586E+03  0.11194408586E+03  0.00000000000E+00 0. -1.
         21   -1    0    0  502  503 -0.00000000000E+00 -0.00000000000E+00 -0.44260060202E+03  0.44260060202E+03  0.00000000000E+00 0.  1.
         -6    2    1    2    0  503 -0.11260357052E+03 -0.47143080348E+02 -0.24805653706E+03  0.32438278585E+03  0.16967649235E+03 0.  0.
        -24    2    3    3    0    0  0.29272771490E+01  0.78317789669E+01 -0.11291719989E+03  0.13822601758E+03  0.79285762855E+02 0.  0.
          6    2    1    2  501    0  0.11260357052E+03  0.47143080348E+02 -0.82599979093E+02  0.23016190203E+03  0.17677587641E+03 0.  0.
         24    2    5    5    0    0  0.14225884910E+03  0.19779668641E+02 -0.35102386868E+02  0.16766147711E+03  0.79053006936E+02 0.  0.
          5    1    5    5  501    0 -0.29655278578E+02  0.27363411707E+02 -0.47497592224E+02  0.62500424918E+02  0.47000000000E+01 0. -1.
        -13    1    6    6    0    0  0.43600617297E+02  0.15641180202E+02 -0.49590528556E+02  0.67859272537E+02  0.00000000000E+00 0.  1.
         14    1    6    6    0    0  0.98658231801E+02  0.41384884389E+01  0.14488141688E+02  0.99802204576E+02  0.00000000000E+00 0. -1.
         -5    1    3    3    0  503 -0.11553084767E+03 -0.54974859315E+02 -0.13513933717E+03  0.18615676826E+03  0.47000000000E+01 0.  1.
         11    1    4    4    0    0  0.36878131175E+02 -0.54151233388E+01 -0.30682224988E+02  0.48277521166E+02  0.00000000000E+00 0. -1.
        -12    1    4    4    0    0 -0.33950854026E+02  0.13246902306E+02 -0.82234974905E+02  0.89948496416E+02  0.00000000000E+00 0.  1.
</event>
<event>
12    1  0.8563264E-002  0.1813909E+03  0.7818608E-02  0.1166730E+00
         21   -1    0    0  503  502  0.00000000000E+00  0.00000000000E+00  0.23672082941E+02  0.23672082941E+02  0.00000000000E+00 0.  1.
         21   -1    0    0  501  503 -0.00000000000E+00 -0.00000000000E+00 -0.26412852271E+04  0.26412852271E+04  0.00000000000E+00 0.  1.
          6    2    1    2  501    0  0.45356395846E+00  0.57366749694E+02 -0.22311612190E+04  0.22385225141E+04  0.17207995598E+03 0.  0.
         24    2    3    3    0    0  0.86265474583E+01 -0.21522476389E+01 -0.51104921987E+03  0.51735526823E+03  0.80038234238E+02 0.  0.
         -6    2    1    2    0  502 -0.45356395846E+00 -0.57366749694E+02 -0.38645192523E+03  0.42643479602E+03  0.17091048841E+03 0.  0.
        -24    2    5    5    0    0  0.51181438766E+02 -0.34074079506E+02 -0.33757393759E+03  0.35146900604E+03  0.76116465377E+02 0.  0.
          5    1    3    3  501    0 -0.81729834998E+01  0.59518997333E+02 -0.17201119991E+04  0.17211672458E+04  0.47000000000E+01 0. -1.
        -11    1    4    4    0    0  0.42134006717E+02  0.48505322275E+01 -0.35921314845E+03  0.36170829158E+03  0.00000000000E+00 0.  1.
         12    1    4    4    0    0 -0.33507459259E+02 -0.70027798664E+01 -0.15183607143E+03  0.15564697664E+03  0.00000000000E+00 0. -1.
         -5    1    5    5    0  502 -0.51635002724E+02 -0.23292670188E+02 -0.48877987645E+02  0.74965789978E+02  0.47000000000E+01 0.  1.
         11    1    6    6    0    0  0.68241349850E+01  0.15631708135E+02 -0.17130996273E+02  0.24174162878E+02  0.00000000000E+00 0. -1.
        -12    1    6    6    0    0  0.44357303781E+02 -0.49705787641E+02 -0.32044294132E+03  0.32729484317E+03  0.00000000000E+00 0.  1.
</event>
<event>
12    1  0.8563264E-002  0.2095811E+03  0.7818608E-02  0.1142089E+00
         21   -1    0    0  501  502  0.00000000000E+00  0.00000000000E+00  0.68810125720E+02  0.68810125720E+02  0.00000000000E+00 0.  1.
         21   -1    0    0  502  503 -0.00000000000E+00 -0.00000000000E+00 -0.64771891341E+03  0.64771891341E+03  0.00000000000E+00 0. -1.
         -6    2    1    2    0  503 -0.92632210362E+02  0.73476465665E+02 -0.23942880801E+03  0.31756676357E+03  0.17188070810E+03 0.  0.
        -24    2    3    3    0    0 -0.22807342867E+02  0.32483201560E+02 -0.21450527061E+03  0.23271847226E+03  0.81055801389E+02 0.  0.
          6    2    1    2  501    0  0.92632210362E+02 -0.73476465665E+02 -0.33947997968E+03  0.39896227556E+03  0.17304543713E+03 0.  0.
         24    2    5    5    0    0 -0.53473038876E+01 -0.75344927752E+02 -0.20177130013E+03  0.22987872584E+03  0.80169316066E+02 0.  0.
          5    1    5    5  501    0  0.97979514249E+02  0.18684620874E+01 -0.13770867955E+03  0.16908354972E+03  0.47000000000E+01 0. -1.
        -11    1    6    6    0    0  0.20758156925E+02 -0.80773925336E+02 -0.15668655088E+03  0.17749930512E+03  0.00000000000E+00 0.  1.
         12    1    6    6    0    0 -0.26105460813E+02  0.54289975834E+01 -0.45084749255E+02  0.52379420715E+02  0.00000000000E+00 0. -1.
         -5    1    3    3    0  503 -0.69824867495E+02  0.40993264105E+02 -0.24923537403E+02  0.84848291317E+02  0.47000000000E+01 0.  1.
         13    1    4    4    0    0 -0.50238965946E+02  0.31897682286E+02 -0.17313065898E+03  0.18307277491E+03  0.00000000000E+00 0. -1.
        -14    1    4    4    0    0  0.27431623080E+02  0.58551927407E+00 -0.41374611623E+02  0.49645697342E+02  0.00000000000E+00 0.  1.
</event>
<event>
12    1  0.8563264E-002  0.1849995E+03  0.7818608E-02  0.1163133E+00
         21   -1    0    0  503  502  0.00000000000E+00  0.00000000000E+00  0.58430539986E+02  0.58430539986E+02  0.00000000000E+00 0. -1.
         21   -1    0    0  501  503 -0.00000000000E+00 -0.00000000000E+00 -0.71362863328E+03  0.71362863328E+03  0.00000000000E+00 0. -1.
          6    2    1    2  501    0 -0.69420015180E+02  0.11950398527E+02 -0.49198782405E+03  0.52562044505E+03  0.17106397255E+03 0.  0.
         24    2    3    3    0    0 -0.40200340140E+01  0.67894102046E+01 -0.90882032075E+02  0.11915797483E+03  0.76660435998E+02 0.  0.
         -6    2    1    2    0  502  0.69420015180E+02 -0.11950398527E+02 -0.16321026924E+03  0.24643872822E+03  0.17068246614E+03 0.  0.
        -24    2    5    5    0    0  0.78505267607E+02 -0.55222118098E+02 -0.15997525536E+03  0.20185690635E+03  0.77081573320E+02 0.  0.
          5    1    3    3  501    0 -0.65399981166E+02  0.51609883222E+01 -0.40110579198E+03  0.40646247022E+03  0.47000000000E+01 0. -1.
        -13    1    4    4    0    0  0.17781262473E+02  0.34393988817E+02 -0.30546012251E+02  0.49317123054E+02  0.00000000000E+00 0.  1.
         14    1    4    4    0    0 -0.21801296487E+02 -0.27604578612E+02 -0.60336019824E+02  0.69840851778E+02  0.00000000000E+00 0. -1.
         -5    1    5    5    0  502 -0.90852524278E+01  0.43271719571E+02 -0.32350138859E+01  0.44581821869E+02  0.47000000000E+01 0.  1.
         13    1    6    6    0    0  0.86362168421E+02 -0.35829665824E+02 -0.93753024799E+02  0.13240777449E+03  0.00000000000E+00 0. -1.
        -14    1    6    6    0    0 -0.78569008137E+01 -0.19392452274E+02 -0.66222230556E+02  0.69449131855E+02  0.00000000000E+00 0.  1.
</event>
<event>
12    1  0.8563264E-002  0.1774204E+03  0.7818608E-02  0.1170593E+00
         21   -1    0    0  501  502  0.00000000000E+00  0.00000000000E+00  0.14865691052E+03  0.14865691052E+03  0.00000000000E+00 0. -1.
         21   -1    0    0  502  503 -0.00000000000E+00 -0.00000000000E+00 -0.21053255726E+03  0.21053255726E+03  0.00000000000E+00 0. -1.
         -6    2    1    2    0  503  0.41564971250E+02  0.67425635729E+01 -0.34642910365E+02  0.18077093557E+03  0.17235106878E+03 0.  0.
        -24    2    3    3    0    0  0.27758798622E+02  0.47560452993E+02 -0.72272486173E+02  0.12337071367E+03  0.83453419001E+02 0.  0.
          6    2    1    2  501    0 -0.41564971250E+02 -0.67425635729E+01 -0.27232736369E+02  0.17841853221E+03  0.17122628801E+03 0.  0.
         24    2    5    5    0    0  0.12057090177E+02 -0.36463563767E+00 -0.70755704607E+02  0.10890348204E+03  0.81902944283E+02 0.  0.
          5    1    5    5  501    0 -0.53622061427E+02 -0.63779279352E+01  0.43522968239E+02  0.69515050174E+02  0.47000000000E+01 0. -1.
        -11    1    6    6    0    0  0.10333008302E+02  0.17223370264E+02  0.12589909045E+02  0.23704880375E+02  0.00000000000E+00 0.  1.
         12    1    6    6    0    0  0.17240818748E+01 -0.17588005901E+02 -0.83345613652E+02  0.85198601661E+02  0.00000000000E+00 0. -1.
         -5    1    3    3    0  503  0.13806172628E+02 -0.40817889420E+02  0.37629575809E+02  0.57400221906E+02  0.47000000000E+01 0.  1.
         11    1    4    4    0    0  0.24354390055E+02 -0.19357269698E+02 -0.12321356404E+02  0.33461261613E+02  0.00000000000E+00 0. -1.
        -12    1    4    4    0    0  0.34044085666E+01  0.66917722691E+02 -0.59951129769E+02  0.89909452053E+02  0.00000000000E+00 0.  1.
</event>
<event>
12    1  0.8563264E-002  0.2019082E+03  0.7818608E-02  0.1148165E+00
         21   -1    0    0  501  502  0.00000000000E+00  0.00000000000E+00  0.56502778146E+02  0.56502778146E+02  0.00000000000E+00 0. -1.
         21   -1    0    0  502  503 -0.00000000000E+00 -0.00000000000E+00 -0.76356382168E+03  0.76356382168E+03  0.00000000000E+00 0. -1.
         -6    2    1    2    0  503  0.97040249944E+02 -0.29053292127E+02 -0.45037793831E+03  0.49356580549E+03  0.17465970668E+03 0.  0.
        -24    2    3    3    0    0  0.19315381441E+02 -0.62011003440E+02 -0.33634457982E+03  0.35160432209E+03  0.79243134929E+02 0.  0.
          6    2    1    2  501    0 -0.97040249944E+02  0.29053292127E+02 -0.25668310522E+03  0.32650079434E+03  0.17451546723E+03 0.  0.
         24    2    5    5    0    0 -0.72780433603E+02 -0.44896640921E+01 -0.26496382930E+03  0.28402340044E+03  0.71737804286E+02 0.  0.
          5    1    5    5  501    0 -0.24259816341E+02  0.33542956219E+02  0.82807240762E+01  0.42477393894E+02  0.47000000000E+01 0. -1.
        -13    1    6    6    0    0  0.25298562711E+01  0.34772168964E+01 -0.12341037499E+03  0.12348526984E+03  0.00000000000E+00 0.  1.
         14    1    6    6    0    0 -0.75310289874E+02 -0.79668809885E+01 -0.14155345430E+03  0.16053813061E+03  0.00000000000E+00 0. -1.
         -5    1    3    3    0  503  0.77724868502E+02  0.32957711314E+02 -0.11403335849E+03  0.14196148339E+03  0.47000000000E+01 0.  1.
         11    1    4    4    0    0  0.42984611692E+02 -0.12117348213E+02 -0.11230402195E+03  0.12085818266E+03  0.00000000000E+00 0. -1.
        -12    1    4    4    0    0 -0.23669230251E+02 -0.49893655227E+02 -0.22404055787E+03  0.23074613944E+03  0.00000000000E+00 0.  1.
</event>
<event>
12    1  0.8563264E-002  0.2444977E+03  0.7818608E-02  0.1116901E+00
         21   -1    0    0  501  502  0.00000000000E+00  0.00000000000E+00  0.96128808803E+02  0.96128808803E+02  0.00000000000E+00 0.  1.
         21   -1    0    0  502  503 -0.00000000000E+00 -0.00000000000E+00 -0.15507171684E+04  0.15507171684E+04  0.00000000000E+00 0. -1.
         -6    2    1    2    0  503 -0.17164950370E+03 -0.26419791596E+02 -0.13646901872E+04  0.13863448904E+04  0.17149720241E+03 0.  0.
        -24    2    3    3    0    0 -0.96638605584E+02 -0.38624599058E+02 -0.45847353169E+03  0.47693502187E+03  0.80238121112E+02 0.  0.
          6    2    1    2  501    0  0.17164950370E+03  0.26419791596E+02 -0.89898172402E+02  0.26050108686E+03  0.17209758089E+03 0.  0.
         24    2    5    5    0    0  0.14467691724E+03 -0.36635958278E+02 -0.87893904602E+02  0.19172859890E+03  0.82224773311E+02 0.  0.
          5    1    5    5  501    0  0.26972586450E+02  0.63055749874E+02 -0.20042678002E+01  0.68772487969E+02  0.47000000000E+01 0. -1.
        -11    1    6    6    0    0  0.14131760957E+03 -0.19769664383E+02 -0.96734079976E+02  0.17239196221E+03  0.00000000000E+00 0.  1.
         12    1    6    6    0    0  0.33593076741E+01 -0.16866293895E+02  0.88401753747E+01  0.19336636689E+02  0.00000000000E+00 0. -1.
         -5    1    3    3    0  503 -0.75010898111E+02  0.12204807462E+02 -0.90621665554E+03  0.90940986851E+03  0.47000000000E+01 0.  1.
         13    1    4    4    0    0 -0.62160511005E+02  0.85564841749E+01 -0.14398017165E+03  0.15705869087E+03  0.00000000000E+00 0. -1.
        -14    1    4    4    0    0 -0.34478094579E+02 -0.47181083233E+02 -0.31449336004E+03  0.31987633100E+03  0.00000000000E+00 0.  1.
</event>
<event>
12    1  0.8563264E-002  0.1958482E+03  0.7818608E-02  0.1153993E+00
         21   -1    0    0  503  502  0.00000000000E+00  0.00000000000E+00  0.18496098685E+03  0.18496098685E+03  0.00000000000E+00 0. -1.
         21   -1    0    0  501  503 -0.00000000000E+00 -0.00000000000E+00 -0.24916679535E+03  0.24916679535E+03  0.00000000000E+00 0. -1.
          6    2    1    2  501    0 -0.48497106072E+02  0.76621615244E+02  0.60542419604E+02  0.20192390187E+03  0.16995598358E+03 0.  0.
         24    2    3    3    0    0  0.32480286391E+02  0.65051557235E+02  0.14872630309E+02  0.10812078899E+03  0.78627194888E+02 0.  0.
         -6    2    1    2    0  502  0.48497106072E+02 -0.76621615244E+02 -0.12474822810E+03  0.23220388032E+03  0.17359055390E+03 0.  0.
        -24    2    5    5    0    0 -0.15267205325E+02 -0.95537962805E+02 -0.10064901993E+03  0.16130552034E+03  0.80800097686E+02 0.  0.
          5    1    3    3  501    0 -0.80977392463E+02  0.11570058009E+02  0.45669789295E+02  0.93803112884E+02  0.47000000000E+01 0. -1.
        -11    1    4    4    0    0  0.35348209083E+02  0.51076076465E+02  0.43706277943E+02  0.75950643211E+02  0.00000000000E+00 0.  1.
         12    1    4    4    0    0 -0.28679226918E+01  0.13975480770E+02 -0.28833647634E+02  0.32170145775E+02  0.00000000000E+00 0. -1.
         -5    1    5    5    0  502  0.63764311397E+02  0.18916347561E+02 -0.24099208179E+02  0.70898359980E+02  0.47000000000E+01 0.  1.
         13    1    6    6    0    0 -0.30356664244E+01 -0.22855226351E+02 -0.82136957806E+02  0.85311526066E+02  0.00000000000E+00 0. -1.
        -14    1    6    6    0    0 -0.12231538900E+02 -0.72682736454E+02 -0.18512062119E+02  0.75993994277E+02  0.00000000000E+00 0.  1.
</event>
<event>
12    1  0.8563264E-002  0.2495863E+03  0.7818608E-02  0.1113638E+00
         21   -1    0    0  503  502  0.00000000000E+00  0.00000000000E+00  0.75382409044E+03  0.75382409044E+03  0.00000000000E+00 0. -1.
         21   -1    0    0  501  503 -0.00000000000E+00 -0.00000000000E+00 -0.17129775814E+03  0.17129775814E+03  0.00000000000E+00 0.  1.
          6    2    1    2  501    0  0.17645157010E+03  0.38477393870E+02 -0.41927575193E+02  0.25263689942E+03  0.17161531095E+03 0.  0.
         24    2    3    3    0    0  0.15168220582E+03 -0.19572973726E+02  0.10566648383E+02  0.17041099052E+03  0.74415447107E+02 0.  0.
         -6    2    1    2    0  502 -0.17645157010E+03 -0.38477393870E+02  0.62445390750E+03  0.67248494916E+03  0.17227204598E+03 0.  0.
        -24    2    5    5    0    0 -0.72818614095E+02 -0.10679682382E+01  0.14829626269E+03  0.18372381383E+03  0.80367699521E+02 0.  0.
          5    1    3    3  501    0  0.24769364280E+02  0.58050367596E+02 -0.52494223575E+02  0.82225908895E+02  0.47000000000E+01 0. -1.
        -13    1    4    4    0    0  0.11133075216E+03  0.20275500384E+02  0.11028237082E+02  0.11369808400E+03  0.00000000000E+00 0.  1.
         14    1    4    4    0    0  0.40351453661E+02 -0.39848474110E+02 -0.46158869904E+00  0.56712906517E+02  0.00000000000E+00 0. -1.
         -5    1    5    5    0  502 -0.10363295601E+03 -0.37409425632E+02  0.47615764481E+03  0.48876113533E+03  0.47000000000E+01 0.  1.
         13    1    6    6    0    0 -0.85385767709E+02 -0.12547829635E+01  0.14833006333E+03  0.17115522631E+03  0.00000000000E+00 0. -1.
        -14    1    6    6    0    0  0.12567153614E+02  0.18681472532E+00 -0.33800639842E-01  0.12568587517E+02  0.00000000000E+00 0.  1.
</event>
<event>
12    1  0.8563264E-002  0.1969944E+03  0.7818608E-02  0.1153149E+00
         21   -1    0    0  501  502  0.00000000000E+00  0.00000000000E+00  0.10923968203E+04  0.10923968203E+04  0.00000000000E+00 0. -1.
         21   -1    0    0  502  503 -0.00000000000E+00 -0.00000000000E+00 -0.42174655280E+02  0.42174655280E+02  0.00000000000E+00 0. -1.
         -6    2    1    2    0  503 -0.69862645877E+02 -0.60292629191E+02  0.29262669465E+03  0.35275653101E+03  0.17404251586E+03 0.  0.
        -24    2    3    3    0    0 -0.10370607025E+03 -0.55474567299E+01  0.17872249938E+03  0.22184179929E+03  0.80537747959E+02 0.  0.
          6    2    1    2  501    0  0.69862645877E+02  0.60292629191E+02  0.75759547038E+03  0.78181494458E+03  0.16961049612E+03 0.  0.
         24    2    5    5    0    0 -0.13150730112E+02 -0.78259663838E+01  0.37226147991E+03  0.38177027474E+03  0.83281125072E+02 0.  0.
          5    1    5    5  501    0  0.83013375989E+02  0.68118595574E+02  0.38533399047E+03  0.40004466984E+03  0.47000000000E+01 0. -1.
        -13    1    6    6    0    0 -0.27978663825E+02  0.31651398963E+02  0.20125508714E+03  0.20564101435E+03  0.00000000000E+00 0.  1.
         14    1    6    6    0    0  0.14827933713E+02 -0.39477365347E+02  0.17100639278E+03  0.17612926038E+03  0.00000000000E+00 0. -1.
         -5    1    3    3    0  503  0.33843424375E+02 -0.54745172461E+02  0.11390419527E+03  0.13091473172E+03  0.47000000000E+01 0.  1.
         11    1    4    4    0    0 -0.29368232764E+02  0.28585661714E+02  0.10103130350E+03  0.10902732427E+03  0.00000000000E+00 0. -1.
        -12    1    4    4    0    0 -0.74337837488E+02 -0.34133118444E+02  0.77691195879E+02  0.11281447502E+03  0.00000000000E+00 0.  1.
</event>
<event>
12    1  0.8563264E-002  0.1899870E+03  0.7818608E-02  0.1158562E+00
         21   -1    0    0  503  502  0.00000000000E+00  0.00000000000E+00  0.97985361041E+02  0.97985361041E+02  0.00000000000E+00 0. -1.
         21   -1    0    0  501  503 -0.00000000000E+00 -0.00000000000E+00 -0.56268400618E+03  0.56268400618E+03  0.00000000000E+00 0. -1.
          6    2    1    2  501    0  0.78971869723E+02  0.16365644868E+02 -0.42700714787E+03  0.46736513735E+03  0.17201940803E+03 0.  0.
         24    2    3    3    0    0 -0.98811702392E+01  0.92880362709E+01 -0.10177687907E+03  0.13010889501E+03  0.79911740717E+02 0.  0.
         -6    2    1    2    0  502 -0.78971869723E+02 -0.16365644868E+02 -0.37691497270E+02  0.19330422987E+03  0.17158521434E+03 0.  0.
        -24    2    5    5    0    0 -0.79530457214E+02  0.21367427093E+02  0.26529362008E+02  0.11866841068E+03  0.81220219652E+02 0.  0.
          5    1    3    3  501    0  0.88853039962E+02  0.70776085971E+01 -0.32523026880E+03  0.33725624234E+03  0.47000000000E+01 0. -1.
        -11    1    4    4    0    0 -0.38610033765E+02  0.26317578745E+02 -0.49462997779E+02  0.68043646343E+02  0.00000000000E+00 0.  1.
         12    1    4    4    0    0  0.28728863526E+02 -0.17029542474E+02 -0.52313881288E+02  0.62065248665E+02  0.00000000000E+00 0. -1.
         -5    1    5    5    0  502  0.55858749137E+00 -0.37733071961E+02 -0.64220859278E+02  0.74635819189E+02  0.47000000000E+01 0.  1.
         11    1    6    6    0    0 -0.44146570248E+02  0.15426204414E+02 -0.27171081844E+02  0.54084703344E+02  0.00000000000E+00 0. -1.
        -12    1    6    6    0    0 -0.35383886967E+02  0.59412226791E+01  0.53700443852E+02  0.64583707339E+02  0.00000000000E+00 0.  1.
</event>
<event>
12    1  0.8563264E-002  0.3919104E+03  0.7818608E-02  0.1047066E+00
         21   -1    0    0  503  502  0.00000000000E+00  0.00000000000E+00  0.84891446592E+03  0.84891446592E+03  0.00000000000E+00 0.  1.
         21   -1    0    0  501  503 -0.00000000000E+00 -0.00000000000E+00 -0.68343066296E+03  0.68343066296E+03  0.00000000000E+00 0. -1.
          6    2    1    2  501    0 -0.15094923331E+03 -0.31678070827E+03 -0.57559688370E+03  0.69635158920E+03  0.17452242003E+03 0.  0.
         24    2    3    3    0    0 -0.14017787499E+03 -0.14678713188E+03 -0.27602083439E+03  0.35170432389E+03  0.79448925093E+02 0.  0.
         -6    2    1    2    0  502  0.15094923331E+03  0.31678070827E+03  0.74108068666E+03  0.83599353967E+03  0.16293841187E+03 0.  0.
        -24    2    5    5    0    0  0.73040897679E+02  0.11426428552E+03  0.21470646330E+03  0.26663027842E+03  0.81249863437E+02 0.  0.
          5    1    3    3  501    0 -0.10771358317E+02 -0.16999357639E+03 -0.29957604931E+03  0.34464726532E+03  0.47000000000E+01 0. -1.
        -13    1    4    4    0    0 -0.83951332259E+02 -0.13189270850E+03 -0.17134929943E+03  0.23195709767E+03  0.00000000000E+00 0.  1.
         14    1    4    4    0    0 -0.56226542729E+02 -0.14894423382E+02 -0.10467153497E+03  0.11974722622E+03  0.00000000000E+00 0. -1.
         -5    1    5    5    0  502  0.77908335626E+02  0.20251642275E+03  0.52637422336E+03  0.56936326125E+03  0.47000000000E+01 0.  1.
         13    1    6    6    0    0  0.83505597721E+02  0.87743243742E+02  0.20173697665E+03  0.23530803093E+03  0.00000000000E+00 0. -1.
        -14    1    6    6    0    0 -0.10464700041E+02  0.26521041777E+02  0.12969486655E+02  0.31322247492E+02  0.00000000000E+00 0.  1.
</event>
<event>
12    1  0.8563264E-002  0.1781144E+03  0.7818608E-02  0.1170139E+00
         21   -1    0    0  503  502  0.00000000000E+00  0.00000000000E+00  0.32103901361E+03  0.32103901361E+03  0.00000000000E+00 0. -1.
         21   -1    0    0  501  503 -0.00000000000E+00 -0.00000000000E+00 -0.14400475599E+03  0.14400475599E+03  0.00000000000E+00 0. -1.
          6    2    1    2  501    0 -0.28761131763E+02  0.19098497338E+02 -0.43675260922E+02  0.18142885283E+03  0.17267583769E+03 0.  0.
         24    2    3    3    0    0 -0.10134879719E+01  0.32193159651E+02  0.35404034740E+02  0.96475766249E+02  0.83765751422E+02 0.  0.
         -6    2    1    2    0  502  0.28761131763E+02 -0.19098497338E+02  0.22070951855E+03  0.28361491677E+03  0.17473629886E+03 0.  0.
        -24    2    5    5    0    0 -0.34669643448E+01  0.57116815854E+02  0.10930438589E+03  0.14476025273E+03  0.75721407152E+02 0.  0.
          5    1    3    3  501    0 -0.27747643791E+02 -0.13094662313E+02 -0.79079295662E+02  0.84953086580E+02  0.47000000000E+01 0. -1.
        -11    1    4    4    0    0  0.29758125527E+02 -0.14978005893E+02  0.15469352259E+02  0.36731288498E+02  0.00000000000E+00 0.  1.
         12    1    4    4    0    0 -0.30771613499E+02  0.47171165545E+02  0.19934682481E+02  0.59744477751E+02  0.00000000000E+00 0. -1.
         -5    1    5    5    0  502  0.32228096107E+02 -0.76215313191E+02  0.11140513265E+03  0.13885466404E+03  0.47000000000E+01 0.  1.
         13    1    6    6    0    0 -0.76415090197E+01  0.29667374080E+02 -0.13601040171E+01  0.30665870734E+02  0.00000000000E+00 0. -1.
        -14    1    6    6    0    0  0.41745446749E+01  0.27449441773E+02  0.11066448991E+03  0.11409438200E+03  0.00000000000E+00 0.  1.
</event>
<event>
12    1  0.8563264E-002  0.1797046E+03  0.7818608E-02  0.1168536E+00
         21   -1    0    0  503  502  0.00000000000E+00  0.00000000000E+00  0.53717636762E+03  0.53717636762E+03  0.00000000000E+00 0. -1.
         21   -1    0    0  501  503 -0.00000000000E+00 -0.00000000000E+00 -0.15098136654E+03  0.15098136654E+03  0.00000000000E+00 0. -1.
          6    2    1    2  501    0  0.31304993197E+02 -0.37281601935E+02 -0.74334244347E+02  0.19447192505E+03  0.17298505516E+03 0.  0.
         24    2    3    3    0    0 -0.39802889055E+02  0.25034640843E+02 -0.32850664280E+02  0.91115152429E+02  0.70794079126E+02 0.  0.
         -6    2    1    2    0  502 -0.31304993197E+02  0.37281601935E+02  0.46052924543E+03  0.49368580911E+03  0.17108060024E+03 0.  0.
        -24    2    5    5    0    0 -0.81242809132E+02  0.39898435304E+02  0.25600007776E+03  0.28307977001E+03  0.80036474189E+02 0.  0.
          5    1    3    3  501    0  0.71107882252E+02 -0.62316242778E+02 -0.41483580067E+02  0.10335677263E+03  0.47000000000E+01 0. -1.
        -11    1    4    4    0    0  0.87311714425E+01 -0.13399412959E+02  0.70330176962E+01  0.17471146509E+02  0.00000000000E+00 0.  1.
         12    1    4    4    0    0 -0.48534060498E+02  0.38434053802E+02 -0.39883681976E+02  0.73644005920E+02  0.00000000000E+00 0. -1.
         -5    1    5    5    0  502  0.49937815935E+02 -0.26168333690E+01  0.20452916767E+03  0.21060603910E+03  0.47000000000E+01 0.  1.
         11    1    6    6    0    0 -0.43986505833E+02  0.29222280133E+02  0.23100182313E+03  0.23696117117E+03  0.00000000000E+00 0. -1.
        -12    1    6    6    0    0 -0.37256303300E+02  0.10676155171E+02  0.24998254632E+02  0.46118598845E+02  0.00000000000E+00 0.  1.
</event>
<event>
12    1  0.8563264E-002  0.1937203E+03  0.7818608E-02  0.1156353E+00
         21   -1    0    0  501  502  0.00000000000E+00  0.00000000000E+00  0.28448647817E+03  0.28448647817E+03  0.00000000000E+00 0.  1.
         21   -1    0    0  502  503 -0.00000000000E+00 -0.00000000000E+00 -0.46686718933E+03  0.46686718933E+03  0.00000000000E+00 0.  1.
         -6    2    1    2    0  503 -0.83570023695E+02 -0.24151153946E+02 -0.41147188122E+03  0.45479298179E+03  0.17309049700E+03 0.  0.
        -24    2    3    3    0    0 -0.88759469822E+02  0.25343279148E+02 -0.17935826981E+03  0.21735783726E+03  0.80959960384E+02 0.  0.
          6    2    1    2  501    0  0.83570023695E+02  0.24151153946E+02  0.22909117007E+03  0.29656068571E+03  0.16702768934E+03 0.  0.
         24    2    5    5    0    0  0.10143112130E+02 -0.36945351649E+02  0.14103813330E+03  0.16656175640E+03  0.79895068166E+02 0.  0.
          5    1    5    5  501    0  0.73426911565E+02  0.61096505595E+02  0.88053036766E+02  0.12999892931E+03  0.47000000000E+01 0. -1.
        -13    1    6    6    0    0  0.25707839788E+02  0.13852498949E+02  0.23186476029E+02  0.37288033259E+02  0.00000000000E+00 0.  1.
         14    1    6    6    0    0 -0.15564727658E+02 -0.50797850598E+02  0.11785165727E+03  0.12927372314E+03  0.00000000000E+00 0. -1.
         -5    1    3    3    0  503  0.51894461265E+01 -0.49494433094E+02 -0.23211361141E+03  0.23743514453E+03  0.47000000000E+01 0.  1.
         11    1    4    4    0    0 -0.15697427193E+02 -0.19804217860E+02 -0.94570069441E+01  0.26982424759E+02  0.00000000000E+00 0. -1.
        -12    1    4    4    0    0 -0.73062042629E+02  0.45147497007E+02 -0.16990126287E+03  0.19037541250E+03  0.00000000000E+00 0.  1.
</event>
<event>
12    1  0.8563264E-002  0.1791304E+03  0.7818608E-02  0.1169209E+00
         21   -1    0    0  501  502  0.00000000000E+00  0.00000000000E+00  0.36414787844E+03  0.36414787844E+03  0.00000000000E+00 0.  1.
         21   -1    0    0  502  503 -0.00000000000E+00 -0.00000000000E+00 -0.87424408387E+02  0.87424408387E+02  0.00000000000E+00 0. -1.
         -6    2    1    2    0  503  0.19239536737E+02  0.44096795688E+02  0.15331826153E+03  0.23404859117E+03  0.17016922915E+03 0.  0.
        -24    2    3    3    0    0 -0.16005529186E+02 -0.31798071539E+02  0.48322558168E+02  0.99704133649E+02  0.79615013162E+02 0.  0.
          6    2    1    2  501    0 -0.19239536737E+02 -0.44096795688E+02  0.12340520853E+03  0.21752369566E+03  0.17254861783E+03 0.  0.
         24    2    5    5    0    0 -0.30078702096E+02 -0.60828694268E+02  0.15042947160E+03  0.18361433515E+03  0.80500557638E+02 0.  0.
          5    1    5    5  501    0  0.10839165359E+02  0.16731898581E+02 -0.27024263069E+02  0.33909360510E+02  0.47000000000E+01 0. -1.
        -11    1    6    6    0    0 -0.32258675912E+02  0.26825585196E+01  0.18764644303E+02  0.37415640682E+02  0.00000000000E+00 0.  1.
         12    1    6    6    0    0  0.21799738165E+01 -0.63511252788E+02  0.13166482730E+03  0.14619869447E+03  0.00000000000E+00 0. -1.
         -5    1    3    3    0  503  0.35245065923E+02  0.75894867227E+02  0.10499570336E+03  0.13434445752E+03  0.47000000000E+01 0.  1.
         13    1    4    4    0    0 -0.19117759643E+02  0.15505255863E+02 -0.81894961173E+01  0.25941656459E+02  0.00000000000E+00 0. -1.
        -14    1    4    4    0    0  0.31122304573E+01 -0.47303327403E+02  0.56512054285E+02  0.73762477191E+02  0.00000000000E+00 0.  1.
</event>
<event>
12    1  0.8563264E-002  0.3018467E+03  0.7818608E-02  0.1084352E+00
         21   -1    0    0  501  502  0.00000000000E+00  0.00000000000E+00  0.13293598427E+03  0.13293598427E+03  0.00000000000E+00 0. -1.
         21   -1    0    0  502  503 -0.00000000000E+00 -0.00000000000E+00 -0.70013178781E+03  0.70013178781E+03  0.00000000000E+00 0.  1.
         -6    2    1    2    0  503 -0.45836293720E+02 -0.24395788739E+03 -0.22209431074E+03  0.37474969273E+03  0.17174117938E+03 0.  0.
        -24    2    3    3    0    0 -0.77868941149E+02 -0.16392465433E+03 -0.91095679203E+02  0.21786074997E+03  0.78930471401E+02 0.  0.
          6    2    1    2  501    0  0.45836293720E+02  0.24395788739E+03 -0.34510149280E+03  0.45831807935E+03  0.17130091909E+03 0.  0.
         24    2    5    5    0    0 -0.25430481578E+02  0.19791297183E+03 -0.22314306373E+03  0.30967408878E+03  0.79302966896E+02 0.  0.
          5    1    5    5  501    0  0.71266775298E+02  0.46044915561E+02 -0.12195842907E+03  0.14864399057E+03  0.47000000000E+01 0. -1.
        -11    1    6    6    0    0 -0.20377966250E+02  0.18087286723E+03 -0.22752117108E+03  0.29136941998E+03  0.00000000000E+00 0.  1.
         12    1    6    6    0    0 -0.50525153278E+01  0.17040104600E+02  0.43781073516E+01  0.18304668801E+02  0.00000000000E+00 0. -1.
         -5    1    3    3    0  503  0.32032647430E+02 -0.80033233068E+02 -0.13099863154E+03  0.15688894276E+03  0.47000000000E+01 0.  1.
         11    1    4    4    0    0  0.71711097173E+01 -0.61465832994E+02 -0.46613825879E+02  0.77474655232E+02  0.00000000000E+00 0. -1.
        -12    1    4    4    0    0 -0.85040050867E+02 -0.10245882133E+03 -0.44481853324E+02  0.14038609474E+03  0.00000000000E+00 0.  1.
</event>
<event>
12    1  0.8563264E-002  0.2042543E+03  0.7818608E-02  0.1146212E+00
         21   -1    0    0  501  502  0.00000000000E+00  0.00000000000E+00  0.29750407208E+03  0.29750407208E+03  0.00000000000E+00 0. -1.
         21   -1    0    0  502  503 -0.00000000000E+00 -0.00000000000E+00 -0.29794677753E+03  0.29794677753E+03  0.00000000000E+00 0. -1.
         -6    2    1    2    0  503 -0.10947136673E+03 -0.60234901192E+01 -0.21686466442E+03  0.29786338413E+03  0.17225577019E+03 0.  0.
        -24    2    3    3    0    0  0.40465777954E+01  0.48661518342E+02 -0.54945316420E+02  0.92639752114E+02  0.56381004922E+02 0.  0.
          6    2    1    2  501    0  0.10947136673E+03  0.60234901192E+01  0.21642195898E+03  0.29758746548E+03  0.17233563972E+03 0.  0.
         24    2    5    5    0    0  0.11664914246E+03 -0.47943389623E+02  0.14361724008E+03  0.20655691200E+03  0.78321486201E+02 0.  0.
          5    1    5    5  501    0 -0.71777757324E+01  0.53966879742E+02  0.72804718902E+02  0.91030553486E+02  0.47000000000E+01 0. -1.
        -13    1    6    6    0    0  0.16312333243E+02  0.95610589814E+01  0.62499944953E+02  0.65297390329E+02  0.00000000000E+00 0.  1.
         14    1    6    6    0    0  0.10033680922E+03 -0.57504448604E+02  0.81117295124E+02  0.14125952167E+03  0.00000000000E+00 0. -1.
         -5    1    3    3    0  503 -0.11351794453E+03 -0.54685008461E+02 -0.16191934800E+03  0.20522363202E+03  0.47000000000E+01 0.  1.
         11    1    4    4    0    0 -0.49113984469E+01  0.52032648036E+02 -0.61748143835E+02  0.80897166597E+02  0.00000000000E+00 0. -1.
        -12    1    4    4    0    0  0.89579762423E+01 -0.33711296942E+01  0.68028274152E+01  0.11742585517E+02  0.00000000000E+00 0.  1.
</event>
<event>
12    1  0.8563264E-002  0.2206245E+03  0.7818608E-02  0.1136146E+00
         21   -1    0    0  501  502  0.00000000000E+00  0.00000000000E+00  0.66088339699E+02  0.66088339699E+02  0.00000000000E+00 0. -1.
         21   -1    0    0  502  503 -0.00000000000E+00 -0.00000000000E+00 -0.79269006626E+03  0.79269006626E+03  0.00000000000E+00 0. -1.
         -6    2    1    2    0  503 -0.99611384787E+01 -0.13714289053E+03 -0.52830470988E+03  0.57252165105E+03  0.17253341050E+03 0.  0.
        -24    2    3    3    0    0 -0.44666668904E+02 -0.15573849103E+03 -0.45403933943E+03  0.48833313967E+03  0.77897013120E+02 0.  0.
          6    2    1    2  501    0  0.99611384787E+01  0.13714289053E+03 -0.19829701668E+03  0.28625675491E+03  0.15399294206E+03 0.  0.
         24    2    5    5    0    0  0.86507479689E+01  0.12835171978E+03 -0.88671809948E+02  0.17617143455E+03  0.81392168308E+02 0.  0.
          5    1    5    5  501    0  0.13103905098E+01  0.87911707455E+01 -0.10962520673E+03  0.11008532035E+03  0.47000000000E+01 0. -1.
        -13    1    6    6    0    0 -0.29295776238E+02  0.33842849141E+02 -0.63322596248E+01  0.45207062007E+02  0.00000000000E+00 0.  1.
         14    1    6    6    0    0  0.37946524206E+02  0.94508870640E+02 -0.82339550323E+02  0.13096437255E+03  0.00000000000E+00 0. -1.
         -5    1    3    3    0  503  0.34705530425E+02  0.18595600501E+02 -0.74265370451E+02  0.84188511379E+02  0.47000000000E+01 0.  1.
         11    1    4    4    0    0  0.43215218743E+01 -0.40957226833E+02 -0.46511299747E+02  0.62124640725E+02  0.00000000000E+00 0. -1.
        -12    1    4    4    0    0 -0.48988190778E+02 -0.11478126419E+03 -0.40752803968E+03  0.42620849894E+03  0.00000000000E+00 0.  1.
</event>
<event>
12    1  0.8563264E-002  0.2179504E+03  0.7818608E-02  0.1135511E+00
         21   -1    0    0  503  502  0.00000000000E+00  0.00000000000E+00  0.38869646957E+03  0.38869646957E+03  0.00000000000E+00 0.  1.
         21   -1    0    0  501  503 -0.00000000000E+00 -0.00000000000E+00 -0.12456236296E+03  0.12456236296E+03  0.00000000000E+00 0.  1.
          6    2    1    2  501    0  0.13378118389E+03  0.17819345898E+02  0.16943199479E+03  0.27606079305E+03  0.17113569572E+03 0.  0.
         24    2    3    3    0    0  0.18470878193E+01  0.16839134600E+02  0.41799969115E+02  0.92431845176E+02  0.80681103099E+02 0.  0.
         -6    2    1    2    0  502 -0.13378118389E+03 -0.17819345898E+02  0.94702111815E+02  0.23719803948E+03  0.17052708201E+03 0.  0.
        -24    2    5    5    0    0 -0.66266413264E+02  0.11821186954E+02 -0.22620783243E+02  0.98548996403E+02  0.68331741304E+02 0.  0.
          5    1    3    3  501    0  0.13193409607E+03  0.98021129741E+00  0.12763202568E+03  0.18362894788E+03  0.47000000000E+01 0. -1.
        -13    1    4    4    0    0  0.37571281743E+02  0.20044497792E+02  0.36674722757E+02  0.56199807766E+02  0.00000000000E+00 0.  1.
         14    1    4    4    0    0 -0.35724193924E+02 -0.32053631921E+01  0.51252463572E+01  0.36232037411E+02  0.00000000000E+00 0. -1.
         -5    1    5    5    0  502 -0.67514770626E+02 -0.29640532852E+02  0.11732289506E+03  0.13864904307E+03  0.47000000000E+01 0.  1.
         13    1    6    6    0    0 -0.79536902302E+01 -0.10199421904E+02 -0.32921943014E+02  0.35371510107E+02  0.00000000000E+00 0. -1.
        -14    1    6    6    0    0 -0.58312723034E+02  0.22020608858E+02  0.10301159771E+02  0.63177486296E+02  0.00000000000E+00 0.  1.
</event>
<event>
12    1  0.8563264E-002  0.2343625E+03  0.7818608E-02  0.1123701E+00
         21   -1    0    0  503  502  0.00000000000E+00  0.00000000000E+00  0.31776884173E+03  0.31776884173E+03  0.00000000000E+00 0.  1.
         21   -1    0    0  501  503 -0.00000000000E+00 -0.00000000000E+00 -0.26481939304E+03  0.26481939304E+03  0.00000000000E+00 0.  1.
          6    2    1    2  501    0 -0.49466052035E+02  0.15021379165E+03 -0.14559059155E+03  0.27543367342E+03  0.17220921753E+03 0.  0.
         24    2    3    3    0    0 -0.22393269558E+02  0.17036700874E+03 -0.14993507707E+03  0.24108178461E+03  0.78189023198E+02 0.  0.
         -6    2    1    2    0  502  0.49466052035E+02 -0.15021379165E+03  0.19854004024E+03  0.30715456135E+03  0.17295867562E+03 0.  0.
        -24    2    5    5    0    0 -0.20629606377E+02 -0.15318533256E+02  0.75817160809E+02  0.11172394143E+03  0.77934325528E+02 0.  0.
          5    1    3    3  501    0 -0.27072782477E+02 -0.20153217090E+02  0.43444855242E+01  0.34351888806E+02  0.47000000000E+01 0. -1.
        -11    1    4    4    0    0 -0.61612602578E+01  0.11112797573E+03 -0.46159332423E+02  0.12049096268E+03  0.00000000000E+00 0.  1.
         12    1    4    4    0    0 -0.16232009300E+02  0.59239033010E+02 -0.10377574465E+03  0.12059082194E+03  0.00000000000E+00 0. -1.
         -5    1    5    5    0  502  0.70095658412E+02 -0.13489525839E+03  0.12272287944E+03  0.19543061992E+03  0.47000000000E+01 0.  1.
         13    1    6    6    0    0 -0.37366463693E+02 -0.31737684783E+02  0.73243668247E+02  0.88137212246E+02  0.00000000000E+00 0. -1.
        -14    1    6    6    0    0  0.16736857316E+02  0.16419151527E+02  0.25734925618E+01  0.23586729185E+02  0.00000000000E+00 0.  1.
</event>
<event>
12    1  0.8563264E-002  0.1739365E+03  0.7818608E-02  0.1174224E+00
         21   -1    0    0  503  502  0.00000000000E+00  0.00000000000E+00  0.65634617693E+03  0.65634617693E+03  0.00000000000E+00 0. -1.
         21   -1    0    0  501  503 -0.00000000000E+00 -0.00000000000E+00 -0.10536865523E+03  0.10536865523E+03  0.00000000000E+00 0. -1.
          6    2    1    2  501    0  0.13680377604E+02  0.17352434433E+02 -0.10643938005E+02  0.17426185523E+03  0.17252721832E+03 0.  0.
         24    2    3    3    0    0  0.62879798578E+02  0.25283332570E+02 -0.48918028822E+02  0.11125012460E+03  0.73420029317E+02 0.  0.
         -6    2    1    2    0  502 -0.13680377604E+02 -0.17352434433E+02  0.56162145971E+03  0.58745297692E+03  0.17086274135E+03 0.  0.
        -24    2    5    5    0    0 -0.73386305444E+02 -0.18194402356E+01  0.40699195100E+03  0.42090434531E+03  0.78288949006E+02 0.  0.
          5    1    3    3  501    0 -0.49199420973E+02 -0.79308981372E+01  0.38274090816E+02  0.63011730632E+02  0.47000000000E+01 0. -1.
        -13    1    4    4    0    0 -0.16586463530E+02  0.53734370150E+00 -0.99483204298E+01  0.19348606928E+02  0.00000000000E+00 0.  1.
         14    1    4    4    0    0  0.79466262108E+02  0.24745988868E+02 -0.38969708392E+02  0.91901517673E+02  0.00000000000E+00 0. -1.
         -5    1    5    5    0  502  0.59705927840E+02 -0.15532994197E+02  0.15462950871E+03  0.16654863161E+03  0.47000000000E+01 0.  1.
         11    1    6    6    0    0 -0.38003988321E+02  0.35463087646E+02  0.14803959382E+03  0.15690014357E+03  0.00000000000E+00 0. -1.
        -12    1    6    6    0    0 -0.35382317124E+02 -0.37282527881E+02  0.25895235717E+03  0.26400420174E+03  0.00000000000E+00 0.  1.
</event>
<event>
12    1  0.8563264E-002  0.2425530E+03  0.7818608E-02  0.1118587E+00
         21   -1    0    0  503  502  0.00000000000E+00  0.00000000000E+00  0.13302367569E+03  0.13302367569E+03  0.00000000000E+00 0.  1.
         21   -1    0    0  501  503 -0.00000000000E+00 -0.00000000000E+00 -0.48327020998E+03  0.48327020998E+03  0.00000000000E+00 0.  1.
          6    2    1    2  501    0 -0.15820697465E+03  0.67253667799E+02 -0.27148260291E+03  0.36405322925E+03  0.17111238232E+03 0.  0.
         24    2    3    3    0    0 -0.15833422973E+02  0.11547688808E+02 -0.55522891111E+02  0.99413717018E+02  0.80101493707E+02 0.  0.
         -6    2    1    2    0  502  0.15820697465E+03 -0.67253667799E+02 -0.78763931379E+02  0.25224065642E+03  0.16694037620E+03 0.  0.
        -24    2    5    5    0    0  0.39259742718E+02 -0.29856729138E+01 -0.75860661058E+02  0.11692865352E+03  0.79794915105E+02 0.  0.
          5    1    3    3  501    0 -0.14237355168E+03  0.55705978991E+02 -0.21595971180E+03  0.26463951223E+03  0.47000000000E+01 0. -1.
        -13    1    4    4    0    0 -0.27949294120E+02  0.36849518488E+02 -0.54309712277E+02  0.71334387936E+02  0.00000000000E+00 0.  1.
         14    1    4    4    0    0  0.12115871147E+02 -0.25301829680E+02 -0.12131788338E+01  0.28079329082E+02  0.00000000000E+00 0. -1.
         -5    1    5    5    0  502  0.11894723193E+03 -0.64267994885E+02 -0.29032703216E+01  0.13531200290E+03  0.47000000000E+01 0.  1.
         11    1    6    6    0    0  0.24094420137E+02  0.33840457016E+02 -0.62254482720E+02  0.74842088637E+02  0.00000000000E+00 0. -1.
        -12    1    6    6    0    0  0.15165322582E+02 -0.36826129930E+02 -0.13606178337E+02  0.42086564882E+02  0.00000000000E+00 0.  1.
</event>
<event>
12    1  0.8563264E-002  0.2601103E+03  0.7818608E-02  0.1107214E+00
         21   -1    0    0  503  502  0.00000000000E+00  0.00000000000E+00  0.22260753276E+03  0.22260753276E+03  0.00000000000E+00 0. -1.
         21   -1    0    0  501  503 -0.00000000000E+00 -0.00000000000E+00 -0.44119105721E+03  0.44119105721E+03  0.00000000000E+00 0. -1.
          6    2    1    2  501    0 -0.17255246465E+03  0.88850919442E+02 -0.29526680864E+03  0.39349697822E+03  0.17317200883E+03 0.  0.
         24    2    3    3    0    0 -0.13007825565E+03  0.12619895936E+02 -0.10708548130E+03  0.18601317323E+03  0.77807364325E+02 0.  0.
         -6    2    1    2    0  502  0.17255246465E+03 -0.88850919442E+02  0.76683284189E+02  0.27030161175E+03  0.17179579827E+03 0.  0.
        -24    2    5    5    0    0  0.17191089390E+03 -0.10683069111E+03  0.10070254318E+03  0.23992565737E+03  0.80356498545E+02 0.  0.
          5    1    3    3  501    0 -0.42474209001E+02  0.76231023506E+02 -0.18818132734E+03  0.20748380499E+03  0.47000000000E+01 0. -1.
        -11    1    4    4    0    0 -0.10484609075E+03  0.42342964867E+02 -0.81359895774E+02  0.13930205332E+03  0.00000000000E+00 0.  1.
         12    1    4    4    0    0 -0.25232164893E+02 -0.29723068932E+02 -0.25725585528E+02  0.46711119903E+02  0.00000000000E+00 0. -1.
         -5    1    5    5    0  502  0.64157074878E+00  0.17979771670E+02 -0.24019258989E+02  0.30375954384E+02  0.47000000000E+01 0.  1.
         11    1    6    6    0    0  0.11891670582E+03 -0.28271423940E+02  0.66712363306E+02  0.13925155565E+03  0.00000000000E+00 0. -1.
        -12    1    6    6    0    0  0.52994188080E+02 -0.78559267172E+02  0.33990179872E+02  0.10067410172E+03  0.00000000000E+00 0.  1.
</event>
<event>
12    1  0.8563264E-002  0.1742942E+03  0.7818608E-02  0.1173537E+00
         21   -1    0    0  503  502  0.00000000000E+00  0.00000000000E+00  0.54737907103E+03  0.54737907103E+03  0.00000000000E+00 0. -1.
         21   -1    0    0  501  503 -0.00000000000E+00 -0.00000000000E+00 -0.62483247309E+02  0.62483247309E+02  0.00000000000E+00 0. -1.
          6    2    1    2  501    0  0.14512026349E+02 -0.23366519428E+02  0.13985701275E+03  0.22346915320E+03  0.17211009639E+03 0.  0.
         24    2    3    3    0    0 -0.44002555661E+02  0.15107543677E+02  0.37722123294E+02  0.99542418868E+02  0.79506426077E+02 0.  0.
         -6    2    1    2    0  502 -0.14512026349E+02  0.23366519428E+02  0.34503881097E+03  0.38639316513E+03  0.17173032302E+03 0.  0.
        -24    2    5    5    0    0 -0.45458361371E+02  0.23473671065E+02  0.34183457877E+03  0.35492819672E+03  0.80657732005E+02 0.  0.
          5    1    3    3  501    0  0.58514582010E+02 -0.38474063104E+02  0.10213488945E+03  0.12392673434E+03  0.47000000000E+01 0. -1.
        -13    1    4    4    0    0 -0.18906086110E+02  0.43854883966E+02  0.38547672719E+02  0.61372746490E+02  0.00000000000E+00 0.  1.
         14    1    4    4    0    0 -0.25096469551E+02 -0.28747340289E+02 -0.82554942437E+00  0.38169672378E+02  0.00000000000E+00 0. -1.
         -5    1    5    5    0  502  0.30946335022E+02 -0.10715163788E+00  0.32042321930E+01  0.31464968405E+02  0.47000000000E+01 0.  1.
         11    1    6    6    0    0 -0.15642862215E+01 -0.78438680125E+01 -0.83533899497E+00  0.80418311358E+01  0.00000000000E+00 0. -1.
        -12    1    6    6    0    0 -0.43894075149E+02  0.31317539078E+02  0.34266991777E+03  0.34688636559E+03  0.00000000000E+00 0.  1.
</event>
<event>
12    1  0.8563264E-002  0.1773446E+03  0.7818608E-02  0.1171521E+00
         21   -1    0    0  503  502  0.00000000000E+00  0.00000000000E+00  0.68573056345E+02  0.68573056345E+02  0.00000000000E+00 0.  1.
         21   -1    0    0  501  503 -0.00000000000E+00 -0.00000000000E+00 -0.23332371841E+04  0.23332371841E+04  0.00000000000E+00 0.  1.
          6    2    1    2  501    0 -0.26480279227E+02  0.29272672828E+02 -0.22148236032E+04  0.22219123991E+04  0.17289598363E+03 0.  0.
         24    2    3    3    0    0 -0.45355557489E+02 -0.34601133620E+02 -0.16913761075E+04  0.16942235607E+04  0.79912275707E+02 0.  0.
         -6    2    1    2    0  502  0.26480279227E+02 -0.29272672828E+02 -0.49840524546E+02  0.17989784140E+03  0.16828862377E+03 0.  0.
        -24    2    5    5    0    0  0.39160684267E+02 -0.63932369690E+02 -0.58889863252E+02  0.14160857672E+03  0.10470943568E+03 0.  0.
          5    1    3    3  501    0  0.18875278262E+02  0.63873806448E+02 -0.52344749575E+03  0.52768883832E+03  0.47000000000E+01 0. -1.
        -11    1    4    4    0    0 -0.58497218723E+02 -0.95571539809E+01 -0.71994706475E+03  0.72238289005E+03  0.00000000000E+00 0.  1.
         12    1    4    4    0    0  0.13141661235E+02 -0.25043979639E+02 -0.97142904271E+03  0.97184067068E+03  0.00000000000E+00 0. -1.
         -5    1    5    5    0  502 -0.12680405040E+02  0.34659696862E+02  0.90493387055E+01  0.38289264678E+02  0.47000000000E+01 0.  1.
         13    1    6    6    0    0 -0.18326292376E+02 -0.46078143196E+01 -0.55832423660E+02  0.58943570275E+02  0.00000000000E+00 0. -1.
        -14    1    6    6    0    0  0.57486976643E+02 -0.59324555370E+02 -0.30574395916E+01  0.82665006443E+02  0.00000000000E+00 0.  1.
</event>
<event>
12    1  0.8563264E-002  0.1996448E+03  0.7818608E-02  0.1150117E+00
         21   -1    0    0  501  502  0.00000000000E+00  0.00000000000E+00  0.28578171844E+03  0.28578171844E+03  0.00000000000E+00 0. -1.
         21   -1    0    0  502  503 -0.00000000000E+00 -0.00000000000E+00 -0.14423194051E+03  0.14423194051E+03  0.00000000000E+00 0.  1.
         -6    2    1    2    0  503  0.68018238140E+02  0.74525765050E+02  0.11094276986E+03  0.22839952315E+03  0.17227151133E+03 0.  0.
        -24    2    3    3    0    0  0.10718914039E+03  0.26625520132E+02  0.65926114063E+02  0.15173543543E+03  0.80491985380E+02 0.  0.
          6    2    1    2  501    0 -0.68018238140E+02 -0.74525765050E+02  0.30607008075E+02  0.20161413580E+03  0.17184557147E+03 0.  0.
         24    2    5    5    0    0 -0.10376054923E+03 -0.43747669212E+02 -0.11924394375E+02  0.13792886136E+03  0.78753218838E+02 0.  0.
          5    1    5    5  501    0  0.35742311089E+02 -0.30778095837E+02  0.42531402450E+02  0.63685274434E+02  0.47000000000E+01 0. -1.
        -11    1    6    6    0    0 -0.63649420628E+02 -0.61307887333E+02 -0.25685665777E+02  0.92030751501E+02  0.00000000000E+00 0.  1.
         12    1    6    6    0    0 -0.40111128601E+02  0.17560218121E+02  0.13761271401E+02  0.45898109860E+02  0.00000000000E+00 0. -1.
         -5    1    3    3    0  503 -0.39170902254E+02  0.47900244917E+02  0.45016655797E+02  0.76664087718E+02  0.47000000000E+01 0.  1.
         13    1    4    4    0    0  0.50532563795E+02 -0.16583771618E+02  0.60087001421E+02  0.80243437268E+02  0.00000000000E+00 0. -1.
        -14    1    4    4    0    0  0.56656576599E+02  0.43209291750E+02  0.58391126419E+01  0.71491998167E+02  0.00000000000E+00 0.  1.
</event>
<event>
12    1  0.8563264E-002  0.1930089E+03  0.7818608E-02  0.1155895E+00
         21   -1    0    0  503  502  0.00000000000E+00  0.00000000000E+00  0.22257645749E+03  0.22257645749E+03  0.00000000000E+00 0.  1.
         21   -1    0    0  501  503 -0.00000000000E+00 -0.00000000000E+00 -0.17842504983E+03  0.17842504983E+03  0.00000000000E+00 0.  1.
          6    2    1    2  501    0  0.79930355575E+02 -0.40023965175E+02 -0.28852610809E+02  0.19515356201E+03  0.17106039894E+03 0.  0.
         24    2    3    3    0    0  0.49273060516E+01 -0.74061403607E+02 -0.28646688371E+02  0.11265424652E+03  0.79755731169E+02 0.  0.
         -6    2    1    2    0  502 -0.79930355575E+02  0.40023965175E+02  0.73004018474E+02  0.20584794531E+03  0.17044943632E+03 0.  0.
        -24    2    5    5    0    0 -0.26285729183E+02 -0.24591654501E+02 -0.13160419528E+02  0.85434803903E+02  0.76355877613E+02 0.  0.
          5    1    3    3  501    0  0.75003049523E+02  0.34037438433E+02 -0.20592243754E+00  0.82499315493E+02  0.47000000000E+01 0. -1.
        -13    1    4    4    0    0  0.99060763332E+01 -0.56264231471E+02 -0.55767126891E+02  0.79835872470E+02  0.00000000000E+00 0.  1.
         14    1    4    4    0    0 -0.49787702816E+01 -0.17797172137E+02  0.27120438520E+02  0.32818374047E+02  0.00000000000E+00 0. -1.
         -5    1    5    5    0  502 -0.53644626391E+02  0.64615619676E+02  0.86164438001E+02  0.12041314140E+03  0.47000000000E+01 0.  1.
         11    1    6    6    0    0  0.65966657820E+01 -0.35803417799E+02  0.16295796582E+02  0.39886761109E+02  0.00000000000E+00 0. -1.
        -12    1    6    6    0    0 -0.32882394965E+02  0.11211763298E+02 -0.29456216110E+02  0.45548042794E+02  0.00000000000E+00 0.  1.
</event>
<event>
12    1  0.8563264E-002  0.2017948E+03  0.7818608E-02  0.1148627E+00
         21   -1    0    0  503  502  0.00000000000E+00  0.00000000000E+00  0.81613728074E+03  0.81613728074E+03  0.00000000000E+00 0.  1.
         21   -1    0    0  501  503 -0.00000000000E+00 -0.00000000000E+00 -0.71639033473E+02  0.71639033473E+02  0.00000000000E+00 0. -1.
          6    2    1    2  501    0  0.46873748127E+01  0.10421160472E+03  0.12390994067E+03  0.23520371813E+03  0.17054350056E+03 0.  0.
         24    2    3    3    0    0  0.67363363524E+02  0.57226159641E+02  0.97169318780E+02  0.15229978294E+03  0.77075880013E+02 0.  0.
         -6    2    1    2    0  502 -0.46873748127E+01 -0.10421160472E+03  0.62058830659E+03  0.65257259608E+03  0.17274002674E+03 0.  0.
        -24    2    5    5    0    0  0.40543412542E+02 -0.12085527742E+03  0.41432208306E+03  0.44069838591E+03  0.79388364707E+02 0.  0.
          5    1    3    3  501    0 -0.62675988712E+02  0.46985445075E+02  0.26740621890E+02  0.82903935184E+02  0.47000000000E+01 0. -1.
        -11    1    4    4    0    0 -0.23316827676E+01  0.41846351472E+02  0.55861672811E+02  0.69836096435E+02  0.00000000000E+00 0.  1.
         12    1    4    4    0    0  0.69695046292E+02  0.15379808169E+02  0.41307645968E+02  0.82463686507E+02  0.00000000000E+00 0. -1.
         -5    1    5    5    0  502 -0.45230787355E+02  0.16643672706E+02  0.20626622353E+03  0.21187421017E+03  0.47000000000E+01 0.  1.
         13    1    6    6    0    0 -0.12367957156E+02 -0.85241485882E+02  0.22513807768E+03  0.24105234141E+03  0.00000000000E+00 0. -1.
        -14    1    6    6    0    0  0.52911369698E+02 -0.35613791539E+02  0.18918400538E+03  0.19964604450E+03  0.00000000000E+00 0.  1.
</event>
<event>
12    1  0.8563264E-002  0.1779980E+03  0.7818608E-02  0.1170070E+00
         21   -1    0    0  501  502  0.00000000000E+00  0.00000000000E+00  0.58586181374E+03  0.58586181374E+03  0.00000000000E+00 0.  1.
         21   -1    0    0  502  503 -0.00000000000E+00 -0.00000000000E+00 -0.14918374461E+03  0.14918374461E+03  0.00000000000E+00 0.  1.
         -6    2    1    2    0  503 -0.29475331952E+02  0.24196424022E+02 -0.75984094272E+02  0.19236169866E+03  0.17255485621E+03 0.  0.
        -24    2    3    3    0    0  0.22569593497E+02 -0.40091036074E+02 -0.52060681413E+02  0.10612961952E+03  0.80227824759E+02 0.  0.
          6    2    1    2  501    0  0.29475331952E+02 -0.24196424022E+02  0.51266216341E+03  0.54268385969E+03  0.17386493507E+03 0.  0.
         24    2    5    5    0    0  0.86916133252E+02 -0.86123713427E+01  0.33423581598E+03  0.35453402629E+03  0.79700739982E+02 0.  0.
          5    1    5    5  501    0 -0.57440801300E+02 -0.15584052679E+02  0.17842634743E+03  0.18814983340E+03  0.47000000000E+01 0. -1.
        -13    1    6    6    0    0  0.24466439774E+02  0.16994604775E+02  0.21876191015E+03  0.22078087915E+03  0.00000000000E+00 0.  1.
         14    1    6    6    0    0  0.62449693478E+02 -0.25606976118E+02  0.11547390582E+03  0.13375314713E+03  0.00000000000E+00 0. -1.
         -5    1    3    3    0  503 -0.52044925449E+02  0.64287460096E+02 -0.23923412859E+02  0.86232079143E+02  0.47000000000E+01 0.  1.
         13    1    4    4    0    0  0.40411272304E+01 -0.26780155684E+02  0.17952554265E+02  0.32493101613E+02  0.00000000000E+00 0. -1.
        -14    1    4    4    0    0  0.18528466267E+02 -0.13310880390E+02 -0.70013235678E+02  0.73636517905E+02  0.00000000000E+00 0.  1.
</event>
<event>
12    1  0.8563264E-002  0.1760498E+03  0.7818608E-02  0.1171749E+00
         21   -1    0    0  501  502  0.00000000000E+00  0.00000000000E+00  0.30019605051E+03  0.30019605051E+03  0.00000000000E+00 0.  1.
         21   -1    0    0  502  503 -0.00000000000E+00 -0.00000000000E+00 -0.14065168217E+03  0.14065168217E+03  0.00000000000E+00 0.  1.
         -6    2    1    2    0  503 -0.22913499323E+02  0.28313195737E+02 -0.34098123667E+02  0.17932155021E+03  0.17224073510E+03 0.  0.
        -24    2    3    3    0    0  0.14472428243E+02 -0.16784266093E+02 -0.71586469861E+02  0.10961534716E+03  0.79998368091E+02 0.  0.
          6    2    1    2  501    0  0.22913499323E+02 -0.28313195737E+02  0.19364249201E+03  0.26152618248E+03  0.17196471704E+03 0.  0.
         24    2    5    5    0    0  0.81474628734E+02 -0.14948005657E+02  0.12304923967E+03  0.16871706946E+03  0.80391393461E+02 0.  0.
          5    1    5    5  501    0 -0.58561129411E+02 -0.13365190080E+02  0.70593252333E+02  0.92809113016E+02  0.47000000000E+01 0. -1.
        -11    1    6    6    0    0  0.14213600518E+02  0.17651696611E+02  0.78493819102E+02  0.81699990637E+02  0.00000000000E+00 0.  1.
         12    1    6    6    0    0  0.67261028216E+02 -0.32599702268E+02  0.44555420572E+02  0.87017078823E+02  0.00000000000E+00 0. -1.
         -5    1    3    3    0  503 -0.37385927566E+02  0.45097461830E+02  0.37488346194E+02  0.69706203051E+02  0.47000000000E+01 0.  1.
         11    1    4    4    0    0  0.26569356133E+02 -0.17627448409E+02  0.48246344781E+01  0.32248018863E+02  0.00000000000E+00 0. -1.
        -12    1    4    4    0    0 -0.12096927890E+02  0.84318231650E+00 -0.76411104339E+02  0.77367328292E+02  0.00000000000E+00 0.  1.
</event>
<event>
12    1  0.8563264E-002  0.2407032E+03  0.7818608E-02  0.1119362E+00
         21   -1    0    0  503  502  0.00000000000E+00  0.00000000000E+00  0.20147355513E+03  0.20147355513E+03  0.00000000000E+00 0. -1.
         21   -1    0    0  501  503 -0.00000000000E+00 -0.00000000000E+00 -0.36417613271E+03  0.36417613271E+03  0.00000000000E+00 0.  1.
          6    2    1    2  501    0 -0.10000588384E+03  0.13549124691E+03 -0.21126234742E+03  0.32009709344E+03  0.17167211479E+03 0.  0.
         24    2    3    3    0    0 -0.35813057216E+02  0.28656520699E+00 -0.53490182899E+02  0.10257658672E+03  0.79863003258E+02 0.  0.
         -6    2    1    2    0  502  0.10000588384E+03 -0.13549124691E+03  0.48559769841E+02  0.24555259440E+03  0.17198537896E+03 0.  0.
        -24    2    5    5    0    0  0.41594505983E+02 -0.10855162272E+01  0.35267025845E+02  0.98326317713E+02  0.81810881731E+02 0.  0.
          5    1    3    3  501    0 -0.64192826627E+02  0.13520468171E+03 -0.15777216452E+03  0.21752050672E+03  0.47000000000E+01 0. -1.
        -13    1    4    4    0    0  0.28243595062E+01 -0.28539956959E+02 -0.45395080288E+02  0.53695618668E+02  0.00000000000E+00 0.  1.
         14    1    4    4    0    0 -0.38637416723E+02  0.28826522166E+02 -0.80951026104E+01  0.48880968049E+02  0.00000000000E+00 0. -1.
         -5    1    5    5    0  502  0.58411377860E+02 -0.13440573069E+03  0.13292743995E+02  0.14722627669E+03  0.47000000000E+01 0.  1.
         11    1    6    6    0    0  0.39453309758E+02 -0.36868222250E+02  0.30900307021E+02  0.62214615941E+02  0.00000000000E+00 0. -1.
        -12    1    6    6    0    0  0.21411962247E+01  0.35782706022E+02  0.43667188243E+01  0.36111701772E+02  0.00000000000E+00 0.  1.
</event>
<event>
12    1  0.8563264E-002  0.2568516E+03  0.7818608E-02  0.1109145E+00
         21   -1    0    0  501  502  0.00000000000E+00  0.00000000000E+00  0.68329588538E+03  0.68329588538E+03  0.00000000000E+00 0. -1.
         21   -1    0    0  502  503 -0.00000000000E+00 -0.00000000000E+00 -0.96452753089E+02  0.96452753089E+02  0.00000000000E+00 0.  1.
         -6    2    1    2    0  503 -0.18612829055E+03 -0.38499606365E+02  0.27841659258E+03  0.37837641623E+03  0.17183408598E+03 0.  0.
        -24    2    3    3    0    0 -0.11283722217E+03  0.39202021879E+02  0.19730802815E+03  0.24417577183E+03  0.80139330841E+02 0.  0.
          6    2    1    2  501    0  0.18612829055E+03  0.38499606365E+02  0.30842653971E+03  0.40137222224E+03  0.17276217801E+03 0.  0.
         24    2    5    5    0    0  0.13914953468E+03  0.92743260728E+02  0.22808897641E+03  0.29355018544E+03  0.78633483960E+02 0.  0.
          5    1    5    5  501    0  0.46978755870E+02 -0.54243654364E+02  0.80337563302E+02  0.10782203680E+03  0.47000000000E+01 0. -1.
        -13    1    6    6    0    0  0.14318728338E+03  0.67418279962E+02  0.18554224611E+03  0.24387240042E+03  0.00000000000E+00 0.  1.
         14    1    6    6    0    0 -0.40377486987E+01  0.25324980766E+02  0.42546730302E+02  0.49677785023E+02  0.00000000000E+00 0. -1.
         -5    1    3    3    0  503 -0.73291068374E+02 -0.77701628244E+02  0.81108564426E+02  0.13420064440E+03  0.47000000000E+01 0.  1.
         11    1    4    4    0    0 -0.37778794818E+02 -0.13177516920E+02  0.11247555372E+03  0.11938020972E+03  0.00000000000E+00 0. -1.
        -12    1    4    4    0    0 -0.75058427357E+02  0.52379538799E+02  0.84832474434E+02  0.12479556210E+03  0.00000000000E+00 0.  1.
</event>
<event>
12    1  0.8563264E-002  0.2969035E+03  0.7818608E-02  0.1086832E+00
         21   -1    0    0  501  502  0.00000000000E+00  0.00000000000E+00  0.72816956012E+02  0.72816956012E+02  0.00000000000E+00 0. -1.
         21   -1    0    0  502  503 -0.00000000000E+00 -0.00000000000E+00 -0.12098804260E+04  0.12098804260E+04  0.00000000000E+00 0.  1.
         -6    2    1    2    0  503  0.46289916049E+02  0.23716977389E+03 -0.55724208256E+03  0.63128003912E+03  0.17205665129E+03 0.  0.
        -24    2    3    3    0    0 -0.40652308538E+02  0.14061481620E+03 -0.28444471171E+03  0.32908423206E+03  0.77217232812E+02 0.  0.
          6    2    1    2  501    0 -0.46289916049E+02 -0.23716977389E+03 -0.57982138741E+03  0.65141734286E+03  0.17250929051E+03 0.  0.
         24    2    5    5    0    0  0.70677268369E+01 -0.16477940997E+03 -0.26085915990E+03  0.31998651235E+03  0.84508343165E+02 0.  0.
          5    1    5    5  501    0 -0.53357642885E+02 -0.72390363913E+02 -0.31896222750E+03  0.33143083052E+03  0.47000000000E+01 0. -1.
        -13    1    6    6    0    0 -0.21911207861E+02 -0.71449160147E+02 -0.17348297182E+03  0.18889527529E+03  0.00000000000E+00 0.  1.
         14    1    6    6    0    0  0.28978934698E+02 -0.93330249827E+02 -0.87376188084E+02  0.13109123706E+03  0.00000000000E+00 0. -1.
         -5    1    3    3    0  503  0.86942224586E+02  0.96554957682E+02 -0.27279737084E+03  0.30219580707E+03  0.47000000000E+01 0.  1.
         11    1    4    4    0    0  0.10516336861E+02  0.78329096506E+02 -0.97549301500E+02  0.12554643334E+03  0.00000000000E+00 0. -1.
        -12    1    4    4    0    0 -0.51168645399E+02  0.62285719698E+02 -0.18689541021E+03  0.20353779872E+03  0.00000000000E+00 0.  1.
</event>
<event>
12    1  0.8563264E-002  0.2252077E+03  0.7818608E-02  0.1130330E+00
         21   -1    0    0  503  502  0.00000000000E+00  0.00000000000E+00  0.44200066350E+03  0.44200066350E+03  0.00000000000E+00 0.  1.
         21   -1    0    0  501  503 -0.00000000000E+00 -0.00000000000E+00 -0.12354974386E+03  0.12354974386E+03  0.00000000000E+00 0.  1.
          6    2    1    2  501    0  0.12263892941E+03  0.75222708869E+02  0.80067548302E+02  0.23760961753E+03  0.17131478370E+03 0.  0.
         24    2    3    3    0    0  0.15366719528E+03  0.77607598492E+02  0.55947175282E+02  0.19795708450E+03  0.80127240286E+02 0.  0.
         -6    2    1    2    0  502 -0.12263892941E+03 -0.75222708869E+02  0.23838337135E+03  0.32794078983E+03  0.17326213366E+03 0.  0.
        -24    2    5    5    0    0 -0.96615364588E+02 -0.95674613281E+02  0.10260467073E+03  0.18810713200E+03  0.79802345532E+02 0.  0.
          5    1    3    3  501    0 -0.31028265862E+02 -0.23848896233E+01  0.24120373020E+02  0.39652533028E+02  0.47000000000E+01 0. -1.
        -13    1    4    4    0    0  0.91620075081E+02  0.73030248251E+02  0.45435864194E+01  0.11725314279E+03  0.00000000000E+00 0.  1.
         14    1    4    4    0    0  0.62047120195E+02  0.45773502410E+01  0.51403588863E+02  0.80703941711E+02  0.00000000000E+00 0. -1.
         -5    1    5    5    0  502 -0.26023564825E+02  0.20451904412E+02  0.13577870062E+03  0.13983365783E+03  0.47000000000E+01 0.  1.
         13    1    6    6    0    0 -0.29502933369E+02  0.57463105410E+01  0.17407010363E+01  0.30107693407E+02  0.00000000000E+00 0. -1.
        -14    1    6    6    0    0 -0.67112431219E+02 -0.10142092382E+03  0.10086396969E+03  0.15799943859E+03  0.00000000000E+00 0.  1.
</event>
<event>
12    1  0.8563264E-002  0.1831971E+03  0.7818608E-02  0.1164882E+00
         21   -1    0    0  503  502  0.00000000000E+00  0.00000000000E+00  0.15223439610E+03  0.15223439610E+03  0.00000000000E+00 0.  1.
         21   -1    0    0  501  503 -0.00000000000E+00 -0.00000000000E+00 -0.22401500805E+03  0.22401500805E+03  0.00000000000E+00 0. -1.
          6    2    1    2  501    0  0.58668552875E+02  0.20516563870E+02 -0.61770925477E+02  0.19277904706E+03  0.17171250758E+03 0.  0.
         24    2    3    3    0    0  0.10243863028E+03  0.39338859764E+02 -0.38792656822E+02  0.13967359226E+03  0.77218024390E+02 0.  0.
         -6    2    1    2    0  502 -0.58668552875E+02 -0.20516563870E+02 -0.10009686468E+02  0.18347035709E+03  0.17233180095E+03 0.  0.
        -24    2    5    5    0    0 -0.11148173061E+02  0.49192118349E+02 -0.25405444936E+02  0.97583185443E+02  0.79579489685E+02 0.  0.
          5    1    3    3  501    0 -0.43770077404E+02 -0.18822295894E+02 -0.22978268655E+02  0.53105454796E+02  0.47000000000E+01 0. -1.
        -11    1    4    4    0    0  0.52864921082E+02  0.85957755319E+01 -0.57340211965E+02  0.78463285339E+02  0.00000000000E+00 0.  1.
         12    1    4    4    0    0  0.49573709197E+02  0.30743084232E+02  0.18547555143E+02  0.61210306922E+02  0.00000000000E+00 0. -1.
         -5    1    5    5    0  502 -0.47520379814E+02 -0.69708682220E+02  0.15395758467E+02  0.85887171645E+02  0.47000000000E+01 0.  1.
         13    1    6    6    0    0  0.65707511396E+01 -0.18089041644E+02 -0.20065835951E+02  0.27803344593E+02  0.00000000000E+00 0. -1.
        -14    1    6    6    0    0 -0.17718924201E+02  0.67281159994E+02 -0.53396089848E+01  0.69779840850E+02  0.00000000000E+00 0.  1.
</event>
<event>
12    1  0.8563264E-002  0.1868061E+03  0.7818608E-02  0.1161992E+00
         21   -1    0    0  501  502  0.00000000000E+00  0.00000000000E+00  0.14839445893E+03  0.14839445893E+03  0.00000000000E+00 0.  1.
         21   -1    0    0  502  503 -0.00000000000E+00 -0.00000000000E+00 -0.24912941105E+03  0.24912941105E+03  0.00000000000E+00 0.  1.
         -6    2    1    2    0  503 -0.86277816350E+00  0.65469049792E+02 -0.10309334970E+03  0.21336534067E+03  0.17495596297E+03 0.  0.
        -24    2    3    3    0    0 -0.82407962330E+01  0.31087964716E+02  0.16241965773E+02  0.88868346003E+02  0.81236747820E+02 0.  0.
          6    2    1    2  501    0  0.86277816350E+00 -0.65469049792E+02  0.23583975747E+01  0.18415852931E+03  0.17211002589E+03 0.  0.
         24    2    5    5    0    0 -0.64489790853E+02 -0.58598359699E+02  0.42414880110E+01  0.11825101313E+03  0.79828635229E+02 0.  0.
          5    1    5    5  501    0  0.65352569017E+02 -0.68706900923E+01 -0.18830904363E+01  0.65907516180E+02  0.47000000000E+01 0. -1.
        -11    1    6    6    0    0 -0.12357351982E+02  0.24226018093E+00 -0.30043835267E+02  0.32486841576E+02  0.00000000000E+00 0.  1.
         12    1    6    6    0    0 -0.52132438871E+02 -0.58840619880E+02  0.34285323278E+02  0.85764171557E+02  0.00000000000E+00 0. -1.
         -5    1    3    3    0  503  0.73780180695E+01  0.34381085076E+02 -0.11933531547E+03  0.12449699467E+03  0.47000000000E+01 0.  1.
         13    1    4    4    0    0  0.23394609800E+02  0.82005047071E+01 -0.22778764339E+02  0.33666424669E+02  0.00000000000E+00 0. -1.
        -14    1    4    4    0    0 -0.31635406033E+02  0.22887460009E+02  0.39020730112E+02  0.55201921334E+02  0.00000000000E+00 0.  1.
</event>
<event>
12    1  0.8563264E-002  0.2452790E+03  0.7818608E-02  0.1116711E+00
         21   -1    0    0  503  502  0.00000000000E+00  0.00000000000E+00  0.22071960037E+03  0.22071960037E+03  0.00000000000E+00 0. -1.
         21   -1    0    0  501  503 -0.00000000000E+00 -0.00000000000E+00 -0.27396508037E+03  0.27396508037E+03  0.00000000000E+00 0.  1.
          6    2    1    2  501    0 -0.15540176124E+03 -0.73030769857E+02 -0.56709850764E+02  0.25174950042E+03  0.17515308460E+03 0.  0.
         24    2    3    3    0    0 -0.14618598709E+03 -0.79673572523E+01 -0.75406491941E+02  0.18326714836E+03  0.80416957391E+02 0.  0.
         -6    2    1    2    0  502  0.15540176124E+03  0.73030769857E+02  0.34643707609E+01  0.24293518032E+03  0.17182054368E+03 0.  0.
        -24    2    5    5    0    0  0.12187319426E+03 -0.21661389100E+01  0.14724826277E+02  0.15970280831E+03  0.10212932408E+03 0.  0.
          5    1    3    3  501    0 -0.92157741501E+01 -0.65063412605E+02  0.18696641177E+02  0.68482352064E+02  0.47000000000E+01 0. -1.
        -11    1    4    4    0    0  0.55139797821E+01 -0.13911395605E+02 -0.97583188965E+01  0.17864929007E+02  0.00000000000E+00 0.  1.
         12    1    4    4    0    0 -0.15169996688E+03  0.59440383530E+01 -0.65648173044E+02  0.16540221935E+03  0.00000000000E+00 0. -1.
         -5    1    5    5    0  502  0.33528566985E+02  0.75196908767E+02 -0.11260455516E+02  0.83232372011E+02  0.47000000000E+01 0.  1.
         11    1    6    6    0    0  0.56574857909E+02  0.79709387142E+01  0.57441945320E+02  0.81017451784E+02  0.00000000000E+00 0. -1.
        -12    1    6    6    0    0  0.65298336349E+02 -0.10137077624E+02 -0.42717119043E+02  0.78685356529E+02  0.00000000000E+00 0.  1.
</event>
<event>
12    1  0.8563264E-002  0.2092225E+03  0.7818608E-02  0.1142639E+00
         21   -1    0    0  501  502  0.00000000000E+00  0.00000000000E+00  0.15166818549E+03  0.15166818549E+03  0.00000000000E+00 0.  1.
         21   -1    0    0  502  503 -0.00000000000E+00 -0.00000000000E+00 -0.44904800578E+03  0.44904800578E+03  0.00000000000E+00 0. -1.
         -6    2    1    2    0  503 -0.11555531755E+03  0.17150613505E+02 -0.32944660878E+03  0.38905059518E+03  0.17081604905E+03 0.  0.
        -24    2    3    3    0    0 -0.13790889537E+03  0.49895441550E+02 -0.25353986576E+03  0.30328446059E+03  0.78680251654E+02 0.  0.
          6    2    1    2  501    0  0.11555531755E+03 -0.17150613505E+02  0.32066788492E+02  0.21166559608E+03  0.17357093847E+03 0.  0.
         24    2    5    5    0    0  0.12433210106E+03  0.12917250247E+02 -0.21973703374E+02  0.14902716443E+03  0.78108420736E+02 0.  0.
          5    1    5    5  501    0 -0.87767835018E+01 -0.30067863752E+02  0.54040491866E+02  0.62638431656E+02  0.47000000000E+01 0. -1.
        -13    1    6    6    0    0  0.66320372532E+02 -0.14392724916E+02  0.21928191136E+02  0.71318916914E+02  0.00000000000E+00 0.  1.
         14    1    6    6    0    0  0.58011728524E+02  0.27309975164E+02 -0.43901894510E+02  0.77708247511E+02  0.00000000000E+00 0. -1.
         -5    1    3    3    0  503  0.22353577817E+02 -0.32744828045E+02 -0.75906743025E+02  0.85766134585E+02  0.47000000000E+01 0.  1.
         11    1    4    4    0    0 -0.88856173673E+02  0.60817292559E+02 -0.21317923531E+03  0.23882953971E+03  0.00000000000E+00 0. -1.
        -12    1    4    4    0    0 -0.49052721697E+02 -0.10921851009E+02 -0.40360630449E+02  0.64454920880E+02  0.00000000000E+00 0.  1.
</event>
<event>
12    1  0.8563264E-002  0.1779937E+03  0.7818608E-02  0.1170015E+00
         21   -1    0    0  501  502  0.00000000000E+00  0.00000000000E+00  0.22029792261E+04  0.22029792261E+04  0.00000000000E+00 0.  1.
         21   -1    0    0  502  503 -0.00000000000E+00 -0.00000000000E+00 -0.16920635679E+02  0.16920635679E+02  0.00000000000E+00 0. -1.
         -6    2    1    2    0  503 -0.15328660596E+02  0.42452069492E+02  0.65870524780E+03  0.68233010819E+03  0.17217615116E+03 0.  0.
        -24    2    3    3    0    0  0.50757479384E+02  0.29595707872E+02  0.30043143039E+03  0.31775517464E+03  0.85188491054E+02 0.  0.
          6    2    1    2  501    0  0.15328660596E+02 -0.42452069492E+02  0.15273533427E+04  0.15375697536E+04  0.17110046140E+03 0.  0.
         24    2    5    5    0    0 -0.42646676297E+01 -0.10026660926E+02  0.14394450474E+04  0.14417299706E+04  0.80402377907E+02 0.  0.
          5    1    5    5  501    0  0.19593328225E+02 -0.32425408565E+02  0.87908295255E+02  0.95839783004E+02  0.47000000000E+01 0. -1.
        -13    1    6    6    0    0  0.25687335482E+02 -0.18819268629E+02  0.11776485597E+04  0.11780790017E+04  0.00000000000E+00 0.  1.
         14    1    6    6    0    0 -0.29952003112E+02  0.87926077032E+01  0.26179648770E+03  0.26365096892E+03  0.00000000000E+00 0. -1.
         -5    1    3    3    0  503 -0.66086139979E+02  0.12856361620E+02  0.35827381741E+03  0.36457493355E+03  0.47000000000E+01 0.  1.
         11    1    4    4    0    0  0.30539127191E+02 -0.21866830773E+02  0.58010810987E+02  0.69108977485E+02  0.00000000000E+00 0. -1.
        -12    1    4    4    0    0  0.20218352193E+02  0.51462538645E+02  0.24242061940E+03  0.24864619716E+03  0.00000000000E+00 0.  1.
</event>
<event>
12    1  0.8563264E-002  0.2485440E+03  0.7818608E-02  0.1114689E+00
         21   -1    0    0  503  502  0.00000000000E+00  0.00000000000E+00  0.93671692042E+03  0.93671692042E+03  0.00000000000E+00 0. -1.
         21   -1    0    0  501  503 -0.00000000000E+00 -0.00000000000E+00 -0.96508283805E+02  0.96508283805E+02  0.00000000000E+00 0.  1.
          6    2    1    2  501    0 -0.17202195944E+03  0.51081194515E+02  0.12745055844E+03  0.27931664583E+03  0.17196889494E+03 0.  0.
         24    2    3    3    0    0 -0.33076550029E+02  0.35688164890E+02  0.55048353176E+01  0.93748271513E+02  0.79942053543E+02 0.  0.
         -6    2    1    2    0  502  0.17202195944E+03 -0.51081194515E+02  0.71275807817E+03  0.75390855840E+03  0.16778913392E+03 0.  0.
        -24    2    5    5    0    0  0.10639198283E+03 -0.90601323296E+02  0.56425584988E+03  0.58674356141E+03  0.79721320500E+02 0.  0.
          5    1    3    3  501    0 -0.13894540941E+03  0.15393029625E+02  0.12194572312E+03  0.18556837431E+03  0.47000000000E+01 0. -1.
        -11    1    4    4    0    0 -0.20834468880E+02  0.61545986467E+02  0.39416849884E+01  0.65096239709E+02  0.00000000000E+00 0.  1.
         12    1    4    4    0    0 -0.12242081150E+02 -0.25857821576E+02  0.15631503292E+01  0.28652031804E+02  0.00000000000E+00 0. -1.
         -5    1    5    5    0  502  0.65629976609E+02  0.39520128781E+02  0.14850222829E+03  0.16716499698E+03  0.47000000000E+01 0.  1.
         11    1    6    6    0    0  0.44041485799E+02 -0.12668549213E+02  0.31389070536E+03  0.31721840981E+03  0.00000000000E+00 0. -1.
        -12    1    6    6    0    0  0.62350497033E+02 -0.77932774083E+02  0.25036514452E+03  0.26952515160E+03  0.00000000000E+00 0.  1.
</event>
<event>
12    1  0.8563264E-002  0.2399419E+03  0.7818608E-02  0.1120337E+00
         21   -1    0    0  501  502  0.00000000000E+00  0.00000000000E+00  0.55733422934E+03  0.55733422934E+03  0.00000000000E+00 0.  1.
         21   -1    0    0  502  503 -0.00000000000E+00 -0.00000000000E+00 -0.13204282200E+03  0.13204282200E+03  0.00000000000E+00 0.  1.
         -6    2    1    2    0  503  0.67509080077E+02  0.14775394153E+03  0.47212379874E+02  0.24158708075E+03  0.17247204308E+03 0.  0.
        -24    2    3    3    0    0  0.56823593095E+02  0.10619844309E+03  0.97889337816E+02  0.17501919699E+03  0.80884898522E+02 0.  0.
          6    2    1    2  501    0 -0.67509080077E+02 -0.14775394153E+03  0.37807902746E+03  0.44778997059E+03  0.17658823184E+03 0.  0.
         24    2    5    5    0    0 -0.29751497675E+02 -0.10227991435E+03  0.36268098871E+03  0.38653058948E+03  0.80759300021E+02 0.  0.
          5    1    5    5  501    0 -0.37757582402E+02 -0.45474027180E+02  0.15398038756E+02  0.61259381113E+02  0.47000000000E+01 0. -1.
        -13    1    6    6    0    0 -0.30484632620E+02 -0.10109023494E+03  0.22187274290E+03  0.24571540951E+03  0.00000000000E+00 0.  1.
         14    1    6    6    0    0  0.73313494456E+00 -0.11896794120E+01  0.14080824580E+03  0.14081517997E+03  0.00000000000E+00 0. -1.
         -5    1    3    3    0  503  0.10685486982E+02  0.41555498443E+02 -0.50676957943E+02  0.66567883767E+02  0.47000000000E+01 0.  1.
         13    1    4    4    0    0  0.40662162499E+02  0.14791907229E+02  0.47602380285E+01  0.43530125714E+02  0.00000000000E+00 0. -1.
        -14    1    4    4    0    0  0.16161430596E+02  0.91406535861E+02  0.93129099788E+02  0.13148907127E+03  0.00000000000E+00 0.  1.
</event>
<event>
12    1  0.8563264E-002  0.1958164E+03  0.7818608E-02  0.1153404E+00
         21   -1    0    0  503  502  0.00000000000E+00  0.00000000000E+00  0.47361546394E+02  0.47361546394E+02  0.00000000000E+00 0.  1.
         21   -1    0    0  501  503 -0.00000000000E+00 -0.00000000000E+00 -0.91942487727E+03  0.91942487727E+03  0.00000000000E+00 0.  1.
          6    2    1    2  501    0  0.90907677707E+02  0.25495942321E+02 -0.60473973766E+03  0.63565258372E+03  0.17155118174E+03 0.  0.
         24    2    3    3    0    0  0.88952030058E+02 -0.34032565599E+02 -0.49979267982E+03  0.51489065777E+03  0.79050537503E+02 0.  0.
         -6    2    1    2    0  502 -0.90907677707E+02 -0.25495942321E+02 -0.26732359322E+03  0.33113383994E+03  0.17109490793E+03 0.  0.
        -24    2    5    5    0    0 -0.10991179189E+03 -0.45577913347E+02 -0.26693721364E+03  0.30308600213E+03  0.80297574576E+02 0.  0.
          5    1    3    3  501    0  0.19556476485E+01  0.59528507920E+02 -0.10494705783E+03  0.12076192595E+03  0.47000000000E+01 0. -1.
        -13    1    4    4    0    0  0.86812472506E+02  0.27617285587E+01 -0.34347724771E+03  0.35428893889E+03  0.00000000000E+00 0.  1.
         14    1    4    4    0    0  0.21395575523E+01 -0.36794294158E+02 -0.15631543212E+03  0.16060171888E+03  0.00000000000E+00 0. -1.
         -5    1    5    5    0  502  0.19004114188E+02  0.20081971026E+02 -0.38637958351E+00  0.28047837805E+02  0.47000000000E+01 0.  1.
         11    1    6    6    0    0 -0.10404233704E+03 -0.23711918154E+02 -0.15064422369E+03  0.18460971017E+03  0.00000000000E+00 0. -1.
        -12    1    6    6    0    0 -0.58694548561E+01 -0.21865995193E+02 -0.11629298995E+03  0.11847629196E+03  0.00000000000E+00 0.  1.
</event>
<event>
12    1  0.8563264E-002  0.5376212E+03  0.7818608E-02  0.1004420E+00
         21   -1    0    0  501  502  0.00000000000E+00  0.00000000000E+00  0.30943823189E+03  0.30943823189E+03  0.00000000000E+00 0. -1.
         21   -1    0    0  502  503 -0.00000000000E+00 -0.00000000000E+00 -0.94986014326E+03  0.94986014326E+03  0.00000000000E+00 0.  1.
         -6    2    1    2    0  503 -0.45574018695E+03 -0.22694653400E+03 -0.23744413567E+03  0.58741474944E+03  0.17167563311E+03 0.  0.
        -24    2    3    3    0    0 -0.36082551789E+03 -0.16826953553E+03 -0.24744861802E+03  0.47528106039E+03  0.78431988787E+02 0.  0.
          6    2    1    2  501    0  0.45574018695E+03  0.22694653400E+03 -0.40297777570E+03  0.67188362571E+03  0.17272136953E+03 0.  0.
         24    2    5    5    0    0  0.14865265381E+03  0.13986940925E+03 -0.15853228555E+03  0.26981290268E+03  0.77494862803E+02 0.  0.
          5    1    5    5  501    0  0.30708753314E+03  0.87077124755E+02 -0.24444549015E+03  0.40207072303E+03  0.47000000000E+01 0. -1.
        -13    1    6    6    0    0 -0.76522851804E+01  0.18785360458E+02 -0.10660973597E+02  0.22915138971E+02  0.00000000000E+00 0.  1.
         14    1    6    6    0    0  0.15630493899E+03  0.12108404879E+03 -0.14787131196E+03  0.24689776371E+03  0.00000000000E+00 0. -1.
         -5    1    3    3    0  503 -0.94914669059E+02 -0.58676998466E+02  0.10004482351E+02  0.11213368904E+03  0.47000000000E+01 0.  1.
         11    1    4    4    0    0 -0.25581879503E+03 -0.85565198962E+02 -0.14081197999E+03  0.30429044164E+03  0.00000000000E+00 0. -1.
        -12    1    4    4    0    0 -0.10500672286E+03 -0.82704336572E+02 -0.10663663803E+03  0.17099061876E+03  0.00000000000E+00 0.  1.
</event>
<event>
12    1  0.8563264E-002  0.2232109E+03  0.7818608E-02  0.1131635E+00
         21   -1    0    0  503  502  0.00000000000E+00  0.00000000000E+00  0.38059781937E+02  0.38059781937E+02  0.00000000000E+00 0.  1.
         21   -1    0    0  501  503 -0.00000000000E+00 -0.00000000000E+00 -0.13551526293E+04  0.13551526293E+04  0.00000000000E+00 0. -1.
          6    2    1    2  501    0 -0.15034309724E+02 -0.14151702252E+03 -0.52375650167E+03  0.56907306849E+03  0.17108531821E+03 0.  0.
         24    2    3    3    0    0 -0.33358919996E+02 -0.85468439227E+02 -0.15958667691E+03  0.20013000202E+03  0.78526674537E+02 0.  0.
         -6    2    1    2    0  502  0.15034309724E+02  0.14151702252E+03 -0.79333634574E+03  0.82413934279E+03  0.17195929965E+03 0.  0.
        -24    2    5    5    0    0 -0.45914343292E+02  0.65261564784E+02 -0.55942021981E+03  0.57062706082E+03  0.79354026078E+02 0.  0.
          5    1    3    3  501    0  0.18324610272E+02 -0.56048583295E+02 -0.36416982476E+03  0.36894306647E+03  0.47000000000E+01 0. -1.
        -13    1    4    4    0    0 -0.67564940916E+01  0.14652827454E+02 -0.31510787200E+02  0.35401769373E+02  0.00000000000E+00 0.  1.
         14    1    4    4    0    0 -0.26602425904E+02 -0.10012126668E+03 -0.12807588971E+03  0.16472823265E+03  0.00000000000E+00 0. -1.
         -5    1    5    5    0  502  0.60948653016E+02  0.76255457737E+02 -0.23391612593E+03  0.25351228197E+03  0.47000000000E+01 0.  1.
         11    1    6    6    0    0 -0.36481954268E+02  0.83962165207E+02 -0.46142640891E+03  0.47041992837E+03  0.00000000000E+00 0. -1.
        -12    1    6    6    0    0 -0.94323890241E+01 -0.18700600423E+02 -0.97993810903E+02  0.10020713245E+03  0.00000000000E+00 0.  1.
</event>
<event>
12    1  0.8563264E-002  0.2304270E+03  0.7818608E-02  0.1126608E+00
         21   -1    0    0  503  502  0.00000000000E+00  0.00000000000E+00  0.26462430080E+03  0.26462430080E+03  0.00000000000E+00 0.  1.
         21   -1    0    0  501  503 -0.00000000000E+00 -0.00000000000E+00 -0.20468796917E+03  0.20468796917E+03  0.00000000000E+00 0. -1.
          6    2    1    2  501    0 -0.11610461486E+03 -0.98603144380E+02 -0.79236337443E+01  0.23056318365E+03  0.17289805091E+03 0.  0.
         24    2    3    3    0    0 -0.14257022745E+03 -0.45043277533E+02  0.44317569474E+01  0.16937630870E+03  0.79457704939E+02 0.  0.
         -6    2    1    2    0  502  0.11610461486E+03  0.98603144380E+02  0.67859965368E+02  0.23874908632E+03  0.17086043909E+03 0.  0.
        -24    2    5    5    0    0  0.95192266967E+02  0.59394659125E+02 -0.21236645387E+02  0.13907497906E+03  0.79382375060E+02 0.  0.
          5    1    3    3  501    0  0.26465612591E+02 -0.53559866847E+02 -0.12355390692E+02  0.61186874945E+02  0.47000000000E+01 0. -1.
        -11    1    4    4    0    0 -0.44007968838E+02 -0.53626332969E+02 -0.72674953437E+01  0.69751712506E+02  0.00000000000E+00 0.  1.
         12    1    4    4    0    0 -0.98562258613E+02  0.85830554355E+01  0.11699252291E+02  0.99624596198E+02  0.00000000000E+00 0. -1.
         -5    1    5    5    0  502  0.20912347893E+02  0.39208485254E+02  0.89096610755E+02  0.99674107262E+02  0.47000000000E+01 0.  1.
         11    1    6    6    0    0  0.56162864830E+01  0.22533922825E+02  0.22913201058E+02  0.32624149559E+02  0.00000000000E+00 0. -1.
        -12    1    6    6    0    0  0.89575980483E+02  0.36860736300E+02 -0.44149846445E+02  0.10645082950E+03  0.00000000000E+00 0.  1.
</event>
<event>
12    1  0.8563264E-002  0.2836937E+03  0.7818608E-02  0.1094125E+00
         21   -1    0    0  503  502  0.00000000000E+00  0.00000000000E+00  0.15888007376E+04  0.15888007376E+04  0.00000000000E+00 0. -1.
         21   -1    0    0  501  503 -0.00000000000E+00 -0.00000000000E+00 -0.52287728720E+02  0.52287728720E+02  0.00000000000E+00 0. -1.
          6    2    1    2  501    0 -0.16982449109E+03 -0.14224934757E+03  0.59542990116E+03  0.65817466704E+03  0.17199386758E+03 0.  0.
         24    2    3    3    0    0 -0.35501966854E+02 -0.97559835833E+02  0.21531763634E+03  0.25253059049E+03  0.81435271205E+02 0.  0.
         -6    2    1    2    0  502  0.16982449109E+03  0.14224934757E+03  0.94108310769E+03  0.98291379924E+03  0.17721988180E+03 0.  0.
        -24    2    5    5    0    0  0.18523708243E+03  0.14213196928E+03  0.93262321411E+03  0.96471430615E+03  0.79833323857E+02 0.  0.
          5    1    3    3  501    0 -0.13432252424E+03 -0.44689511734E+02  0.38011226482E+03  0.40564407655E+03  0.47000000000E+01 0. -1.
        -13    1    4    4    0    0  0.11206246622E+02 -0.17264866683E+02  0.11081444376E+03  0.11270978898E+03  0.00000000000E+00 0.  1.
         14    1    4    4    0    0 -0.46708213476E+02 -0.80294969150E+02  0.10450319258E+03  0.13982080151E+03  0.00000000000E+00 0. -1.
         -5    1    5    5    0  502 -0.15412591337E+02  0.11737829046E+00  0.84598935757E+01  0.18199493089E+02  0.47000000000E+01 0.  1.
         11    1    6    6    0    0  0.93608885857E+02  0.11911562072E+03  0.61108637026E+03  0.62958534491E+03  0.00000000000E+00 0. -1.
        -12    1    6    6    0    0  0.91628196574E+02  0.23016348560E+02  0.32153684385E+03  0.33512896124E+03  0.00000000000E+00 0.  1.
</event>
<event>
12    1  0.8563264E-002  0.1744739E+03  0.7818608E-02  0.1174219E+00
         21   -1    0    0  501  502  0.00000000000E+00  0.00000000000E+00  0.38198812242E+03  0.38198812242E+03  0.00000000000E+00 0. -1.
         21   -1    0    0  502  503 -0.00000000000E+00 -0.00000000000E+00 -0.17882805339E+03  0.17882805339E+03  0.00000000000E+00 0. -1.
         -6    2    1    2    0  503  0.11826571904E+02  0.16896132035E+02 -0.10850210996E+03  0.20546005257E+03  0.17325062268E+03 0.  0.
        -24    2    3    3    0    0 -0.24829693995E+02  0.62193717622E+02 -0.32799307800E+02  0.10981196141E+03  0.80612034215E+02 0.  0.
          6    2    1    2  501    0 -0.11826571904E+02 -0.16896132035E+02  0.31166217899E+03  0.35535612324E+03  0.16946773566E+03 0.  0.
         24    2    5    5    0    0 -0.11104774435E+02  0.15981387618E+02  0.62230488471E+02  0.10372204263E+03  0.80665405635E+02 0.  0.
          5    1    5    5  501    0 -0.72179746924E+00 -0.32877519653E+02  0.24943169052E+03  0.25163408061E+03  0.47000000000E+01 0. -1.
        -13    1    6    6    0    0  0.53978615153E+01 -0.14200535630E+01 -0.18594488482E+02  0.19414130498E+02  0.00000000000E+00 0.  1.
         14    1    6    6    0    0 -0.16502635950E+02  0.17401441181E+02  0.80824976953E+02  0.84307912131E+02  0.00000000000E+00 0. -1.
         -5    1    3    3    0  503  0.36656265899E+02 -0.45297585587E+02 -0.75702802156E+02  0.95648091167E+02  0.47000000000E+01 0.  1.
         11    1    4    4    0    0 -0.41246452966E+02  0.12816120271E+02 -0.37985665602E+02  0.57518984799E+02  0.00000000000E+00 0. -1.
        -12    1    4    4    0    0  0.16416758971E+02  0.49377597351E+02  0.51863578013E+01  0.52292976608E+02  0.00000000000E+00 0.  1.
</event>
<event>
12    1  0.8563264E-002  0.1967722E+03  0.7818608E-02  0.1152906E+00
         21   -1    0    0  501  502  0.00000000000E+00  0.00000000000E+00  0.84361122713E+03  0.84361122713E+03  0.00000000000E+00 0. -1.
         21   -1    0    0  502  503 -0.00000000000E+00 -0.00000000000E+00 -0.48506687179E+02  0.48506687179E+02  0.00000000000E+00 0. -1.
         -6    2    1    2    0  503 -0.96703646986E+02 -0.45439409336E+01  0.28742612805E+03  0.34832896960E+03  0.17130980485E+03 0.  0.
        -24    2    3    3    0    0 -0.82617103173E+02 -0.94234619392E+01  0.30423892493E+03  0.32537247638E+03  0.79947092360E+02 0.  0.
          6    2    1    2  501    0  0.96703646986E+02  0.45439409336E+01  0.50767841190E+03  0.54378894471E+03  0.16910589505E+03 0.  0.
         24    2    5    5    0    0  0.11635909914E+03  0.23810259399E+02  0.28252812414E+03  0.31691393528E+03  0.80659364235E+02 0.  0.
          5    1    5    5  501    0 -0.19655452149E+02 -0.19266318465E+02  0.22515028776E+03  0.22687500943E+03  0.47000000000E+01 0. -1.
        -11    1    6    6    0    0  0.12879439143E+02  0.17020589275E+02  0.69144278360E+01  0.22436348282E+02  0.00000000000E+00 0.  1.
         12    1    6    6    0    0  0.10347965999E+03  0.67896701234E+01  0.27561369631E+03  0.29447758700E+03  0.00000000000E+00 0. -1.
         -5    1    3    3    0  503 -0.14086543813E+02  0.48795210056E+01 -0.16812796877E+02  0.22956493214E+02  0.47000000000E+01 0.  1.
         13    1    4    4    0    0 -0.48084617046E+02 -0.15765455784E+02  0.59414592455E+02  0.78043409646E+02  0.00000000000E+00 0. -1.
        -14    1    4    4    0    0 -0.34532486127E+02  0.63419938450E+01  0.24482433247E+03  0.24732906674E+03  0.00000000000E+00 0.  1.
</event>
<event>
12    1  0.8563264E-002  0.2312196E+03  0.7818608E-02  0.1125787E+00
         21   -1    0    0  503  502  0.00000000000E+00  0.00000000000E+00  0.80380047890E+02  0.80380047890E+02  0.00000000000E+00 0.  1.
         21   -1    0    0  501  503 -0.00000000000E+00 -0.00000000000E+00 -0.66852186352E+03  0.66852186352E+03  0.00000000000E+00 0.  1.
          6    2    1    2  501    0 -0.15096722494E+03 -0.31916456328E+02 -0.32096916577E+03  0.39556959264E+03  0.17217530037E+03 0.  0.
         24    2    3    3    0    0 -0.50874085002E+02  0.39785157456E+02 -0.19707624636E+03  0.22083750183E+03  0.75888892824E+02 0.  0.
         -6    2    1    2    0  502  0.15096722494E+03  0.31916456328E+02 -0.26717264986E+03  0.35333231877E+03  0.17219970809E+03 0.  0.
        -24    2    5    5    0    0  0.25779268708E+01 -0.62653702843E+01 -0.79715957143E+02  0.11117671320E+03  0.77199269189E+02 0.  0.
          5    1    3    3  501    0 -0.10009313993E+03 -0.71701613784E+02 -0.12389291941E+03  0.17473209081E+03  0.47000000000E+01 0. -1.
        -11    1    4    4    0    0 -0.44486185463E+02  0.16574606955E+01 -0.16407914467E+03  0.17001098079E+03  0.00000000000E+00 0.  1.
         12    1    4    4    0    0 -0.63878995389E+01  0.38127696761E+02 -0.32997101694E+02  0.50826521040E+02  0.00000000000E+00 0. -1.
         -5    1    5    5    0  502  0.14838929806E+03  0.38181826612E+02 -0.18745669272E+03  0.24215560557E+03  0.47000000000E+01 0.  1.
         11    1    6    6    0    0  0.13579771359E+02 -0.20592935103E+02  0.44746457985E+01  0.25069934610E+02  0.00000000000E+00 0. -1.
        -12    1    6    6    0    0 -0.11001844488E+02  0.14327564819E+02 -0.84190602941E+02  0.86106778591E+02  0.00000000000E+00 0.  1.
</event>
<event>
12    1  0.8563264E-002  0.1981925E+03  0.7818608E-02  0.1151320E+00
         21   -1    0    0  503  502  0.00000000000E+00  0.00000000000E+00  0.94683060947E+02  0.94683060947E+02  0.00000000000E+00 0. -1.
         21   -1    0    0  501  503 -0.00000000000E+00 -0.00000000000E+00 -0.53432426210E+03  0.53432426210E+03  0.00000000000E+00 0.  1.
          6    2    1    2  501    0  0.61592868515E+01  0.98561807113E+02 -0.36891477018E+03  0.41878203079E+03  0.17183688493E+03 0.  0.
         24    2    3    3    0    0  0.39303598472E+01  0.14299524441E+02 -0.30305390021E+03  0.31170801625E+03  0.71416362512E+02 0.  0.
         -6    2    1    2    0  502 -0.61592868515E+01 -0.98561807113E+02 -0.70726430973E+02  0.21022529226E+03  0.17158111443E+03 0.  0.
        -24    2    5    5    0    0  0.50154461454E+02 -0.94470193333E+02 -0.22202903837E+02  0.13562903070E+03  0.80387670690E+02 0.  0.
          5    1    3    3  501    0  0.22289270043E+01  0.84262282672E+02 -0.65860869967E+02  0.10707401454E+03  0.47000000000E+01 0. -1.
        -11    1    4    4    0    0 -0.27001103542E+02  0.26545148457E+02 -0.19526026051E+03  0.19889764663E+03  0.00000000000E+00 0.  1.
         12    1    4    4    0    0  0.30931463389E+02 -0.12245624016E+02 -0.10779363970E+03  0.11281036962E+03  0.00000000000E+00 0. -1.
         -5    1    5    5    0  502 -0.56313748306E+02 -0.40916137803E+01 -0.48523527136E+02  0.74596261551E+02  0.47000000000E+01 0.  1.
         13    1    6    6    0    0  0.26938639875E+02  0.82407008078E+01 -0.84871537496E+00  0.28183679425E+02  0.00000000000E+00 0. -1.
        -14    1    6    6    0    0  0.23215821579E+02 -0.10271089414E+03 -0.21354188462E+02  0.10744535128E+03  0.00000000000E+00 0.  1.
</event>
<event>
12    1  0.8563264E-002  0.2391191E+03  0.7818608E-02  0.1121113E+00
         21   -1    0    0  501  502  0.00000000000E+00  0.00000000000E+00  0.18403774455E+03  0.18403774455E+03  0.00000000000E+00 0.  1.
         21   -1    0    0  502  503 -0.00000000000E+00 -0.00000000000E+00 -0.34743205077E+03  0.34743205077E+03  0.00000000000E+00 0.  1.
         -6    2    1    2    0  503 -0.49129747261E+02 -0.15299906531E+03 -0.17512757759E+03  0.29639098426E+03  0.17707484593E+03 0.  0.
        -24    2    3    3    0    0 -0.88701211962E+02 -0.66038383715E+02 -0.13373211022E+03  0.19216173845E+03  0.82540191983E+02 0.  0.
          6    2    1    2  501    0  0.49129747261E+02  0.15299906531E+03  0.11733271377E+02  0.23507881106E+03  0.17117807015E+03 0.  0.
         24    2    5    5    0    0 -0.21216652575E+02  0.48723738631E+02 -0.32684167449E+02  0.10159863053E+03  0.80186519257E+02 0.  0.
          5    1    5    5  501    0  0.70346399836E+02  0.10427532668E+03  0.44417438826E+02  0.13348018054E+03  0.47000000000E+01 0. -1.
        -13    1    6    6    0    0 -0.21475677326E+02  0.18247602304E+02  0.24146782670E+02  0.37111276181E+02  0.00000000000E+00 0.  1.
         14    1    6    6    0    0  0.25902475112E+00  0.30476136327E+02 -0.56830950118E+02  0.64487354346E+02  0.00000000000E+00 0. -1.
         -5    1    3    3    0  503  0.39571464701E+02 -0.86960681595E+02 -0.41395467370E+02  0.10422924580E+03  0.47000000000E+01 0.  1.
         11    1    4    4    0    0 -0.42987797821E+02 -0.11579366364E+02 -0.46107805901E+01  0.44758147689E+02  0.00000000000E+00 0. -1.
        -12    1    4    4    0    0 -0.45713414141E+02 -0.54459017351E+02 -0.12912132963E+03  0.14740359076E+03  0.00000000000E+00 0.  1.
</event>
<event>
12    1  0.8563264E-002  0.1752844E+03  0.7818608E-02  0.1172790E+00
         21   -1    0    0  501  502  0.00000000000E+00  0.00000000000E+00  0.45903095795E+03  0.45903095795E+03  0.00000000000E+00 0. -1.
         21   -1    0    0  502  503 -0.00000000000E+00 -0.00000000000E+00 -0.71581290930E+02  0.71581290930E+02  0.00000000000E+00 0. -1.
         -6    2    1    2    0  503  0.21883546392E+02 -0.17927406606E+02  0.12173426221E+03  0.21228962493E+03  0.17160236812E+03 0.  0.
        -24    2    3    3    0    0  0.40401248431E+02 -0.65482920451E+02  0.42217101593E+02  0.11768782252E+03  0.78408329642E+02 0.  0.
          6    2    1    2  501    0 -0.21883546392E+02  0.17927406606E+02  0.26571540480E+03  0.31832262395E+03  0.17298651698E+03 0.  0.
         24    2    5    5    0    0  0.18281770815E+01 -0.38070539780E+02  0.23629557210E+03  0.25060532641E+03  0.74261187706E+02 0.  0.
          5    1    5    5  501    0 -0.23711723473E+02  0.55997946385E+02  0.29419832701E+02  0.67717297536E+02  0.47000000000E+01 0. -1.
        -11    1    6    6    0    0 -0.34175995081E+02 -0.26810890023E+02  0.15521624383E+03  0.16117972829E+03  0.00000000000E+00 0.  1.
         12    1    6    6    0    0  0.36004172163E+02 -0.11259649757E+02  0.81079328275E+02  0.89425598121E+02  0.00000000000E+00 0. -1.
         -5    1    3    3    0  503 -0.18517702039E+02  0.47555513846E+02  0.79517160620E+02  0.94601802409E+02  0.47000000000E+01 0.  1.
         11    1    4    4    0    0 -0.22553356401E+02 -0.20076967251E+02  0.19851861468E+01  0.30260196017E+02  0.00000000000E+00 0. -1.
        -12    1    4    4    0    0  0.62954604832E+02 -0.45405953200E+02  0.40231915446E+02  0.87427626504E+02  0.00000000000E+00 0.  1.
</event>
<event>
12    1  0.8563264E-002  0.1902340E+03  0.7818608E-02  0.1158437E+00
         21   -1    0    0  503  502  0.00000000000E+00  0.00000000000E+00  0.68025881086E+03  0.68025881086E+03  0.00000000000E+00 0.  1.
         21   -1    0    0  501  503 -0.00000000000E+00 -0.00000000000E+00 -0.10818550027E+03  0.10818550027E+03  0.00000000000E+00 0.  1.
          6    2    1    2  501    0 -0.59800379947E+02  0.51884994829E+02  0.40921733150E+01  0.18945219400E+03  0.17206757335E+03 0.  0.
         24    2    3    3    0    0 -0.36011450713E+02  0.19660540782E+02  0.69288082670E+02  0.11279108789E+03  0.78978665861E+02 0.  0.
         -6    2    1    2    0  502  0.59800379947E+02 -0.51884994829E+02  0.56798113727E+03  0.59899211713E+03  0.17297643180E+03 0.  0.
        -24    2    5    5    0    0  0.38044533737E+02 -0.93422552291E+02  0.29497268095E+03  0.32194628564E+03  0.80407515237E+02 0.  0.
          5    1    3    3  501    0 -0.23788929234E+02  0.32224454047E+02 -0.65195909355E+02  0.76661106106E+02  0.47000000000E+01 0. -1.
        -11    1    4    4    0    0  0.34290083391E+01 -0.25523533825E+02  0.78281452573E+01  0.26916328414E+02  0.00000000000E+00 0.  1.
         12    1    4    4    0    0 -0.39440459052E+02  0.45184074607E+02  0.61459937413E+02  0.85874759477E+02  0.00000000000E+00 0. -1.
         -5    1    5    5    0  502  0.21755846211E+02  0.41537557461E+02  0.27300845632E+03  0.27704583149E+03  0.47000000000E+01 0.  1.
         13    1    6    6    0    0 -0.25525494316E+01 -0.19261162193E+02  0.16972617616E+03  0.17083466495E+03  0.00000000000E+00 0. -1.
        -14    1    6    6    0    0  0.40597083168E+02 -0.74161390098E+02  0.12524650480E+03  0.15111162069E+03  0.00000000000E+00 0.  1.
</event>
<event>
12    1  0.8563264E-002  0.2449814E+03  0.7818608E-02  0.1117098E+00
         21   -1    0    0  501  502  0.00000000000E+00  0.00000000000E+00  0.12063566023E+03  0.12063566023E+03  0.00000000000E+00 0.  1.
         21   -1    0    0  502  503 -0.00000000000E+00 -0.00000000000E+00 -0.63949768507E+03  0.63949768507E+03  0.00000000000E+00 0. -1.
         -6    2    1    2    0  503 -0.14492111210E+03 -0.89690897340E+02 -0.44154554142E+03  0.50324088287E+03  0.17100390417E+03 0.  0.
        -24    2    3    3    0    0 -0.18903914228E+01 -0.31335703895E+02 -0.14946710051E+03  0.17279418323E+03  0.80820267899E+02 0.  0.
          6    2    1    2  501    0  0.14492111210E+03  0.89690897340E+02 -0.77316483419E+02  0.25689246244E+03  0.17598100139E+03 0.  0.
         24    2    5    5    0    0  0.13978339064E+03  0.11836485931E+03 -0.31329424409E+02  0.20225280767E+03  0.79843779704E+02 0.  0.
          5    1    5    5  501    0  0.51377214654E+01 -0.28673961972E+02 -0.45987059010E+02  0.54639654770E+02  0.47000000000E+01 0. -1.
        -13    1    6    6    0    0  0.13039295286E+03  0.65580663161E+02 -0.18477333319E+02  0.14712089377E+03  0.00000000000E+00 0.  1.
         14    1    6    6    0    0  0.93904377787E+01  0.52784196152E+02 -0.12852091090E+02  0.55131913902E+02  0.00000000000E+00 0. -1.
         -5    1    3    3    0  503 -0.14303072068E+03 -0.58355193445E+02 -0.29207844090E+03  0.33044669964E+03  0.47000000000E+01 0.  1.
         13    1    4    4    0    0  0.11258566914E+02 -0.43644519210E+02 -0.14801372913E+03  0.15472447575E+03  0.00000000000E+00 0. -1.
        -14    1    4    4    0    0 -0.13148958337E+02  0.12308815316E+02 -0.14533713825E+01  0.18069707474E+02  0.00000000000E+00 0.  1.
</event>
<event>
12    1  0.8563264E-002  0.1918388E+03  0.7818608E-02  0.1157241E+00
         21   -1    0    0  501  502  0.00000000000E+00  0.00000000000E+00  0.13152139857E+04  0.13152139857E+04  0.00000000000E+00 0. -1.
         21   -1    0    0  502  503 -0.00000000000E+00 -0.00000000000E+00 -0.29973269362E+02  0.29973269362E+02  0.00000000000E+00 0. -1.
         -6    2    1    2    0  503  0.20146948446E+01  0.80844511940E+02  0.46051715300E+03  0.49887691354E+03  0.17396043388E+03 0.  0.
        -24    2    3    3    0    0 -0.15614442845E+02  0.12048438076E+03  0.38526840100E+03  0.41189087803E+03  0.80386925352E+02 0.  0.
          6    2    1    2  501    0 -0.20146948446E+01 -0.80844511940E+02  0.82472356335E+03  0.84631034153E+03  0.17184977198E+03 0.  0.
         24    2    5    5    0    0 -0.57152606982E+02 -0.14466832928E+02  0.34358913815E+03  0.35747641192E+03  0.79121296018E+02 0.  0.
          5    1    5    5  501    0  0.55137912137E+02 -0.66377679012E+02  0.48113442521E+03  0.48883392962E+03  0.47000000000E+01 0. -1.
        -11    1    6    6    0    0 -0.57255963181E+02 -0.30939183983E+02  0.32930111326E+03  0.33567052539E+03  0.00000000000E+00 0.  1.
         12    1    6    6    0    0  0.10335619896E+00  0.16472351056E+02  0.14288024892E+02  0.21805886524E+02  0.00000000000E+00 0. -1.
         -5    1    3    3    0  503  0.17629137690E+02 -0.39639868823E+02  0.75248752001E+02  0.86986035510E+02  0.47000000000E+01 0.  1.
         11    1    4    4    0    0  0.65183765594E+01  0.74427681502E+02  0.32205356879E+03  0.33060621618E+03  0.00000000000E+00 0. -1.
        -12    1    4    4    0    0 -0.22132819405E+02  0.46056699260E+02  0.63214832204E+02  0.81284661850E+02  0.00000000000E+00 0.  1.
</event>
<event>
12    1  0.8563264E-002  0.2134476E+03  0.7818608E-02  0.1138899E+00
         21   -1    0    0  501  502  0.00000000000E+00  0.00000000000E+00  0.13016837084E+03  0.13016837084E+03  0.00000000000E+00 0. -1.
         21   -1    0    0  502  503 -0.00000000000E+00 -0.00000000000E+00 -0.75445985447E+03  0.75445985447E+03  0.00000000000E+00 0. -1.
         -6    2    1    2    0  503 -0.87977478279E+02  0.90302490913E+02 -0.63605362429E+03  0.67085681232E+03  0.17201765351E+03 0.  0.
        -24    2    3    3    0    0 -0.11049633979E+02 -0.99467345216E+01 -0.18680796443E+03  0.20415395896E+03  0.80997478035E+02 0.  0.
          6    2    1    2  501    0  0.87977478279E+02 -0.90302490913E+02  0.11762140664E+02  0.21377141299E+03  0.17223615332E+03 0.  0.
         24    2    5    5    0    0  0.75959426384E+02 -0.13097348107E+03  0.15126979971E+02  0.17096983410E+03  0.77961345876E+02 0.  0.
          5    1    5    5  501    0  0.12018051895E+02  0.40670990155E+02 -0.33648393063E+01  0.42801578886E+02  0.47000000000E+01 0. -1.
        -13    1    6    6    0    0  0.58769651017E+02 -0.68094938165E+02 -0.26323212165E+02  0.93721416885E+02  0.00000000000E+00 0.  1.
         14    1    6    6    0    0  0.17189775368E+02 -0.62878542903E+02  0.41450192135E+02  0.77248417219E+02  0.00000000000E+00 0. -1.
         -5    1    3    3    0  503 -0.76927844300E+02  0.10024922543E+03 -0.44924565986E+03  0.46670285336E+03  0.47000000000E+01 0.  1.
         13    1    4    4    0    0 -0.43031836771E+02 -0.20457138920E+01 -0.14295566949E+03  0.14930588521E+03  0.00000000000E+00 0. -1.
        -14    1    4    4    0    0  0.31982202792E+02 -0.79010206296E+01 -0.43852294942E+02  0.54848073750E+02  0.00000000000E+00 0.  1.
</event>
<event>
12    1  0.8563264E-002  0.1813029E+03  0.7818608E-02  0.1166818E+00
         21   -1    0    0  503  502  0.00000000000E+00  0.00000000000E+00  0.14096348752E+03  0.14096348752E+03  0.00000000000E+00 0. -1.
         21   -1    0    0  501  503 -0.00000000000E+00 -0.00000000000E+00 -0.24270581849E+03  0.24270581849E+03  0.00000000000E+00 0. -1.
          6    2    1    2  501    0  0.34628696701E+01 -0.60269145136E+02 -0.10250431854E+02  0.18159244595E+03  0.17095725709E+03 0.  0.
         24    2    3    3    0    0 -0.22951612898E+02 -0.93885180287E+02  0.22538446736E+02  0.12750951641E+03  0.80059300410E+02 0.  0.
         -6    2    1    2    0  502 -0.34628696701E+01  0.60269145136E+02 -0.91491899117E+02  0.20207686005E+03  0.16976433207E+03 0.  0.
        -24    2    5    5    0    0 -0.45099474659E+02  0.19404136430E+02 -0.11325678610E+01  0.94417886635E+02  0.80641003724E+02 0.  0.
          5    1    3    3  501    0  0.26414482568E+02  0.33616035151E+02 -0.32788878589E+02  0.54082929541E+02  0.47000000000E+01 0. -1.
        -13    1    4    4    0    0  0.19317046454E+02 -0.75062469735E+02  0.24233404838E+02  0.81208254239E+02  0.00000000000E+00 0.  1.
         14    1    4    4    0    0 -0.42268659351E+02 -0.18822710552E+02 -0.16949581026E+01  0.46301262173E+02  0.00000000000E+00 0. -1.
         -5    1    5    5    0  502  0.41636604989E+02  0.40865008706E+02 -0.90359331256E+02  0.10765897341E+03  0.47000000000E+01 0.  1.
         13    1    6    6    0    0 -0.14454915395E+02  0.22525537300E+02  0.36831536386E+02  0.45529182755E+02  0.00000000000E+00 0. -1.
        -14    1    6    6    0    0 -0.30644559264E+02 -0.31214008698E+01 -0.37964104247E+02  0.48888703881E+02  0.00000000000E+00 0.  1.
</event>
<event>
12    1  0.8563264E-002  0.2724795E+03  0.7818608E-02  0.1100001E+00
         21   -1    0    0  501  502  0.00000000000E+00  0.00000000000E+00  0.36409724138E+02  0.36409724138E+02  0.00000000000E+00 0. -1.
         21   -1    0    0  502  503 -0.00000000000E+00 -0.00000000000E+00 -0.25856523388E+04  0.25856523388E+04  0.00000000000E+00 0. -1.
         -6    2    1    2    0  503  0.48018329063E+02 -0.20590872847E+03 -0.66977496694E+03  0.72307922607E+03  0.17187465333E+03 0.  0.
        -24    2    3    3    0    0  0.38418390599E+02 -0.20697716095E+03 -0.44465434176E+03  0.49770246097E+03  0.75330857707E+02 0.  0.
          6    2    1    2  501    0 -0.48018329063E+02  0.20590872847E+03 -0.18794676478E+04  0.18989828369E+04  0.17039076114E+03 0.  0.
         24    2    5    5    0    0  0.29547606158E+02  0.89110484102E+02 -0.11155747445E+04  0.11223151075E+04  0.79186176943E+02 0.  0.
          5    1    5    5  501    0 -0.77565935221E+02  0.11679824437E+03 -0.76389290327E+03  0.77666772938E+03  0.47000000000E+01 0. -1.
        -11    1    6    6    0    0 -0.30607371053E+00  0.13040659051E+02 -0.61310078149E+03  0.61323952966E+03  0.00000000000E+00 0.  1.
         12    1    6    6    0    0  0.29853679868E+02  0.76069825051E+02 -0.50247396300E+03  0.50907557787E+03  0.00000000000E+00 0. -1.
         -5    1    3    3    0  503  0.95999384643E+01  0.10684324791E+01 -0.22512062518E+03  0.22537676510E+03  0.47000000000E+01 0.  1.
         13    1    4    4    0    0  0.59496605601E+02 -0.12238650729E+03 -0.28399003055E+03  0.31491052808E+03  0.00000000000E+00 0. -1.
        -14    1    4    4    0    0 -0.21078215002E+02 -0.84590653656E+02 -0.16066431121E+03  0.18279193289E+03  0.00000000000E+00 0.  1.
</event>
<event>
12    1  0.8563264E-002  0.2729450E+03  0.7818608E-02  0.1099892E+00
         21   -1    0    0  501  502  0.00000000000E+00  0.00000000000E+00  0.84243690079E+03  0.84243690079E+03  0.00000000000E+00 0.  1.
         21   -1    0    0  502  503 -0.00000000000E+00 -0.00000000000E+00 -0.97046105972E+02  0.97046105972E+02  0.00000000000E+00 0. -1.
         -6    2    1    2    0  503 -0.20628465155E+03  0.40599276225E+02  0.22878776285E+03  0.35614999408E+03  0.17406125115E+03 0.  0.
        -24    2    3    3    0    0 -0.75183140616E+02  0.50807347199E+01  0.18127527451E+03  0.21217534523E+03  0.80494307123E+02 0.  0.
          6    2    1    2  501    0  0.20628465155E+03 -0.40599276225E+02  0.51660303197E+03  0.58333301269E+03  0.17087144980E+03 0.  0.
         24    2    5    5    0    0  0.12041320191E+03  0.25717406768E+02  0.30069910607E+03  0.34165470682E+03  0.10558059527E+03 0.  0.
          5    1    5    5  501    0  0.85871449647E+02 -0.66316682993E+02  0.21590392590E+03  0.24167830586E+03  0.47000000000E+01 0. -1.
        -11    1    6    6    0    0  0.99765598512E+02  0.50646922025E+02  0.28397173610E+03  0.30521833539E+03  0.00000000000E+00 0.  1.
         12    1    6    6    0    0  0.20647603396E+02 -0.24929515257E+02  0.16727369975E+02  0.36436371433E+02  0.00000000000E+00 0. -1.
         -5    1    3    3    0  503 -0.13110151094E+03  0.35518541505E+02  0.47512488348E+02  0.14397464885E+03  0.47000000000E+01 0.  1.
         13    1    4    4    0    0  0.11043550264E+02 -0.12742982576E+02  0.59888035375E+02  0.62216721132E+02  0.00000000000E+00 0. -1.
        -14    1    4    4    0    0 -0.86226690879E+02  0.17823717296E+02  0.12138723913E+03  0.14995862410E+03  0.00000000000E+00 0.  1.
</event>
<event>
12    1  0.8563264E-002  0.2378467E+03  0.7818608E-02  0.1121274E+00
         21   -1    0    0  503  502  0.00000000000E+00  0.00000000000E+00  0.51431088094E+03  0.51431088094E+03  0.00000000000E+00 0.  1.
         21   -1    0    0  501  503 -0.00000000000E+00 -0.00000000000E+00 -0.16113955115E+03  0.16113955115E+03  0.00000000000E+00 0.  1.
          6    2    1    2  501    0 -0.97432774195E+02  0.13225160774E+03 -0.13820657086E+02  0.23824785395E+03  0.17200987213E+03 0.  0.
         24    2    3    3    0    0 -0.12723291466E+03  0.11936989809E+03  0.15176389178E+02  0.19446537449E+03  0.84552184754E+02 0.  0.
         -6    2    1    2    0  502  0.97432774195E+02 -0.13225160774E+03  0.36699198687E+03  0.43720257814E+03  0.17169549402E+03 0.  0.
        -24    2    5    5    0    0  0.18296594592E+02 -0.33672665135E+02  0.63375873943E+02  0.10828742665E+03  0.79000326723E+02 0.  0.
          5    1    3    3  501    0  0.29800140461E+02  0.12881709652E+02 -0.28997046264E+02  0.43782479453E+02  0.47000000000E+01 0. -1.
        -11    1    4    4    0    0 -0.86753326083E+02  0.57639910980E+02  0.46763786716E+02  0.11417246022E+03  0.00000000000E+00 0.  1.
         12    1    4    4    0    0 -0.40479588573E+02  0.61729987111E+02 -0.31587397538E+02  0.80292914277E+02  0.00000000000E+00 0. -1.
         -5    1    5    5    0  502  0.79136179603E+02 -0.98578942608E+02  0.30361611293E+03  0.32891515148E+03  0.47000000000E+01 0.  1.
         11    1    6    6    0    0  0.35458531673E+02 -0.10349896575E+02 -0.17860597222E+01  0.36981317402E+02  0.00000000000E+00 0. -1.
        -12    1    6    6    0    0 -0.17161937080E+02 -0.23322768560E+02  0.65161933665E+02  0.71306109252E+02  0.00000000000E+00 0.  1.
</event>
<event>
12    1  0.8563264E-002  0.2647280E+03  0.7818608E-02  0.1105766E+00
         21   -1    0    0  503  502  0.00000000000E+00  0.00000000000E+00  0.18749468285E+04  0.18749468285E+04  0.00000000000E+00 0. -1.
         21   -1    0    0  501  503 -0.00000000000E+00 -0.00000000000E+00 -0.57326381056E+02  0.57326381056E+02  0.00000000000E+00 0.  1.
          6    2    1    2  501    0 -0.12915050659E+03 -0.13646405570E+03  0.30963688640E+03  0.40122933523E+03  0.17264902599E+03 0.  0.
         24    2    3    3    0    0 -0.87317429902E+02 -0.80661123287E+01  0.14135956407E+03  0.18541602383E+03  0.81897373604E+02 0.  0.
         -6    2    1    2    0  502  0.12915050659E+03  0.13646405570E+03  0.15079835610E+04  0.15310438743E+04  0.18649030242E+03 0.  0.
        -24    2    5    5    0    0  0.14255760772E+03  0.10083423711E+03  0.14413986183E+04  0.14542006643E+04  0.81113378695E+02 0.  0.
          5    1    3    3  501    0 -0.41833076687E+02 -0.12839794337E+03  0.16827732233E+03  0.21581331140E+03  0.47000000000E+01 0. -1.
        -11    1    4    4    0    0 -0.37628339716E+02 -0.44550140505E+02  0.70652744086E+02  0.91610137079E+02  0.00000000000E+00 0.  1.
         12    1    4    4    0    0 -0.49689090187E+02  0.36484028176E+02  0.70706819987E+02  0.93805886746E+02  0.00000000000E+00 0. -1.
         -5    1    5    5    0  502 -0.13407101130E+02  0.35629818592E+02  0.66584942727E+02  0.76843210055E+02  0.47000000000E+01 0.  1.
         11    1    6    6    0    0  0.11010910323E+03  0.30170183677E+02  0.79981663426E+03  0.80792382255E+03  0.00000000000E+00 0. -1.
        -12    1    6    6    0    0  0.32448504489E+02  0.70664053435E+02  0.64158198404E+03  0.64627684171E+03  0.00000000000E+00 0.  1.
</event>
<event>
12    1  0.8563264E-002  0.3187177E+03  0.7818608E-02  0.1076491E+00
         21   -1    0    0  503  502  0.00000000000E+00  0.00000000000E+00  0.16916207366E+03  0.16916207366E+03  0.00000000000E+00 0. -1.
         21   -1    0    0  501  503 -0.00000000000E+00 -0.00000000000E+00 -0.84253583949E+03  0.84253583949E+03  0.00000000000E+00 0.  1.
          6    2    1    2  501    0  0.99131210432E+02 -0.24712895112E+03 -0.61087966273E+03  0.68902463132E+03  0.17516068297E+03 0.  0.
         24    2    3    3    0    0  0.71303766899E+02 -0.60220171911E+02 -0.18136836537E+03  0.21975785972E+03  0.81782251588E+02 0.  0.
         -6    2    1    2    0  502 -0.99131210432E+02  0.24712895112E+03 -0.62494103089E+02  0.32267328183E+03  0.17120986690E+03 0.  0.
        -24    2    5    5    0    0  0.16055659935E+02  0.10961416996E+03 -0.37089725072E+02  0.14143917200E+03  0.79726665548E+02 0.  0.
          5    1    3    3  501    0  0.27827443533E+02 -0.18690877921E+03 -0.42951129737E+03  0.46926677160E+03  0.47000000000E+01 0. -1.
        -11    1    4    4    0    0  0.83903205036E+02 -0.26439048180E+02 -0.12529187777E+03  0.15309090671E+03  0.00000000000E+00 0.  1.
         12    1    4    4    0    0 -0.12599438137E+02 -0.33781123731E+02 -0.56076487603E+02  0.66666953011E+02  0.00000000000E+00 0. -1.
         -5    1    5    5    0  502 -0.11518687037E+03  0.13751478116E+03 -0.25404378017E+02  0.18123410983E+03  0.47000000000E+01 0.  1.
         13    1    6    6    0    0 -0.73836753016E+01  0.86872070659E+02  0.59767032387E+01  0.87389909619E+02  0.00000000000E+00 0. -1.
        -14    1    6    6    0    0  0.23439335236E+02  0.22742099299E+02 -0.43066428311E+02  0.54049262385E+02  0.00000000000E+00 0.  1.
</event>
<event>
12    1  0.8563264E-002  0.1964415E+03  0.7818608E-02  0.1153258E+00
         21   -1    0    0  503  502  0.00000000000E+00  0.00000000000E+00  0.39406506541E+02  0.39406506541E+02  0.00000000000E+00 0.  1.
         21   -1    0    0  501  503 -0.00000000000E+00 -0.00000000000E+00 -0.10030719717E+04  0.10030719717E+04  0.00000000000E+00 0.  1.
          6    2    1    2  501    0 -0.76827740285E+02 -0.54151692620E+02 -0.57632716151E+03  0.60817418253E+03  0.16996450134E+03 0.  0.
         24    2    3    3    0    0 -0.98071005519E+02 -0.84710707514E+02 -0.40125230037E+03  0.42912551118E+03  0.79696108476E+02 0.  0.
         -6    2    1    2    0  502  0.76827740285E+02  0.54151692620E+02 -0.38733830365E+03  0.43430429571E+03  0.17249449935E+03 0.  0.
        -24    2    5    5    0    0  0.39640721298E+02 -0.36792511679E+02 -0.14827900042E+03  0.17579866107E+03  0.77417256275E+02 0.  0.
          5    1    3    3  501    0  0.21243265234E+02  0.30559014894E+02 -0.17507486114E+03  0.17904867135E+03  0.47000000000E+01 0. -1.
        -11    1    4    4    0    0 -0.31051493978E+02 -0.11387409060E+02 -0.21968144668E+03  0.22215716594E+03  0.00000000000E+00 0.  1.
         12    1    4    4    0    0 -0.67019511541E+02 -0.73323298454E+02 -0.18157085369E+03  0.20696834524E+03  0.00000000000E+00 0. -1.
         -5    1    5    5    0  502  0.37187018987E+02  0.90944204299E+02 -0.23905930323E+03  0.25850563464E+03  0.47000000000E+01 0.  1.
         11    1    6    6    0    0 -0.43172494702E+01 -0.61820549367E+01 -0.10928013115E+03  0.10953996308E+03  0.00000000000E+00 0. -1.
        -12    1    6    6    0    0  0.43957970769E+02 -0.30610456742E+02 -0.38998869266E+02  0.66258697996E+02  0.00000000000E+00 0.  1.
</event>
<event>
12    1  0.8563264E-002  0.1897788E+03  0.7818608E-02  0.1158795E+00
         21   -1    0    0  503  502  0.00000000000E+00  0.00000000000E+00  0.14038957498E+04  0.14038957498E+04  0.00000000000E+00 0.  1.
         21   -1    0    0  501  503 -0.00000000000E+00 -0.00000000000E+00 -0.88440014275E+02  0.88440014275E+02  0.00000000000E+00 0. -1.
          6    2    1    2  501    0 -0.18274061695E+02  0.78201839288E+02  0.28926274704E+02  0.19197058812E+03  0.17194914463E+03 0.  0.
         24    2    3    3    0    0  0.13543324803E+02 -0.19540685426E+02 -0.28898245033E+01  0.84265892825E+02  0.80790652765E+02 0.  0.
         -6    2    1    2    0  502  0.18274061695E+02 -0.78201839288E+02  0.12865294608E+04  0.13003651759E+04  0.17129526632E+03 0.  0.
        -24    2    5    5    0    0  0.13804028558E+02  0.16634730414E+02  0.83184017156E+03  0.83584564362E+03  0.78820070237E+02 0.  0.
          5    1    3    3  501    0 -0.31817386497E+02  0.97742524714E+02  0.31816099207E+02  0.10770469530E+03  0.47000000000E+01 0. -1.
        -13    1    4    4    0    0 -0.10929988001E+02  0.34216493200E+01  0.33119034288E+02  0.35043440955E+02  0.00000000000E+00 0.  1.
         14    1    4    4    0    0  0.24473312804E+02 -0.22962334746E+02 -0.36008858792E+02  0.49222451870E+02  0.00000000000E+00 0. -1.
         -5    1    5    5    0  502  0.44700331362E+01 -0.94836569702E+02  0.45468928923E+03  0.46451953230E+03  0.47000000000E+01 0.  1.
         11    1    6    6    0    0  0.45303093156E+02 -0.30544064018E+00  0.51675110369E+03  0.51873323270E+03  0.00000000000E+00 0. -1.
        -12    1    6    6    0    0 -0.31499064597E+02  0.16940171055E+02  0.31508906788E+03  0.31711241092E+03  0.00000000000E+00 0.  1.
</event>
<event>
12    1  0.8563264E-002  0.2278711E+03  0.7818608E-02  0.1128309E+00
         21   -1    0    0  501  502  0.00000000000E+00  0.00000000000E+00  0.40898403875E+03  0.40898403875E+03  0.00000000000E+00 0.  1.
         21   -1    0    0  502  503 -0.00000000000E+00 -0.00000000000E+00 -0.15226170440E+03  0.15226170440E+03  0.00000000000E+00 0. -1.
         -6    2    1    2    0  503 -0.77374903991E+02  0.12653757639E+03  0.13046706066E+02  0.22824427781E+03  0.17299306289E+03 0.  0.
        -24    2    3    3    0    0 -0.33074754021E+02  0.14750300336E+03  0.43614080522E+02  0.17029165236E+03  0.65161211552E+02 0.  0.
          6    2    1    2  501    0  0.77374903991E+02 -0.12653757639E+03  0.24367562828E+03  0.33300146533E+03  0.17179502346E+03 0.  0.
         24    2    5    5    0    0  0.98628511584E+02 -0.22801472868E+02  0.11142330978E+03  0.16351500346E+03  0.63831903699E+02 0.  0.
          5    1    5    5  501    0 -0.21253607593E+02 -0.10373610352E+03  0.13225231850E+03  0.16948646187E+03  0.47000000000E+01 0. -1.
        -11    1    6    6    0    0  0.90270528705E+02 -0.40415214368E+02  0.83385070971E+02  0.12936470912E+03  0.00000000000E+00 0.  1.
         12    1    6    6    0    0  0.83579828794E+01  0.17613741501E+02  0.28038238813E+02  0.34150294335E+02  0.00000000000E+00 0. -1.
         -5    1    3    3    0  503 -0.44300149970E+02 -0.20965426971E+02 -0.30567374455E+02  0.57952625450E+02  0.47000000000E+01 0.  1.
         11    1    4    4    0    0 -0.17582710125E+02  0.88863178457E+02 -0.76073523625E+01  0.90904829303E+02  0.00000000000E+00 0. -1.
        -12    1    4    4    0    0 -0.15492043896E+02  0.58639824905E+02  0.51221432884E+02  0.79386823061E+02  0.00000000000E+00 0.  1.
</event>
<event>
12    1  0.8563264E-002  0.2119485E+03  0.7818608E-02  0.1140146E+00
         21   -1    0    0  501  502  0.00000000000E+00  0.00000000000E+00  0.66366116965E+02  0.66366116965E+02  0.00000000000E+00 0.  1.
         21   -1    0    0  502  503 -0.00000000000E+00 -0.00000000000E+00 -0.16393031956E+04  0.16393031956E+04  0.00000000000E+00 0. -1.
         -6    2    1    2    0  503  0.26958780670E+02 -0.11980981204E+03 -0.14409965320E+04  0.14565003144E+04  0.17274545919E+03 0.  0.
        -24    2    3    3    0    0  0.68796932482E+02 -0.12703190527E+03 -0.12451341055E+04  0.12560339339E+04  0.79951107854E+02 0.  0.
          6    2    1    2  501    0 -0.26958780670E+02  0.11980981204E+03 -0.13194054658E+03  0.24916899812E+03  0.17203405150E+03 0.  0.
         24    2    5    5    0    0 -0.82797973663E+02  0.89493578449E+02 -0.73736933852E+02  0.16287392278E+03  0.78906110548E+02 0.  0.
          5    1    5    5  501    0  0.55839192993E+02  0.30316233591E+02 -0.58203612730E+02  0.86295075341E+02  0.47000000000E+01 0. -1.
        -11    1    6    6    0    0  0.90439129593E+01  0.37212200020E+02 -0.10460015477E+02  0.39698263384E+02  0.00000000000E+00 0.  1.
         12    1    6    6    0    0 -0.91841886622E+02  0.52281378429E+02 -0.63276918375E+02  0.12317565940E+03  0.00000000000E+00 0. -1.
         -5    1    3    3    0  503 -0.41838151812E+02  0.72220932343E+01 -0.19586242651E+03  0.20046638047E+03  0.47000000000E+01 0.  1.
         11    1    4    4    0    0  0.67185973861E+02 -0.88545023483E+02 -0.11089637012E+04  0.11145199267E+04  0.00000000000E+00 0. -1.
        -12    1    4    4    0    0  0.16109586204E+01 -0.38486881790E+02 -0.13617040424E+03  0.14151400725E+03  0.00000000000E+00 0.  1.
</event>
<event>
12    1  0.8563264E-002  0.2410039E+03  0.7818608E-02  0.1119174E+00
         21   -1    0    0  503  502  0.00000000000E+00  0.00000000000E+00  0.12032053563E+03  0.12032053563E+03  0.00000000000E+00 0.  1.
         21   -1    0    0  501  503 -0.00000000000E+00 -0.00000000000E+00 -0.51611106276E+03  0.51611106276E+03  0.00000000000E+00 0. -1.
          6    2    1    2  501    0 -0.59248276414E+02  0.15770189341E+03 -0.27941310995E+03  0.36880012736E+03  0.17193487861E+03 0.  0.
         24    2    3    3    0    0  0.32768753177E+02  0.78854584988E+02 -0.10774112800E+03  0.15861594344E+03  0.79114032216E+02 0.  0.
         -6    2    1    2    0  502  0.59248276414E+02 -0.15770189341E+03 -0.11637741719E+03  0.26763147103E+03  0.17234458394E+03 0.  0.
        -24    2    5    5    0    0  0.10669091747E+03 -0.11723689720E+03 -0.95971371183E+02  0.20185368738E+03  0.80043519943E+02 0.  0.
          5    1    3    3  501    0 -0.92017029590E+02  0.78847308426E+02 -0.17167198195E+03  0.21018418391E+03  0.47000000000E+01 0. -1.
        -13    1    4    4    0    0  0.35066692961E+02  0.92216891158E+02 -0.10622381757E+03  0.14497285053E+03  0.00000000000E+00 0.  1.
         14    1    4    4    0    0 -0.22979397844E+01 -0.13362306170E+02 -0.15173104288E+01  0.13643092918E+02  0.00000000000E+00 0. -1.
         -5    1    5    5    0  502 -0.47442641059E+02 -0.40464996213E+02 -0.20406046006E+02  0.65777783656E+02  0.47000000000E+01 0.  1.
         11    1    6    6    0    0  0.91156644080E+02 -0.12025061756E+03 -0.59693018653E+02  0.16227446274E+03  0.00000000000E+00 0. -1.
        -12    1    6    6    0    0  0.15534273392E+02  0.30137203579E+01 -0.36278352530E+02  0.39579224633E+02  0.00000000000E+00 0.  1.
</event>
<event>
12    1  0.8563264E-002  0.2011560E+03  0.7818608E-02  0.1148899E+00
         21   -1    0    0  501  502  0.00000000000E+00  0.00000000000E+00  0.82740325191E+02  0.82740325191E+02  0.00000000000E+00 0. -1.
         21   -1    0    0  502  503 -0.00000000000E+00 -0.00000000000E+00 -0.50886724706E+03  0.50886724706E+03  0.00000000000E+00 0. -1.
         -6    2    1    2    0  503 -0.88359458252E+02 -0.57330602439E+02 -0.27396109647E+03  0.33988000782E+03  0.17137545185E+03 0.  0.
        -24    2    3    3    0    0 -0.17529238343E+02 -0.82467236393E+02 -0.20990760503E+03  0.24101793124E+03  0.83188468294E+02 0.  0.
          6    2    1    2  501    0  0.88359458252E+02  0.57330602439E+02 -0.15216582540E+03  0.25172756443E+03  0.17064037165E+03 0.  0.
         24    2    5    5    0    0 -0.15399265559E+02  0.44730456372E+02 -0.92750320950E+02  0.13140745549E+03  0.80170731654E+02 0.  0.
          5    1    5    5  501    0  0.10375872381E+03  0.12600146067E+02 -0.59415504448E+02  0.12032010895E+03  0.47000000000E+01 0. -1.
        -11    1    6    6    0    0 -0.50803485685E+00 -0.35677478699E+01 -0.78927320105E+02  0.79009548684E+02  0.00000000000E+00 0.  1.
         12    1    6    6    0    0 -0.14891230703E+02  0.48298204242E+02 -0.13823000845E+02  0.52397906802E+02  0.00000000000E+00 0. -1.
         -5    1    3    3    0  503 -0.70830219909E+02  0.25136633954E+02 -0.64053491443E+02  0.98862076576E+02  0.47000000000E+01 0.  1.
         11    1    4    4    0    0  0.14381260803E+02 -0.16429378581E+02 -0.13286325905E+03  0.13464542602E+03  0.00000000000E+00 0. -1.
        -12    1    4    4    0    0 -0.31910499146E+02 -0.66037857812E+02 -0.77044345976E+02  0.10637250522E+03  0.00000000000E+00 0.  1.
</event>
<event>
12    1  0.8563264E-002  0.1942162E+03  0.7818608E-02  0.1155030E+00
         21   -1    0    0  503  502  0.00000000000E+00  0.00000000000E+00  0.13536785500E+03  0.13536785500E+03  0.00000000000E+00 0.  1.
         21   -1    0    0  501  503 -0.00000000000E+00 -0.00000000000E+00 -0.33014293727E+03  0.33014293727E+03  0.00000000000E+00 0. -1.
          6    2    1    2  501    0  0.89629653273E+02 -0.18921600728E+01 -0.19144003955E+03  0.27270718685E+03  0.17228716145E+03 0.  0.
         24    2    3    3    0    0  0.85256171628E+02 -0.18414042970E+02 -0.48682696535E+02  0.12885361914E+03  0.81397533410E+02 0.  0.
         -6    2    1    2    0  502 -0.89629653273E+02  0.18921600728E+01 -0.33350427210E+01  0.19280360542E+03  0.17066063617E+03 0.  0.
        -24    2    5    5    0    0  0.70728163951E+01  0.34463251965E+02  0.14690781295E+02  0.89076733305E+02  0.80505309723E+02 0.  0.
          5    1    3    3  501    0  0.43734816442E+01  0.16521882897E+02 -0.14275734301E+03  0.14385356770E+03  0.47000000000E+01 0. -1.
        -13    1    4    4    0    0  0.19847441175E+02  0.30812946545E+02 -0.83364055421E+01  0.37587953567E+02  0.00000000000E+00 0.  1.
         14    1    4    4    0    0  0.65408730453E+02 -0.49226989515E+02 -0.40346290993E+02  0.91265665576E+02  0.00000000000E+00 0. -1.
         -5    1    5    5    0  502 -0.96702469668E+02 -0.32571091892E+02 -0.18025824016E+02  0.10372687211E+03  0.47000000000E+01 0.  1.
         13    1    6    6    0    0  0.38829449395E+02  0.29809424675E+02 -0.82267154667E+01  0.49638762950E+02  0.00000000000E+00 0. -1.
        -14    1    6    6    0    0 -0.31756633000E+02  0.46538272896E+01  0.22917496761E+02  0.39437970355E+02  0.00000000000E+00 0.  1.
</event>
<event>
12    1  0.8563264E-002  0.2446174E+03  0.7818608E-02  0.1116913E+00
         21   -1    0    0  501  502  0.00000000000E+00  0.00000000000E+00  0.63876691956E+03  0.63876691956E+03  0.00000000000E+00 0. -1.
         21   -1    0    0  502  503 -0.00000000000E+00 -0.00000000000E+00 -0.12776392166E+03  0.12776392166E+03  0.00000000000E+00 0.  1.
         -6    2    1    2    0  503  0.69323384099E+02  0.15935884710E+03  0.56829249306E+02  0.25113193186E+03  0.17215315824E+03 0.  0.
        -24    2    3    3    0    0  0.31090033617E+02  0.17916227926E+02  0.56962852579E+02  0.10453755456E+03  0.79973447626E+02 0.  0.
          6    2    1    2  501    0 -0.69323384099E+02 -0.15935884710E+03  0.45417374860E+03  0.51539890936E+03  0.17076670670E+03 0.  0.
         24    2    5    5    0    0 -0.11373696229E+03 -0.11625602935E+03  0.31052548418E+03  0.35891462038E+03  0.77084806842E+02 0.  0.
          5    1    5    5  501    0  0.44413578194E+02 -0.43102817749E+02  0.14364826442E+03  0.15648428898E+03  0.47000000000E+01 0. -1.
        -11    1    6    6    0    0 -0.80622730500E+02 -0.11797685848E+03  0.21829668466E+03  0.26090612554E+03  0.00000000000E+00 0.  1.
         12    1    6    6    0    0 -0.33114231794E+02  0.17208291324E+01  0.92228799516E+02  0.98008494838E+02  0.00000000000E+00 0. -1.
         -5    1    3    3    0  503  0.38233350482E+02  0.14144261917E+03 -0.13360327308E+00  0.14659437730E+03  0.47000000000E+01 0.  1.
         11    1    4    4    0    0  0.11132422202E+02  0.98581575891E+00  0.72995228554E+02  0.73845826209E+02  0.00000000000E+00 0. -1.
        -12    1    4    4    0    0  0.19957611415E+02  0.16930412167E+02 -0.16032375975E+02  0.30691728347E+02  0.00000000000E+00 0.  1.
</event>
<event>
12    1  0.8563264E-002  0.6483725E+03  0.7818608E-02  0.9810095E-01
         21   -1    0    0  503  502  0.00000000000E+00  0.00000000000E+00  0.32628645784E+03  0.32628645784E+03  0.00000000000E+00 0.  1.
         21   -1    0    0  501  503 -0.00000000000E+00 -0.00000000000E+00 -0.14276040585E+04  0.14276040585E+04  0.00000000000E+00 0. -1.
          6    2    1    2  501    0 -0.38865507411E+03  0.48895611418E+03 -0.27554415887E+03  0.70399114785E+03  0.17189562106E+03 0.  0.
         24    2    3    3    0    0 -0.32572549969E+03  0.39005654865E+03 -0.28173021384E+03  0.58651088281E+03  0.79886732134E+02 0.  0.
         -6    2    1    2    0  502  0.38865507411E+03 -0.48895611418E+03 -0.82577344181E+03  0.10498993685E+04  0.17394268759E+03 0.  0.
        -24    2    5    5    0    0  0.39838698288E+03 -0.46433528019E+03 -0.76061309745E+03  0.97940925579E+03  0.79942265104E+02 0.  0.
          5    1    3    3  501    0 -0.62929574423E+02  0.98899565533E+02  0.61860549653E+01  0.11748026505E+03  0.47000000000E+01 0. -1.
        -11    1    4    4    0    0 -0.20818556546E+03  0.18919014247E+03 -0.14296732809E+03  0.31555315966E+03  0.00000000000E+00 0.  1.
         12    1    4    4    0    0 -0.11753993424E+03  0.20086640618E+03 -0.13876288575E+03  0.27095772315E+03  0.00000000000E+00 0. -1.
         -5    1    5    5    0  502 -0.97319087635E+01 -0.24620833988E+02 -0.65160344358E+02  0.70490112720E+02  0.47000000000E+01 0.  1.
         13    1    6    6    0    0  0.14518533676E+03 -0.17798313951E+03 -0.34785942209E+03  0.41684884250E+03  0.00000000000E+00 0. -1.
        -14    1    6    6    0    0  0.25320164612E+03 -0.28635214068E+03 -0.41275367537E+03  0.56256041329E+03  0.00000000000E+00 0.  1.
</event>
<event>
12    1  0.8563264E-002  0.2020170E+03  0.7818608E-02  0.1148178E+00
         21   -1    0    0  501  502  0.00000000000E+00  0.00000000000E+00  0.95971008635E+02  0.95971008635E+02  0.00000000000E+00 0.  1.
         21   -1    0    0  502  503 -0.00000000000E+00 -0.00000000000E+00 -0.51822840819E+03  0.51822840819E+03  0.00000000000E+00 0. -1.
         -6    2    1    2    0  503 -0.13127032614E+02  0.10443859724E+03 -0.34238931656E+03  0.39754409920E+03  0.17242716472E+03 0.  0.
        -24    2    3    3    0    0 -0.50214449059E+02  0.10436757488E+03 -0.18975120381E+03  0.24039460041E+03  0.91487501782E+02 0.  0.
          6    2    1    2  501    0  0.13127032614E+02 -0.10443859724E+03 -0.79868082995E+02  0.21665531763E+03  0.17169996038E+03 0.  0.
         24    2    5    5    0    0  0.49817223935E+02 -0.85463934856E+02 -0.24374430434E+00  0.12683141622E+03  0.79374484364E+02 0.  0.
          5    1    5    5  501    0 -0.36690191321E+02 -0.18974662387E+02 -0.79624338690E+02  0.89823901406E+02  0.47000000000E+01 0. -1.
        -13    1    6    6    0    0  0.36339188454E+02 -0.96855128142E+02 -0.14087024190E+02  0.10440257044E+03  0.00000000000E+00 0.  1.
         14    1    6    6    0    0  0.13478035481E+02  0.11391193287E+02  0.13843279886E+02  0.22428845778E+02  0.00000000000E+00 0. -1.
         -5    1    3    3    0  503  0.37087416446E+02  0.71022365329E-01 -0.15263811276E+03  0.15714949879E+03  0.47000000000E+01 0.  1.
         11    1    4    4    0    0  0.66219565293E+01 -0.11151888522E+02 -0.44252075128E+02  0.46113567191E+02  0.00000000000E+00 0. -1.
        -12    1    4    4    0    0 -0.56836405589E+02  0.11551946340E+03 -0.14549912868E+03  0.19428103322E+03  0.00000000000E+00 0.  1.
</event>
<event>
12    1  0.8563264E-002  0.1751480E+03  0.7818608E-02  0.1173228E+00
         21   -1    0    0  501  502  0.00000000000E+00  0.00000000000E+00  0.61119019105E+02  0.61119019105E+02  0.00000000000E+00 0. -1.
         21   -1    0    0  502  503 -0.00000000000E+00 -0.00000000000E+00 -0.50530191694E+03  0.50530191694E+03  0.00000000000E+00 0. -1.
         -6    2    1    2    0  503 -0.13929601168E+02  0.26529106337E+01 -0.17933737919E+03  0.24889932080E+03  0.17201135019E+03 0.  0.
        -24    2    3    3    0    0 -0.10304220423E+02 -0.20695993005E+02 -0.16134967259E+02  0.83928317446E+02  0.79051402365E+02 0.  0.
          6    2    1    2  501    0  0.13929601168E+02 -0.26529106337E+01 -0.26484551864E+03  0.31752161524E+03  0.17457306688E+03 0.  0.
         24    2    5    5    0    0 -0.20960883138E+02 -0.49317946891E+01 -0.42438703018E+02  0.92334091516E+02  0.79125594604E+02 0.  0.
          5    1    5    5  501    0  0.34890484306E+02  0.22788840554E+01 -0.22240681562E+03  0.22518752373E+03  0.47000000000E+01 0. -1.
        -13    1    6    6    0    0 -0.17927277905E+02  0.33394782971E+02 -0.37934233434E+02  0.53624666796E+02  0.00000000000E+00 0.  1.
         14    1    6    6    0    0 -0.30336052331E+01 -0.38326577661E+02 -0.45044695845E+01  0.38709424720E+02  0.00000000000E+00 0. -1.
         -5    1    3    3    0  503 -0.36253807458E+01  0.23348903639E+02 -0.16320241193E+03  0.16497100335E+03  0.47000000000E+01 0.  1.
         11    1    4    4    0    0  0.33029015429E+02  0.26593742957E+01 -0.63597742223E+01  0.33740700348E+02  0.00000000000E+00 0. -1.
        -12    1    4    4    0    0 -0.43333235851E+02 -0.23355367301E+02 -0.97751930370E+01  0.50187617098E+02  0.00000000000E+00 0.  1.
</event>
<event>
12    1  0.8563264E-002  0.1918114E+03  0.7818608E-02  0.1157525E+00
         21   -1    0    0  501  502  0.00000000000E+00  0.00000000000E+00  0.81887472287E+03  0.81887472287E+03  0.00000000000E+00 0.  1.
         21   -1    0    0  502  503 -0.00000000000E+00 -0.00000000000E+00 -0.46749727419E+02  0.46749727419E+02  0.00000000000E+00 0.  1.
         -6    2    1    2    0  503 -0.79753739839E+02  0.33025861511E+02  0.28823124320E+03  0.34622080550E+03  0.17128990063E+03 0.  0.
        -24    2    3    3    0    0 -0.41055491776E+02 -0.47483529335E+02  0.13742771024E+03  0.17088366747E+03  0.79841175502E+02 0.  0.
          6    2    1    2  501    0  0.79753739839E+02 -0.33025861511E+02  0.48389375226E+03  0.51940364479E+03  0.16785593884E+03 0.  0.
         24    2    5    5    0    0  0.11182733204E+03 -0.12215287358E+02  0.43325544548E+03  0.45577877995E+03  0.85845499438E+02 0.  0.
          5    1    5    5  501    0 -0.32073592204E+02 -0.20810574153E+02  0.50638306775E+02  0.63624864844E+02  0.47000000000E+01 0. -1.
        -13    1    6    6    0    0  0.11523762604E+02  0.16419575684E+02  0.15933404525E+02  0.25617824848E+02  0.00000000000E+00 0.  1.
         14    1    6    6    0    0  0.10030356944E+03 -0.28634863042E+02  0.41732204096E+03  0.43016095510E+03  0.00000000000E+00 0. -1.
         -5    1    3    3    0  503 -0.38698248063E+02  0.80509390846E+02  0.15080353296E+03  0.17533713803E+03  0.47000000000E+01 0.  1.
         13    1    4    4    0    0 -0.21375338706E+02  0.20575687406E+02  0.29963525231E+02  0.42167248680E+02  0.00000000000E+00 0. -1.
        -14    1    4    4    0    0 -0.19680153071E+02 -0.68059216741E+02  0.10746418501E+03  0.12871641879E+03  0.00000000000E+00 0.  1.
</event>
<event>
12    1  0.8563264E-002  0.3061966E+03  0.7818608E-02  0.1082198E+00
         21   -1    0    0  501  502  0.00000000000E+00  0.00000000000E+00  0.36182387346E+03  0.36182387346E+03  0.00000000000E+00 0. -1.
         21   -1    0    0  502  503 -0.00000000000E+00 -0.00000000000E+00 -0.29968215000E+03  0.29968215000E+03  0.00000000000E+00 0.  1.
         -6    2    1    2    0  503  0.49913244453E+02  0.24782791596E+03  0.15291017423E+03  0.34225410499E+03  0.17276094205E+03 0.  0.
        -24    2    3    3    0    0  0.19047136558E+02  0.20379781449E+03  0.48948087151E+02  0.22511499110E+03  0.79903074925E+02 0.  0.
          6    2    1    2  501    0 -0.49913244453E+02 -0.24782791596E+03 -0.90768450771E+02  0.31925191847E+03  0.17254816107E+03 0.  0.
         24    2    5    5    0    0  0.16063570732E+02 -0.76869996316E+02  0.34643136198E+01  0.11314162199E+03  0.81375613786E+02 0.  0.
          5    1    5    5  501    0 -0.65976815185E+02 -0.17095791964E+03 -0.94232764391E+02  0.20611029648E+03  0.47000000000E+01 0. -1.
        -11    1    6    6    0    0 -0.13925048512E+02 -0.36364833051E+01 -0.25162185609E+02  0.28987351923E+02  0.00000000000E+00 0.  1.
         12    1    6    6    0    0  0.29988619244E+02 -0.73233513011E+02  0.28626499229E+02  0.84154270065E+02  0.00000000000E+00 0. -1.
         -5    1    3    3    0  503  0.30866107894E+02  0.44030101467E+02  0.10396208708E+03  0.11713911388E+03  0.47000000000E+01 0.  1.
         11    1    4    4    0    0  0.43299321337E+02  0.14801134373E+03  0.55579340102E+02  0.16392453186E+03  0.00000000000E+00 0. -1.
        -12    1    4    4    0    0 -0.24252184778E+02  0.55786470760E+02 -0.66312529501E+01  0.61190459240E+02  0.00000000000E+00 0.  1.
</event>
<event>
12    1  0.8563264E-002  0.1773250E+03  0.7818608E-02  0.1170987E+00
         21   -1    0    0  501  502  0.00000000000E+00  0.00000000000E+00  0.14166379064E+04  0.14166379064E+04  0.00000000000E+00 0. -1.
         21   -1    0    0  502  503 -0.00000000000E+00 -0.00000000000E+00 -0.22274039838E+02  0.22274039838E+02  0.00000000000E+00 0. -1.
         -6    2    1    2    0  503  0.36014213450E+02 -0.19518154431E+02  0.60972615425E+03  0.63498829861E+03  0.17252876361E+03 0.  0.
        -24    2    3    3    0    0  0.55933184493E+02 -0.15693454837E+02  0.18379607417E+03  0.20854965489E+03  0.79606256194E+02 0.  0.
          6    2    1    2  501    0 -0.36014213450E+02  0.19518154431E+02  0.78463771232E+03  0.80392364763E+03  0.17017317565E+03 0.  0.
         24    2    5    5    0    0  0.12530363375E+02 -0.13136848470E+02  0.67282532317E+03  0.67764211486E+03  0.78583290430E+02 0.  0.
          5    1    5    5  501    0 -0.48544576825E+02  0.32655002901E+02  0.11181238915E+03  0.12628153278E+03  0.47000000000E+01 0. -1.
        -11    1    6    6    0    0  0.34433990604E+02  0.22315510154E+01  0.14161473874E+03  0.14575806584E+03  0.00000000000E+00 0.  1.
         12    1    6    6    0    0 -0.21903627229E+02 -0.15368399486E+02  0.53121058443E+03  0.53188404902E+03  0.00000000000E+00 0. -1.
         -5    1    3    3    0  503 -0.19918971043E+02 -0.38246995937E+01  0.42593008009E+03  0.42643864372E+03  0.47000000000E+01 0.  1.
         13    1    4    4    0    0  0.30548882260E+02 -0.42408349413E+02  0.60927644221E+02  0.80273782380E+02  0.00000000000E+00 0. -1.
        -14    1    4    4    0    0  0.25384302233E+02  0.26714894576E+02  0.12286842995E+03  0.12827587252E+03  0.00000000000E+00 0.  1.
</event>
<event>
12    1  0.8563264E-002  0.1832511E+03  0.7818608E-02  0.1165080E+00
         21   -1    0    0  501  502  0.00000000000E+00  0.00000000000E+00  0.29309425298E+03  0.29309425298E+03  0.00000000000E+00 0. -1.
         21   -1    0    0  502  503 -0.00000000000E+00 -0.00000000000E+00 -0.13371681608E+03  0.13371681608E+03  0.00000000000E+00 0. -1.
         -6    2    1    2    0  503 -0.41108527602E+02 -0.43212281797E+02 -0.34733379183E+01  0.18165530643E+03  0.17154991675E+03 0.  0.
        -24    2    3    3    0    0  0.27183285354E+02 -0.44961140046E+02 -0.41864412825E+02  0.10315183610E+03  0.78276670290E+02 0.  0.
          6    2    1    2  501    0  0.41108527602E+02  0.43212281797E+02  0.16285077482E+03  0.24515576263E+03  0.17327365856E+03 0.  0.
         24    2    5    5    0    0  0.36513259941E+02  0.64748694605E+02  0.18376411994E+03  0.21442480811E+03  0.81750443140E+02 0.  0.
          5    1    5    5  501    0  0.45952676610E+01 -0.21536412808E+02 -0.20913345118E+02  0.30730954517E+02  0.47000000000E+01 0. -1.
        -11    1    6    6    0    0  0.31254778279E+02  0.28881461816E+02  0.20595115643E+02  0.47277465988E+02  0.00000000000E+00 0.  1.
         12    1    6    6    0    0  0.52584816617E+01  0.35867232789E+02  0.16316900429E+03  0.16714734212E+03  0.00000000000E+00 0. -1.
         -5    1    3    3    0  503 -0.68291812956E+02  0.17488582493E+01  0.38391074907E+02  0.78503470334E+02  0.47000000000E+01 0.  1.
         13    1    4    4    0    0  0.72183488726E+01 -0.58002110097E+02 -0.42352752043E+01  0.58602789117E+02  0.00000000000E+00 0. -1.
        -14    1    4    4    0    0  0.19964936482E+02  0.13040970051E+02 -0.37629137621E+02  0.44549046978E+02  0.00000000000E+00 0.  1.
</event>
<event>
12    1  0.8563264E-002  0.2790651E+03  0.7818608E-02  0.1096208E+00
         21   -1    0    0  503  502  0.00000000000E+00  0.00000000000E+00  0.19345627416E+04  0.19345627416E+04  0.00000000000E+00 0. -1.
         21   -1    0    0  501  503 -0.00000000000E+00 -0.00000000000E+00 -0.46573589682E+02  0.46573589682E+02  0.00000000000E+00 0.  1.
          6    2    1    2  501    0 -0.20856254149E+03 -0.69209855487E+02  0.57885452971E+03  0.64258832298E+03  0.17192686948E+03 0.  0.
         24    2    3    3    0    0 -0.62648411945E+02 -0.43234122363E+02  0.14000795379E+03  0.17936690819E+03  0.82317967517E+02 0.  0.
         -6    2    1    2    0  502  0.20856254149E+03  0.69209855487E+02  0.13091346222E+04  0.13385480083E+04  0.17201445772E+03 0.  0.
        -24    2    5    5    0    0  0.18628044053E+03  0.66753484513E+02  0.12915802718E+04  0.13096902364E+04  0.89176715301E+02 0.  0.
          5    1    3    3  501    0 -0.14591412955E+03 -0.25975733124E+02  0.43884657593E+03  0.46322141479E+03  0.47000000000E+01 0. -1.
        -11    1    4    4    0    0 -0.50773443943E+02 -0.13741574793E+02  0.13779885860E+03  0.14749677596E+03  0.00000000000E+00 0.  1.
         12    1    4    4    0    0 -0.11874968002E+02 -0.29492547570E+02  0.22090951905E+01  0.31870132237E+02  0.00000000000E+00 0. -1.
         -5    1    5    5    0  502  0.22282100963E+02  0.24563709738E+01  0.17554350388E+02  0.28857771904E+02  0.47000000000E+01 0.  1.
         11    1    6    6    0    0  0.34413382469E+02  0.48090235736E+02  0.49755283606E+03  0.50105466402E+03  0.00000000000E+00 0. -1.
        -12    1    6    6    0    0  0.15186705806E+03  0.18663248777E+02  0.79402743578E+03  0.80863557240E+03  0.00000000000E+00 0.  1.
</event>
<event>
12    1  0.8563264E-002  0.2009590E+03  0.7818608E-02  0.1149000E+00
         21   -1    0    0  503  502  0.00000000000E+00  0.00000000000E+00  0.45606079120E+03  0.45606079120E+03  0.00000000000E+00 0.  1.
         21   -1    0    0  501  503 -0.00000000000E+00 -0.00000000000E+00 -0.18079587394E+03  0.18079587394E+03  0.00000000000E+00 0.  1.
          6    2    1    2  501    0 -0.10256544400E+03  0.19084140404E+02 -0.89939797587E+02  0.22016738881E+03  0.17175749529E+03 0.  0.
         24    2    3    3    0    0 -0.37157205644E+02  0.30724225499E+02  0.17574015623E+02  0.93695892986E+02  0.78392846443E+02 0.  0.
         -6    2    1    2    0  502  0.10256544400E+03 -0.19084140404E+02  0.36520471485E+03  0.41668927632E+03  0.17138142997E+03 0.  0.
        -24    2    5    5    0    0  0.18430090669E+02  0.76953082079E+01  0.28924682278E+03  0.30012346695E+03  0.77533766284E+02 0.  0.
          5    1    3    3  501    0 -0.65408238352E+02 -0.11640085096E+02 -0.10751381321E+03  0.12647149583E+03  0.47000000000E+01 0. -1.
        -11    1    4    4    0    0  0.13183077312E+01  0.12069677551E+02 -0.28414721498E+02  0.30900023451E+02  0.00000000000E+00 0.  1.
         12    1    4    4    0    0 -0.38475513375E+02  0.18654547948E+02  0.45988737121E+02  0.62795869535E+02  0.00000000000E+00 0. -1.
         -5    1    5    5    0  502  0.84135353326E+02 -0.26779448612E+02  0.75957892066E+02  0.11656580937E+03  0.47000000000E+01 0.  1.
         13    1    6    6    0    0 -0.20415803569E+02  0.25901767238E+02  0.80136175127E+02  0.86657447143E+02  0.00000000000E+00 0. -1.
        -14    1    6    6    0    0  0.38845894238E+02 -0.18206459030E+02  0.20911064765E+03  0.21346601981E+03  0.00000000000E+00 0.  1.
</event>
<event>
12    1  0.8563264E-002  0.3001955E+03  0.7818608E-02  0.1085152E+00
         21   -1    0    0  501  502  0.00000000000E+00  0.00000000000E+00  0.35540737460E+03  0.35540737460E+03  0.00000000000E+00 0.  1.
         21   -1    0    0  502  503 -0.00000000000E+00 -0.00000000000E+00 -0.41327994909E+03  0.41327994909E+03  0.00000000000E+00 0. -1.
         -6    2    1    2    0  503  0.18749088764E+03  0.15959510140E+03 -0.26791750717E+03  0.40236439046E+03  0.17173783135E+03 0.  0.
        -24    2    3    3    0    0  0.18583178796E+03  0.75509876893E+02 -0.19776283471E+03  0.29274301635E+03  0.79706586321E+02 0.  0.
          6    2    1    2  501    0 -0.18749088764E+03 -0.15959510140E+03  0.21004493269E+03  0.36632293323E+03  0.17161057171E+03 0.  0.
         24    2    5    5    0    0 -0.21506884349E+02 -0.46813103073E+02  0.40570770655E+02  0.10361767997E+03  0.80228570202E+02 0.  0.
          5    1    5    5  501    0 -0.16598400329E+03 -0.11278199833E+03  0.16947416203E+03  0.26270525327E+03  0.47000000000E+01 0. -1.
        -13    1    6    6    0    0 -0.50140861170E+02 -0.43752777765E+02  0.28580395780E+02  0.72424101955E+02  0.00000000000E+00 0.  1.
         14    1    6    6    0    0  0.28633976821E+02 -0.30603253077E+01  0.11990374874E+02  0.31193578012E+02  0.00000000000E+00 0. -1.
         -5    1    3    3    0  503  0.16590996771E+01  0.84085224511E+02 -0.70154672466E+02  0.10962137411E+03  0.47000000000E+01 0.  1.
         13    1    4    4    0    0  0.12662399812E+03  0.65110504349E+02 -0.18108554338E+03  0.23035839185E+03  0.00000000000E+00 0. -1.
        -14    1    4    4    0    0  0.59207789842E+02  0.10399372544E+02 -0.16677291330E+02  0.62384624495E+02  0.00000000000E+00 0.  1.
</event>
<event>
12    1  0.8563264E-002  0.2578952E+03  0.7818608E-02  0.1108421E+00
         21   -1    0    0  503  502  0.00000000000E+00  0.00000000000E+00  0.32625470119E+03  0.32625470119E+03  0.00000000000E+00 0.  1.
         21   -1    0    0  501  503 -0.00000000000E+00 -0.00000000000E+00 -0.28263401421E+03  0.28263401421E+03  0.00000000000E+00 0. -1.
          6    2    1    2  501    0 -0.36791757621E+02  0.18813767100E+03 -0.13894986919E+03  0.29294540802E+03  0.17251240319E+03 0.  0.
         24    2    3    3    0    0  0.11490915739E+02  0.43986848652E+02 -0.89264619846E+02  0.13294106391E+03  0.87397197432E+02 0.  0.
         -6    2    1    2    0  502  0.36791757621E+02 -0.18813767100E+03  0.18257055617E+03  0.31594330738E+03  0.17244926448E+03 0.  0.
        -24    2    5    5    0    0  0.70976176652E+02 -0.73134355064E+02  0.13419617597E+03  0.18649637678E+03  0.79912660857E+02 0.  0.
          5    1    3    3  501    0 -0.48282673360E+02  0.14415082235E+03 -0.49685249340E+02  0.16000434411E+03  0.47000000000E+01 0. -1.
        -13    1    4    4    0    0 -0.32623812902E+02  0.11856313339E+02 -0.63987360683E+02  0.72796068997E+02  0.00000000000E+00 0.  1.
         14    1    4    4    0    0  0.44114728640E+02  0.32130535313E+02 -0.25277259163E+02  0.60144994915E+02  0.00000000000E+00 0. -1.
         -5    1    5    5    0  502 -0.34184419031E+02 -0.11500331594E+03  0.48374380199E+02  0.12944693060E+03  0.47000000000E+01 0.  1.
         13    1    6    6    0    0  0.51522748037E+02 -0.78866644020E+01  0.24989415715E+02  0.57803667171E+02  0.00000000000E+00 0. -1.
        -14    1    6    6    0    0  0.19453428615E+02 -0.65247690662E+02  0.10920676026E+03  0.12869270961E+03  0.00000000000E+00 0.  1.
</event>
<event>
12    1  0.8563264E-002  0.2491410E+03  0.7818608E-02  0.1114623E+00
         21   -1    0    0  501  502  0.00000000000E+00  0.00000000000E+00  0.10593119895E+04  0.10593119895E+04  0.00000000000E+00 0. -1.
         21   -1    0    0  502  503 -0.00000000000E+00 -0.00000000000E+00 -0.65803024250E+02  0.65803024250E+02  0.00000000000E+00 0. -1.
         -6    2    1    2    0  503  0.17953328266E+03  0.16172753006E+02  0.29228581313E+03  0.38094760710E+03  0.16491308401E+03 0.  0.
        -24    2    3    3    0    0  0.14519190706E+03  0.63468120989E+01  0.11511680975E+03  0.20015262666E+03  0.75420303458E+02 0.  0.
          6    2    1    2  501    0 -0.17953328266E+03 -0.16172753006E+02  0.70122315214E+03  0.74416740667E+03  0.17198099467E+03 0.  0.
         24    2    5    5    0    0 -0.20718299777E+03 -0.15007015008E+02  0.61436503524E+03  0.65288603857E+03  0.75271360890E+02 0.  0.
          5    1    5    5  501    0  0.27649715105E+02 -0.11657379971E+01  0.86858116902E+02  0.91281368101E+02  0.47000000000E+01 0. -1.
        -13    1    6    6    0    0 -0.67985553347E+02  0.12837739187E+02  0.11971493405E+03  0.13826969461E+03  0.00000000000E+00 0.  1.
         14    1    6    6    0    0 -0.13919744442E+03 -0.27844754195E+02  0.49465010119E+03  0.51461634396E+03  0.00000000000E+00 0. -1.
         -5    1    3    3    0  503  0.34341375604E+02  0.98259409067E+01  0.17716900338E+03  0.18079498044E+03  0.47000000000E+01 0.  1.
         13    1    4    4    0    0  0.95181904336E+02  0.12766331878E+02  0.28923564247E+02  0.10029529755E+03  0.00000000000E+00 0. -1.
        -14    1    4    4    0    0  0.50010002723E+02 -0.64195197794E+01  0.86193245501E+02  0.99857329107E+02  0.00000000000E+00 0.  1.
</event>
<event>
12    1  0.8563264E-002  0.2108404E+03  0.7818608E-02  0.1141329E+00
         21   -1    0    0  501  502  0.00000000000E+00  0.00000000000E+00  0.82025362521E+02  0.82025362521E+02  0.00000000000E+00 0. -1.
         21   -1    0    0  502  503 -0.00000000000E+00 -0.00000000000E+00 -0.75270698116E+03  0.75270698116E+03  0.00000000000E+00 0. -1.
         -6    2    1    2    0  503 -0.91301752997E+01 -0.11889047824E+03 -0.56028919728E+03  0.59864652850E+03  0.17388322398E+03 0.  0.
        -24    2    3    3    0    0  0.16980073565E+02 -0.93832144873E+02 -0.54500051210E+03  0.55908014047E+03  0.80325904747E+02 0.  0.
          6    2    1    2  501    0  0.91301752997E+01  0.11889047824E+03 -0.11039242136E+03  0.23608581518E+03  0.17126505632E+03 0.  0.
         24    2    5    5    0    0 -0.45039269817E+02  0.18464132143E+02 -0.48458219551E+02  0.10617155450E+03  0.80961348436E+02 0.  0.
          5    1    5    5  501    0  0.54169445117E+02  0.10042634610E+03 -0.61934201810E+02  0.12991426069E+03  0.47000000000E+01 0. -1.
        -13    1    6    6    0    0  0.83213444212E+01 -0.24540577829E+02 -0.12277026615E+02  0.28674206452E+02  0.00000000000E+00 0.  1.
         14    1    6    6    0    0 -0.53360614238E+02  0.43004709971E+02 -0.36181192935E+02  0.77497348044E+02  0.00000000000E+00 0. -1.
         -5    1    3    3    0  503 -0.26110248865E+02 -0.25058333372E+02 -0.15288685182E+02  0.39566388030E+02  0.47000000000E+01 0.  1.
         11    1    4    4    0    0 -0.14428795825E+02 -0.35276699440E+02 -0.36884605067E+03  0.37080998472E+03  0.00000000000E+00 0. -1.
        -12    1    4    4    0    0  0.31408869390E+02 -0.58555445433E+02 -0.17615446142E+03  0.18827015575E+03  0.00000000000E+00 0.  1.
</event>
<event>
12    1  0.8563264E-002  0.3117899E+03  0.7818608E-02  0.1080120E+00
         21   -1    0    0  503  502  0.00000000000E+00  0.00000000000E+00  0.30194898784E+03  0.30194898784E+03  0.00000000000E+00 0. -1.
         21   -1    0    0  501  503 -0.00000000000E+00 -0.00000000000E+00 -0.48219503741E+03  0.48219503741E+03  0.00000000000E+00 0.  1.
          6    2    1    2  501    0  0.94505342731E+02 -0.24150153589E+03 -0.32040494561E+03  0.44707077829E+03  0.17308581684E+03 0.  0.
         24    2    3    3    0    0  0.25628492603E+02 -0.51138996644E+02 -0.16865999914E+03  0.19402822137E+03  0.76998303682E+02 0.  0.
         -6    2    1    2    0  502 -0.94505342731E+02  0.24150153589E+03  0.14015889603E+03  0.33707324696E+03  0.16346132888E+03 0.  0.
        -24    2    5    5    0    0 -0.72755804750E+02  0.68205476006E+02  0.87406978132E+02  0.15456455781E+03  0.79402950973E+02 0.  0.
          5    1    3    3  501    0  0.68876850128E+02 -0.19036253924E+03 -0.15174494647E+03  0.25304255692E+03  0.47000000000E+01 0. -1.
        -13    1    4    4    0    0  0.23250349432E+02 -0.34350225195E+02 -0.17184082464E+03  0.17677608926E+03  0.00000000000E+00 0.  1.
         14    1    4    4    0    0  0.23781431708E+01 -0.16788771449E+02  0.31808255040E+01  0.17252132117E+02  0.00000000000E+00 0. -1.
         -5    1    5    5    0  502 -0.21749537981E+02  0.17329605988E+03  0.52751917901E+02  0.18250868915E+03  0.47000000000E+01 0.  1.
         13    1    6    6    0    0 -0.33484512487E+02  0.71582984059E+02  0.83479872411E+02  0.11495314385E+03  0.00000000000E+00 0. -1.
        -14    1    6    6    0    0 -0.39271292263E+02 -0.33775080528E+01  0.39271057208E+01  0.39611413961E+02  0.00000000000E+00 0.  1.
</event>
<event>
12    1  0.8563264E-002  0.2116258E+03  0.7818608E-02  0.1140898E+00
         21   -1    0    0  501  502  0.00000000000E+00  0.00000000000E+00  0.14461186904E+03  0.14461186904E+03  0.00000000000E+00 0.  1.
         21   -1    0    0  502  503 -0.00000000000E+00 -0.00000000000E+00 -0.33877117808E+03  0.33877117808E+03  0.00000000000E+00 0. -1.
         -6    2    1    2    0  503 -0.15027242165E+02  0.12183416019E+03 -0.17383796126E+03  0.27387060636E+03  0.17238355970E+03 0.  0.
        -24    2    3    3    0    0 -0.58169576275E+02  0.13495402619E+03 -0.12894098855E+03  0.21006449353E+03  0.76844154784E+02 0.  0.
          6    2    1    2  501    0  0.15027242165E+02 -0.12183416019E+03 -0.20321347778E+02  0.20951244076E+03  0.16856193242E+03 0.  0.
         24    2    5    5    0    0  0.51933098415E+02 -0.72018527810E+02  0.37018138221E+02  0.12493380215E+03  0.79714473612E+02 0.  0.
          5    1    5    5  501    0 -0.36905856250E+02 -0.49815632382E+02 -0.57339485998E+02  0.84578638614E+02  0.47000000000E+01 0. -1.
        -13    1    6    6    0    0  0.49486440381E+02 -0.32758819638E+01  0.78213198004E+01  0.50207690921E+02  0.00000000000E+00 0.  1.
         14    1    6    6    0    0  0.24466580345E+01 -0.68742645847E+02  0.29196818420E+02  0.74726111229E+02  0.00000000000E+00 0. -1.
         -5    1    3    3    0  503  0.43142334110E+02 -0.13119865995E+02 -0.44896972713E+02  0.63806112834E+02  0.47000000000E+01 0.  1.
         13    1    4    4    0    0  0.19019128103E+02  0.27001686693E+02 -0.28628934676E+02  0.43708514259E+02  0.00000000000E+00 0. -1.
        -14    1    4    4    0    0 -0.77188704378E+02  0.10795233950E+03 -0.10031205387E+03  0.16635597927E+03  0.00000000000E+00 0.  1.
</event>
<event>
12    1  0.8563264E-002  0.3596116E+03  0.7818608E-02  0.1058775E+00
         21   -1    0    0  503  502  0.00000000000E+00  0.00000000000E+00  0.36500366459E+03  0.36500366459E+03  0.00000000000E+00 0. -1.
         21   -1    0    0  501  503 -0.00000000000E+00 -0.00000000000E+00 -0.38083609478E+03  0.38083609478E+03  0.00000000000E+00 0. -1.
          6    2    1    2  501    0 -0.30411822235E+03 -0.82326185895E+02  0.91199219835E+02  0.37099564910E+03  0.17336372143E+03 0.  0.
         24    2    3    3    0    0 -0.12657261267E+03  0.24389474942E+02  0.48972672033E+02  0.15953443015E+03  0.80233652727E+02 0.  0.
         -6    2    1    2    0  502  0.30411822235E+03  0.82326185895E+02 -0.10703165003E+03  0.37484411027E+03  0.17258864056E+03 0.  0.
        -24    2    5    5    0    0  0.30817152749E+03  0.85774958768E+02 -0.12769893493E+03  0.35299119326E+03  0.77257560359E+02 0.  0.
          5    1    3    3  501    0 -0.17754560968E+03 -0.10671566084E+03  0.42226547802E+02  0.21146121896E+03  0.47000000000E+01 0. -1.
        -11    1    4    4    0    0 -0.54335634032E+02 -0.19984138614E+02  0.47268751184E+02  0.74739960933E+02  0.00000000000E+00 0.  1.
         12    1    4    4    0    0 -0.72236978637E+02  0.44373613556E+02  0.17039208488E+01  0.84794469212E+02  0.00000000000E+00 0. -1.
         -5    1    5    5    0  502 -0.40533051373E+01 -0.34487728733E+01  0.20667284901E+02  0.21852917014E+02  0.47000000000E+01 0.  1.
         11    1    6    6    0    0  0.88318561939E+02  0.21531540991E+02 -0.31692400139E+00  0.90905863844E+02  0.00000000000E+00 0. -1.
        -12    1    6    6    0    0  0.21985296555E+03  0.64243417778E+02 -0.12738201092E+03  0.26208532942E+03  0.00000000000E+00 0.  1.
</event>
<event>
12    1  0.8563264E-002  0.1767171E+03  0.7818608E-02  0.1171119E+00
         21   -1    0    0  503  502  0.00000000000E+00  0.00000000000E+00  0.25866287961E+03  0.25866287961E+03  0.00000000000E+00 0.  1.
         21   -1    0    0  501  503 -0.00000000000E+00 -0.00000000000E+00 -0.14898391181E+03  0.14898391181E+03  0.00000000000E+00 0.  1.
          6    2    1    2  501    0 -0.40219195725E+02 -0.40298381546E+01 -0.34400511420E+02  0.17963841740E+03  0.17161801339E+03 0.  0.
         24    2    3    3    0    0 -0.90234752325E+02 -0.21075724955E+02 -0.14625692845E+02  0.12302347584E+03  0.79588742959E+02 0.  0.
         -6    2    1    2    0  502  0.40219195725E+02  0.40298381546E+01  0.14407947922E+03  0.22800837402E+03  0.17203226149E+03 0.  0.
        -24    2    5    5    0    0 -0.28074702925E+02 -0.40458203287E+02  0.57742462846E+02  0.10918323855E+03  0.78496703161E+02 0.  0.
          5    1    3    3  501    0  0.50015556600E+02  0.17045886801E+02 -0.19774818575E+02  0.56614941566E+02  0.47000000000E+01 0. -1.
        -13    1    4    4    0    0 -0.48902240372E+02 -0.43153263390E+02  0.15859560029E+02  0.67120480473E+02  0.00000000000E+00 0.  1.
         14    1    4    4    0    0 -0.41332511953E+02  0.22077538435E+02 -0.30485252874E+02  0.55902995362E+02  0.00000000000E+00 0. -1.
         -5    1    5    5    0  502  0.68293898650E+02  0.44488041441E+02  0.86337016374E+02  0.11882513547E+03  0.47000000000E+01 0.  1.
         13    1    6    6    0    0 -0.33548115474E+02  0.13250812787E+02  0.36062716841E+02  0.51005682402E+02  0.00000000000E+00 0. -1.
        -14    1    6    6    0    0  0.54734125483E+01 -0.53709016074E+02  0.21679746005E+02  0.58177556148E+02  0.00000000000E+00 0.  1.
</event>
<event>
12    1  0.8563264E-002  0.2023837E+03  0.7818608E-02  0.1147912E+00
         21   -1    0    0  503  502  0.00000000000E+00  0.00000000000E+00  0.36229429740E+02  0.36229429740E+02  0.00000000000E+00 0.  1.
         21   -1    0    0  501  503 -0.00000000000E+00 -0.00000000000E+00 -0.11416905077E+04  0.11416905077E+04  0.00000000000E+00 0.  1.
          6    2    1    2  501    0  0.79687126952E+02 -0.68096287777E+02 -0.62283931859E+03  0.65489539562E+03  0.17312429008E+03 0.  0.
         24    2    3    3    0    0  0.49774699634E+02  0.30258886889E+02 -0.34194851872E+03  0.35574622691E+03  0.78952311839E+02 0.  0.
         -6    2    1    2    0  502 -0.79687126952E+02  0.68096287777E+02 -0.48262175940E+03  0.52302454184E+03  0.17217365105E+03 0.  0.
        -24    2    5    5    0    0  0.21624266546E+02  0.48540095766E+02 -0.27231991417E+03  0.28872686963E+03  0.79883163387E+02 0.  0.
          5    1    3    3  501    0  0.29912427318E+02 -0.98355174666E+02 -0.28089079987E+03  0.29914916871E+03  0.47000000000E+01 0. -1.
        -11    1    4    4    0    0  0.11342031799E+02 -0.22475844989E+02 -0.43612379856E+02  0.50357173968E+02  0.00000000000E+00 0.  1.
         12    1    4    4    0    0  0.38432667835E+02  0.52734731878E+02 -0.29833613886E+03  0.30538905294E+03  0.00000000000E+00 0. -1.
         -5    1    5    5    0  502 -0.10131139350E+03  0.19556192011E+02 -0.21030184523E+03  0.23429767221E+03  0.47000000000E+01 0.  1.
         13    1    6    6    0    0  0.30534555096E+02  0.20317747632E+02 -0.38996968004E+02  0.53534413579E+02  0.00000000000E+00 0. -1.
        -14    1    6    6    0    0 -0.89102885494E+01  0.28222348133E+02 -0.23332294616E+03  0.23519245605E+03  0.00000000000E+00 0.  1.
</event>
<event>
12    1  0.8563264E-002  0.2246559E+03  0.7818608E-02  0.1130768E+00
         21   -1    0    0  501  502  0.00000000000E+00  0.00000000000E+00  0.29463221877E+03  0.29463221877E+03  0.00000000000E+00 0. -1.
         21   -1    0    0  502  503 -0.00000000000E+00 -0.00000000000E+00 -0.17090608533E+03  0.17090608533E+03  0.00000000000E+00 0. -1.
         -6    2    1    2    0  503  0.12287947963E+03  0.71687737812E+02  0.44740420251E+02  0.22740177885E+03  0.17167226203E+03 0.  0.
        -24    2    3    3    0    0  0.95669065247E+02  0.54020187797E+02 -0.34811388337E+02  0.14136033985E+03  0.81854518444E+02 0.  0.
          6    2    1    2  501    0 -0.12287947963E+03 -0.71687737812E+02  0.78985713183E+02  0.23813652525E+03  0.17387283716E+03 0.  0.
         24    2    5    5    0    0 -0.72925787045E+02 -0.36048108807E+02 -0.25082031746E+02  0.11723267877E+03  0.80602457101E+02 0.  0.
          5    1    5    5  501    0 -0.49953692589E+02 -0.35639629006E+02  0.10406774493E+03  0.12090384648E+03  0.47000000000E+01 0. -1.
        -13    1    6    6    0    0  0.15160552446E+01 -0.39864647257E+02 -0.10902026928E+02  0.41356289915E+02  0.00000000000E+00 0.  1.
         14    1    6    6    0    0 -0.74441842289E+02  0.38165384500E+01 -0.14180004818E+02  0.75876388856E+02  0.00000000000E+00 0. -1.
         -5    1    3    3    0  503  0.27210414387E+02  0.17667550015E+02  0.79551808588E+02  0.86041438995E+02  0.47000000000E+01 0.  1.
         13    1    4    4    0    0  0.47359560119E+02  0.48182497211E+01  0.21596066166E+02  0.52273640957E+02  0.00000000000E+00 0. -1.
        -14    1    4    4    0    0  0.48309505127E+02  0.49201938076E+02 -0.56407454503E+02  0.89086698893E+02  0.00000000000E+00 0.  1.
</event>
<event>
12    1  0.8563264E-002  0.1782842E+03  0.7818608E-02  0.1169788E+00
         21   -1    0    0  501  502  0.00000000000E+00  0.00000000000E+00  0.97799878288E+02  0.97799878288E+02  0.00000000000E+00 0.  1.
         21   -1    0    0  502  503 -0.00000000000E+00 -0.00000000000E+00 -0.57135930806E+03  0.57135930806E+03  0.00000000000E+00 0.  1.
         -6    2    1    2    0  503 -0.12786954122E+02  0.34606628017E+02 -0.45702987797E+03  0.49011035311E+03  0.17312054751E+03 0.  0.
        -24    2    3    3    0    0  0.35993990656E+02  0.46215722600E+02 -0.40981839874E+03  0.42107872687E+03  0.76972163137E+02 0.  0.
          6    2    1    2  501    0  0.12786954122E+02 -0.34606628017E+02 -0.16529551804E+02  0.17904883324E+03  0.17442515215E+03 0.  0.
         24    2    5    5    0    0  0.49993107283E+02 -0.12339699381E+02  0.49547884986E+02  0.99875405899E+02  0.69774815229E+02 0.  0.
          5    1    5    5  501    0 -0.37206153161E+02 -0.22266928635E+02 -0.66077436790E+02  0.79173427339E+02  0.47000000000E+01 0. -1.
        -13    1    6    6    0    0 -0.13227519309E+02 -0.12445863307E+02 -0.20418279711E+01  0.18276647449E+02  0.00000000000E+00 0.  1.
         14    1    6    6    0    0  0.63220626592E+02  0.10616392536E+00  0.51589712957E+02  0.81598758449E+02  0.00000000000E+00 0. -1.
         -5    1    3    3    0  503 -0.48780944778E+02 -0.11609094583E+02 -0.47211479228E+02  0.69031626240E+02  0.47000000000E+01 0.  1.
         13    1    4    4    0    0  0.34484589177E+02 -0.10761502695E+02 -0.10673623708E+03  0.11268372170E+03  0.00000000000E+00 0. -1.
        -14    1    4    4    0    0  0.15094014784E+01  0.56977225295E+02 -0.30308216166E+03  0.30839500517E+03  0.00000000000E+00 0.  1.
</event>
<event>
12    1  0.8563264E-002  0.1769242E+03  0.7818608E-02  0.1171171E+00
         21   -1    0    0  501  502  0.00000000000E+00  0.00000000000E+00  0.13795311478E+03  0.13795311478E+03  0.00000000000E+00 0.  1.
         21   -1    0    0  502  503 -0.00000000000E+00 -0.00000000000E+00 -0.26306887157E+03  0.26306887157E+03  0.00000000000E+00 0.  1.
         -6    2    1    2    0  503 -0.38810618567E+02 -0.89367081709E+01  0.13874885537E+02  0.17603183880E+03  0.17090514023E+03 0.  0.
        -24    2    3    3    0    0 -0.58652271114E+02 -0.73908215896E+01  0.66552535301E+02  0.11952426651E+03  0.79762755593E+02 0.  0.
          6    2    1    2  501    0  0.38810618567E+02  0.89367081709E+01 -0.13899064233E+03  0.22499014755E+03  0.17238340690E+03 0.  0.
         24    2    5    5    0    0  0.41060765608E+02 -0.21745919115E+01 -0.65337522151E+01  0.91965932122E+02  0.82001996505E+02 0.  0.
          5    1    5    5  501    0 -0.22501470411E+01  0.11111300082E+02 -0.13245689012E+03  0.13302421543E+03  0.47000000000E+01 0. -1.
        -11    1    6    6    0    0  0.29746528460E+02 -0.24579349981E+02 -0.36335648798E+02  0.53002639316E+02  0.00000000000E+00 0.  1.
         12    1    6    6    0    0  0.11314237147E+02  0.22404758069E+02  0.29801896583E+02  0.38963292806E+02  0.00000000000E+00 0. -1.
         -5    1    3    3    0  503  0.19841652548E+02 -0.15458865814E+01 -0.52677649764E+02  0.56507572287E+02  0.47000000000E+01 0.  1.
         13    1    4    4    0    0 -0.51850365626E+01  0.50033267009E+01 -0.17621262451E+02  0.19037509622E+02  0.00000000000E+00 0. -1.
        -14    1    4    4    0    0 -0.53467234552E+02 -0.12394148290E+02  0.84173797752E+02  0.10048675689E+03  0.00000000000E+00 0.  1.
</event>
<event>
12    1  0.8563264E-002  0.1870350E+03  0.7818608E-02  0.1161787E+00
         21   -1    0    0  503  502  0.00000000000E+00  0.00000000000E+00  0.34478272272E+03  0.34478272272E+03  0.00000000000E+00 0.  1.
         21   -1    0    0  501  503 -0.00000000000E+00 -0.00000000000E+00 -0.11115967372E+03  0.11115967372E+03  0.00000000000E+00 0.  1.
          6    2    1    2  501    0 -0.73142076600E+02  0.87279855387E+00  0.43847194908E+02  0.18948984598E+03  0.16921377037E+03 0.  0.
         24    2    3    3    0    0 -0.20974703317E+02 -0.58150302299E+02  0.49346075264E+01  0.10150438851E+03  0.80357916215E+02 0.  0.
         -6    2    1    2    0  502  0.73142076600E+02 -0.87279855387E+00  0.18977585409E+03  0.26645255046E+03  0.17213820525E+03 0.  0.
        -24    2    5    5    0    0  0.20338081734E+02 -0.17533078797E+02  0.19310596499E+03  0.21078382989E+03  0.80117805802E+02 0.  0.
          5    1    3    3  501    0 -0.52167373283E+02  0.59023100853E+02  0.38912587382E+02  0.87985457470E+02  0.47000000000E+01 0. -1.
        -13    1    4    4    0    0 -0.49031119019E+02 -0.20264853042E+02  0.10341064058E+02  0.54052312688E+02  0.00000000000E+00 0.  1.
         14    1    4    4    0    0  0.28056415702E+02 -0.37885449257E+02 -0.54064565319E+01  0.47452075821E+02  0.00000000000E+00 0. -1.
         -5    1    5    5    0  502  0.52803994866E+02  0.16660280244E+02 -0.33301109079E+01  0.55668720573E+02  0.47000000000E+01 0.  1.
         11    1    6    6    0    0 -0.20151862732E+02 -0.25471830079E+02  0.36614041866E+02  0.48943842932E+02  0.00000000000E+00 0. -1.
        -12    1    6    6    0    0  0.40489944466E+02  0.79387512812E+01  0.15649192313E+03  0.16183998696E+03  0.00000000000E+00 0.  1.
</event>
<event>
12    1  0.8563264E-002  0.2198725E+03  0.7818608E-02  0.1134811E+00
         21   -1    0    0  501  502  0.00000000000E+00  0.00000000000E+00  0.12074644175E+03  0.12074644175E+03  0.00000000000E+00 0. -1.
         21   -1    0    0  502  503 -0.00000000000E+00 -0.00000000000E+00 -0.43240642298E+03  0.43240642298E+03  0.00000000000E+00 0. -1.
         -6    2    1    2    0  503 -0.51477618941E+02  0.13404435360E+03 -0.70246503360E+02  0.22661894768E+03  0.16063543267E+03 0.  0.
        -24    2    3    3    0    0 -0.69744712518E+02  0.15492213079E+03 -0.65171267808E+02  0.19802845442E+03  0.78120311571E+02 0.  0.
          6    2    1    2  501    0  0.51477618941E+02 -0.13404435360E+03 -0.24141347787E+03  0.32653391705E+03  0.16651155427E+03 0.  0.
         24    2    5    5    0    0 -0.27875288717E+02 -0.65638629797E+02 -0.77366981521E+02  0.13183011646E+03  0.79423348787E+02 0.  0.
          5    1    5    5  501    0  0.79352907658E+02 -0.68405723799E+02 -0.16404649635E+03  0.19470380060E+03  0.47000000000E+01 0. -1.
        -11    1    6    6    0    0 -0.12921436659E+02  0.91603188750E+01 -0.47227047529E+02  0.49812337684E+02  0.00000000000E+00 0.  1.
         12    1    6    6    0    0 -0.14953852058E+02 -0.74798948672E+02 -0.30139933993E+02  0.82017778773E+02  0.00000000000E+00 0. -1.
         -5    1    3    3    0  503  0.18267093577E+02 -0.20877777197E+02 -0.50752355520E+01  0.28590493252E+02  0.47000000000E+01 0.  1.
         13    1    4    4    0    0 -0.69174502894E+02  0.87022531480E+02 -0.12053244516E+02  0.11181821649E+03  0.00000000000E+00 0. -1.
        -14    1    4    4    0    0 -0.57020962404E+00  0.67899599313E+02 -0.53118023292E+02  0.86210237933E+02  0.00000000000E+00 0.  1.
</event>
<event>
12    1  0.8563264E-002  0.3447784E+03  0.7818608E-02  0.1064804E+00
         21   -1    0    0  503  502  0.00000000000E+00  0.00000000000E+00  0.90277719607E+03  0.90277719607E+03  0.00000000000E+00 0.  1.
         21   -1    0    0  501  503 -0.00000000000E+00 -0.00000000000E+00 -0.13171239723E+03  0.13171239723E+03  0.00000000000E+00 0. -1.
          6    2    1    2  501    0 -0.14996527944E+03 -0.25827682526E+03  0.36906113718E+03  0.50488684367E+03  0.17177921419E+03 0.  0.
         24    2    3    3    0    0 -0.83258073796E+02 -0.23750100660E+03  0.23332087531E+03  0.35214852294E+03  0.78938687385E+02 0.  0.
         -6    2    1    2    0  502  0.14996527944E+03  0.25827682526E+03  0.40200366166E+03  0.52960274963E+03  0.17226614562E+03 0.  0.
        -24    2    5    5    0    0  0.79165859355E+02  0.53342590275E+02  0.17472716333E+03  0.21545740868E+03  0.82338618661E+02 0.  0.
          5    1    3    3  501    0 -0.66707205648E+02 -0.20775818659E+02  0.13574026187E+03  0.15273832072E+03  0.47000000000E+01 0. -1.
        -13    1    4    4    0    0 -0.21775620516E+02 -0.14581051959E+03  0.16945278421E+03  0.22460884077E+03  0.00000000000E+00 0.  1.
         14    1    4    4    0    0 -0.61482453280E+02 -0.91690487006E+02  0.63868091097E+02  0.12753968217E+03  0.00000000000E+00 0. -1.
         -5    1    5    5    0  502  0.70799420090E+02  0.20493423498E+03  0.22727649833E+03  0.31414534096E+03  0.47000000000E+01 0.  1.
         11    1    6    6    0    0  0.75821377103E+02  0.11018008210E+02  0.75673277236E+02  0.10768808021E+03  0.00000000000E+00 0. -1.
        -12    1    6    6    0    0  0.33444822520E+01  0.42324582064E+02  0.99053886096E+02  0.10776932847E+03  0.00000000000E+00 0.  1.
</event>
<event>
12    1  0.8563264E-002  0.1751695E+03  0.7818608E-02  0.1172665E+00
         21   -1    0    0  501  502  0.00000000000E+00  0.00000000000E+00  0.21969432615E+03  0.21969432615E+03  0.00000000000E+00 0.  1.
         21   -1    0    0  502  503 -0.00000000000E+00 -0.00000000000E+00 -0.14096904485E+03  0.14096904485E+03  0.00000000000E+00 0.  1.
         -6    2    1    2    0  503 -0.21645531235E+02 -0.17216285497E+02  0.58707282099E+02  0.18435380177E+03  0.17255390389E+03 0.  0.
        -24    2    3    3    0    0  0.52384545536E+02  0.12047652392E+02  0.41911445684E+02  0.10286134538E+03  0.77036358658E+02 0.  0.
          6    2    1    2  501    0  0.21645531235E+02  0.17216285497E+02  0.20017999203E+02  0.17630956923E+03  0.17297229374E+03 0.  0.
         24    2    5    5    0    0 -0.20022862664E+01 -0.56968621064E+02  0.24964564178E+02  0.98148337541E+02  0.75897521443E+02 0.  0.
          5    1    5    5  501    0  0.23647817502E+02  0.74184906560E+02 -0.49465649750E+01  0.78161231688E+02  0.47000000000E+01 0. -1.
        -13    1    6    6    0    0 -0.42231323774E+01  0.13651780408E+02  0.23468923315E+02  0.27477196308E+02  0.00000000000E+00 0.  1.
         14    1    6    6    0    0  0.22208461110E+01 -0.70620401472E+02  0.14956408632E+01  0.70671141233E+02  0.00000000000E+00 0. -1.
         -5    1    3    3    0  503 -0.74030076771E+02 -0.29263937889E+02  0.16795836415E+02  0.81492456389E+02  0.47000000000E+01 0.  1.
         13    1    4    4    0    0  0.30884760832E+02  0.25424133724E+02  0.59737548631E+02  0.71894573813E+02  0.00000000000E+00 0. -1.
        -14    1    4    4    0    0  0.21499784704E+02 -0.13376481332E+02 -0.17826102947E+02  0.30966771569E+02  0.00000000000E+00 0.  1.
</event>
<event>
12    1  0.8563264E-002  0.1842377E+03  0.7818608E-02  0.1163835E+00
         21   -1    0    0  503  502  0.00000000000E+00  0.00000000000E+00  0.21719677737E+02  0.21719677737E+02  0.00000000000E+00 0.  1.
         21   -1    0    0  501  503 -0.00000000000E+00 -0.00000000000E+00 -0.15611842978E+04  0.15611842978E+04  0.00000000000E+00 0. -1.
          6    2    1    2  501    0 -0.11439551816E+02 -0.63728375905E+02 -0.74948251661E+03  0.77172258926E+03  0.17216138601E+03 0.  0.
         24    2    3    3    0    0  0.32625664785E+02 -0.32917657229E+02 -0.21320582514E+03  0.23273666782E+03  0.81003867282E+02 0.  0.
         -6    2    1    2    0  502  0.11439551816E+02  0.63728375905E+02 -0.78998210349E+03  0.81118138631E+03  0.17248579194E+03 0.  0.
        -24    2    5    5    0    0  0.67697560917E+02  0.90843776817E+01 -0.48173685684E+03  0.49308053404E+03  0.79953287258E+02 0.  0.
          5    1    3    3  501    0 -0.44065216601E+02 -0.30810718676E+02 -0.53627669147E+03  0.53898592144E+03  0.47000000000E+01 0. -1.
        -11    1    4    4    0    0 -0.14017219236E+01 -0.20478725508E+02 -0.46360969132E+01  0.21043678798E+02  0.00000000000E+00 0.  1.
         12    1    4    4    0    0  0.34027386708E+02 -0.12438931721E+02 -0.20856972823E+03  0.21169298903E+03  0.00000000000E+00 0. -1.
         -5    1    5    5    0  502 -0.56258009101E+02  0.54643998223E+02 -0.30824524665E+03  0.31810085227E+03  0.47000000000E+01 0.  1.
         11    1    6    6    0    0  0.16537589915E+02  0.29384222936E+02 -0.32910747566E+03  0.33083025100E+03  0.00000000000E+00 0. -1.
        -12    1    6    6    0    0  0.51159971002E+02 -0.20299845254E+02 -0.15262938117E+03  0.16225028304E+03  0.00000000000E+00 0.  1.
</event>
<event>
12    1  0.8563264E-002  0.2644720E+03  0.7818608E-02  0.1104894E+00
         21   -1    0    0  503  502  0.00000000000E+00  0.00000000000E+00  0.17552080636E+03  0.17552080636E+03  0.00000000000E+00 0.  1.
         21   -1    0    0  501  503 -0.00000000000E+00 -0.00000000000E+00 -0.43653334936E+03  0.43653334936E+03  0.00000000000E+00 0. -1.
          6    2    1    2  501    0 -0.16484287766E+03  0.10849038013E+03 -0.34760084074E+02  0.26400875784E+03  0.17189829515E+03 0.  0.
         24    2    3    3    0    0 -0.17624527266E+02  0.29385761466E+02 -0.41525694237E+02  0.96680795838E+02  0.80303462340E+02 0.  0.
         -6    2    1    2    0  502  0.16484287766E+03 -0.10849038013E+03 -0.22625245893E+03  0.34804539788E+03  0.17607409497E+03 0.  0.
        -24    2    5    5    0    0  0.68082167914E+02 -0.12007713158E+03 -0.10145549559E+03  0.18963687596E+03  0.81334052032E+02 0.  0.
          5    1    3    3  501    0 -0.14721835040E+03  0.79104618660E+02  0.67656101623E+01  0.16732796200E+03  0.47000000000E+01 0. -1.
        -13    1    4    4    0    0 -0.46918177256E+02  0.16263893308E+01 -0.21809432250E+02  0.51764967249E+02  0.00000000000E+00 0.  1.
         14    1    4    4    0    0  0.29293649990E+02  0.27759372135E+02 -0.19716261987E+02  0.44915828589E+02  0.00000000000E+00 0. -1.
         -5    1    5    5    0  502  0.96760709747E+02  0.11586751459E+02 -0.12479696334E+03  0.15840852192E+03  0.47000000000E+01 0.  1.
         13    1    6    6    0    0  0.64744169413E+02 -0.32268517028E+02 -0.46414846750E+02  0.85950000948E+02  0.00000000000E+00 0. -1.
        -14    1    6    6    0    0  0.33379985008E+01 -0.87808614557E+02 -0.55040648839E+02  0.10368687501E+03  0.00000000000E+00 0.  1.
</event>
<event>
12    1  0.8563264E-002  0.1993094E+03  0.7818608E-02  0.1150521E+00
         21   -1    0    0  501  502  0.00000000000E+00  0.00000000000E+00  0.13512467855E+04  0.13512467855E+04  0.00000000000E+00 0.  1.
         21   -1    0    0  502  503 -0.00000000000E+00 -0.00000000000E+00 -0.38460733291E+02  0.38460733291E+02  0.00000000000E+00 0.  1.
         -6    2    1    2    0  503  0.62486233429E+02 -0.80083073314E+02  0.31538664921E+03  0.37258913528E+03  0.17039981582E+03 0.  0.
        -24    2    3    3    0    0  0.13589465206E+02 -0.11062694491E+03  0.25639903284E+03  0.28997284803E+03  0.76946696128E+02 0.  0.
          6    2    1    2  501    0 -0.62486233429E+02  0.80083073314E+02  0.99739940304E+03  0.10171183835E+04  0.17148296992E+03 0.  0.
         24    2    5    5    0    0 -0.18350313429E+02  0.18078833086E+01  0.73842042895E+03  0.74295204021E+03  0.79831082320E+02 0.  0.
          5    1    5    5  501    0 -0.44135920000E+02  0.78275190006E+02  0.25897897408E+03  0.27416634334E+03  0.47000000000E+01 0. -1.
        -11    1    6    6    0    0  0.25638905590E+02  0.15875807506E+02  0.43420223300E+03  0.43524817506E+03  0.00000000000E+00 0.  1.
         12    1    6    6    0    0 -0.43989219019E+02 -0.14067924197E+02  0.30421819595E+03  0.30770386515E+03  0.00000000000E+00 0. -1.
         -5    1    3    3    0  503  0.48896768223E+02  0.30543871600E+02  0.58987616371E+02  0.82616287257E+02  0.47000000000E+01 0.  1.
         13    1    4    4    0    0  0.31061788006E+02 -0.32457507473E+02  0.15130994215E+03  0.15783859813E+03  0.00000000000E+00 0. -1.
        -14    1    4    4    0    0 -0.17472322800E+02 -0.78169437441E+02  0.10508909069E+03  0.13213424990E+03  0.00000000000E+00 0.  1.
</event>
<event>
12    1  0.8563264E-002  0.1737009E+03  0.7818608E-02  0.1174202E+00
         21   -1    0    0  503  502  0.00000000000E+00  0.00000000000E+00  0.19972328005E+03  0.19972328005E+03  0.00000000000E+00 0. -1.
         21   -1    0    0  501  503 -0.00000000000E+00 -0.00000000000E+00 -0.15111928128E+03  0.15111928128E+03  0.00000000000E+00 0. -1.
          6    2    1    2  501    0  0.17802571175E+01  0.13573458349E+02  0.13252841802E+02  0.17358091857E+03  0.17253199526E+03 0.  0.
         24    2    3    3    0    0 -0.17091744397E+02  0.20813530061E+01 -0.55317352522E+02  0.10138547221E+03  0.83201831278E+02 0.  0.
         -6    2    1    2    0  502 -0.17802571175E+01 -0.13573458349E+02  0.35351156964E+02  0.17726164276E+03  0.17316055442E+03 0.  0.
        -24    2    5    5    0    0  0.21803693074E+02 -0.77413930153E+02  0.33212217175E+02  0.10900863103E+03  0.65662109745E+02 0.  0.
          5    1    3    3  501    0  0.18872001514E+02  0.11492105343E+02  0.68570194323E+02  0.72195446366E+02  0.47000000000E+01 0. -1.
        -11    1    4    4    0    0 -0.40220679498E+02 -0.78585767924E+01 -0.41129947043E+00  0.40983282637E+02  0.00000000000E+00 0.  1.
         12    1    4    4    0    0  0.23128935101E+02  0.99399297985E+01 -0.54906053051E+02  0.60402189571E+02  0.00000000000E+00 0. -1.
         -5    1    5    5    0  502 -0.23583950192E+02  0.63840471803E+02  0.21389397884E+01  0.68253011729E+02  0.47000000000E+01 0.  1.
         13    1    6    6    0    0 -0.17410521375E+02 -0.30773247254E+02 -0.69430032753E+01  0.36032267422E+02  0.00000000000E+00 0. -1.
        -14    1    6    6    0    0  0.39214214449E+02 -0.46640682898E+02  0.40155220451E+02  0.72976363608E+02  0.00000000000E+00 0.  1.
</event>
<event>
12    1  0.8563264E-002  0.2078666E+03  0.7818608E-02  0.1143375E+00
         21   -1    0    0  503  502  0.00000000000E+00  0.00000000000E+00  0.89050427764E+02  0.89050427764E+02  0.00000000000E+00 0. -1.
         21   -1    0    0  501  503 -0.00000000000E+00 -0.00000000000E+00 -0.48674180904E+03  0.48674180904E+03  0.00000000000E+00 0.  1.
          6    2    1    2  501    0 -0.10589196216E+03 -0.43232312932E+02 -0.22088983173E+03  0.30331642598E+03  0.17356957099E+03 0.  0.
         24    2    3    3    0    0 -0.37633704377E+02 -0.11536221389E+02 -0.22320399934E+02  0.90911762142E+02  0.78850289368E+02 0.  0.
         -6    2    1    2    0  502  0.10589196216E+03  0.43232312932E+02 -0.17680154954E+03  0.27247581082E+03  0.17292234971E+03 0.  0.
        -24    2    5    5    0    0 -0.13970159423E+02  0.29032294529E+02 -0.10203926846E+02  0.66695766595E+02  0.57499266766E+02 0.  0.
          5    1    3    3  501    0 -0.68258257788E+02 -0.31696091543E+02 -0.19856943180E+03  0.21240466384E+03  0.47000000000E+01 0. -1.
        -11    1    4    4    0    0 -0.11886983345E+02 -0.83733217721E+01 -0.50534747497E+02  0.52584917943E+02  0.00000000000E+00 0.  1.
         12    1    4    4    0    0 -0.25746721032E+02 -0.31628996171E+01  0.28214347562E+02  0.38326844199E+02  0.00000000000E+00 0. -1.
         -5    1    5    5    0  502  0.11986212159E+03  0.14200018403E+02 -0.16659762270E+03  0.20578004423E+03  0.47000000000E+01 0.  1.
         13    1    6    6    0    0 -0.65556968619E+01  0.34677132963E+02 -0.29025119444E+02  0.45693963175E+02  0.00000000000E+00 0. -1.
        -14    1    6    6    0    0 -0.74144625609E+01 -0.56448384342E+01  0.18821192599E+02  0.21001803419E+02  0.00000000000E+00 0.  1.
</event>
<event>
12    1  0.8563264E-002  0.2229581E+03  0.7818608E-02  0.1131959E+00
         21   -1    0    0  503  502  0.00000000000E+00  0.00000000000E+00  0.20225059936E+03  0.20225059936E+03  0.00000000000E+00 0.  1.
         21   -1    0    0  501  503 -0.00000000000E+00 -0.00000000000E+00 -0.28371737047E+03  0.28371737047E+03  0.00000000000E+00 0. -1.
          6    2    1    2  501    0 -0.12059635300E+03  0.76605885286E+02 -0.13128417556E+03  0.25751208908E+03  0.16930741051E+03 0.  0.
         24    2    3    3    0    0 -0.94949342979E+02  0.24879823854E+02 -0.15644621909E+02  0.12817550909E+03  0.80930980275E+02 0.  0.
         -6    2    1    2    0  502  0.12059635300E+03 -0.76605885286E+02  0.49817404448E+02  0.22845588076E+03  0.17116767700E+03 0.  0.
        -24    2    5    5    0    0  0.96863051732E+02  0.16186028882E+02  0.32848245477E+02  0.13107184058E+03  0.80351613808E+02 0.  0.
          5    1    3    3  501    0 -0.25647010016E+02  0.51726061432E+02 -0.11563955365E+03  0.12933657999E+03  0.47000000000E+01 0. -1.
        -13    1    4    4    0    0 -0.89507036919E+02  0.41288082493E+02  0.79890811038E+01  0.98894088958E+02  0.00000000000E+00 0.  1.
         14    1    4    4    0    0 -0.54423060600E+01 -0.16408258638E+02 -0.23633703012E+02  0.29281420131E+02  0.00000000000E+00 0. -1.
         -5    1    5    5    0  502  0.23733301263E+02 -0.92791914168E+02  0.16969158971E+02  0.97384040171E+02  0.47000000000E+01 0.  1.
         13    1    6    6    0    0  0.15009627661E+02 -0.20295695580E+02 -0.15121347169E+02  0.29425487623E+02  0.00000000000E+00 0. -1.
        -14    1    6    6    0    0  0.81853424071E+02  0.36481724462E+02  0.47969592646E+02  0.10164635296E+03  0.00000000000E+00 0.  1.
</event>
<event>
12    1  0.8563264E-002  0.1866269E+03  0.7818608E-02  0.1161959E+00
         21   -1    0    0  503  502  0.00000000000E+00  0.00000000000E+00  0.68140942067E+03  0.68140942067E+03  0.00000000000E+00 0.  1.
         21   -1    0    0  501  503 -0.00000000000E+00 -0.00000000000E+00 -0.18850035802E+03  0.18850035802E+03  0.00000000000E+00 0.  1.
          6    2    1    2  501    0  0.66480650883E+02  0.19768159445E+02 -0.12521900092E+03  0.22474296714E+03  0.17326034174E+03 0.  0.
         24    2    3    3    0    0 -0.15872786826E+02  0.11394996076E+02 -0.12300383534E+02  0.84654057089E+02  0.81444574094E+02 0.  0.
         -6    2    1    2    0  502 -0.66480650883E+02 -0.19768159445E+02  0.61812806358E+03  0.64516681155E+03  0.17131098818E+03 0.  0.
        -24    2    5    5    0    0 -0.10299992446E+03  0.11607999263E+02  0.51417014519E+03  0.53050443989E+03  0.79500267020E+02 0.  0.
          5    1    3    3  501    0  0.82353437709E+02  0.83731633691E+01 -0.11291861739E+03  0.14008891006E+03  0.47000000000E+01 0. -1.
        -13    1    4    4    0    0 -0.44516633767E+02  0.21131086966E+02 -0.20403502535E+02  0.53334383225E+02  0.00000000000E+00 0.  1.
         14    1    4    4    0    0  0.28643846941E+02 -0.97360908897E+01  0.81031190009E+01  0.31319673864E+02  0.00000000000E+00 0. -1.
         -5    1    5    5    0  502  0.36519273578E+02 -0.31376158709E+02  0.10395791839E+03  0.11466237166E+03  0.47000000000E+01 0.  1.
         11    1    6    6    0    0 -0.48507286611E+02  0.10422509416E+02  0.89340271399E+02  0.10219231698E+03  0.00000000000E+00 0. -1.
        -12    1    6    6    0    0 -0.54492637849E+02  0.11854898480E+01  0.42482987379E+03  0.42831212291E+03  0.00000000000E+00 0.  1.
</event>
<event>
12    1  0.8563264E-002  0.2640486E+03  0.7818608E-02  0.1105171E+00
         21   -1    0    0  501  502  0.00000000000E+00  0.00000000000E+00  0.14236962063E+03  0.14236962063E+03  0.00000000000E+00 0. -1.
         21   -1    0    0  502  503 -0.00000000000E+00 -0.00000000000E+00 -0.61114686116E+03  0.61114686116E+03  0.00000000000E+00 0. -1.
         -6    2    1    2    0  503 -0.12113671317E+02  0.19692349990E+03 -0.40500664678E+03  0.48187634067E+03  0.17102285786E+03 0.  0.
        -24    2    3    3    0    0 -0.43673947637E+02  0.20347698502E+03 -0.38180745031E+03  0.44188519258E+03  0.78583059058E+02 0.  0.
          6    2    1    2  501    0  0.12113671317E+02 -0.19692349990E+03 -0.63770593755E+02  0.27164014112E+03  0.17548809588E+03 0.  0.
         24    2    5    5    0    0  0.99073272439E+01 -0.11574446438E+03 -0.11012353008E+03  0.17801541967E+03  0.77893270529E+02 0.  0.
          5    1    5    5  501    0  0.22063440729E+01 -0.81179035516E+02  0.46352936324E+02  0.93624721454E+02  0.47000000000E+01 0. -1.
        -11    1    6    6    0    0 -0.26118718842E+02 -0.21799671257E+02 -0.51026600263E+02  0.61328028464E+02  0.00000000000E+00 0.  1.
         12    1    6    6    0    0  0.36026046086E+02 -0.93944793126E+02 -0.59096929816E+02  0.11668739120E+03  0.00000000000E+00 0. -1.
         -5    1    3    3    0  503  0.31560276320E+02 -0.65534851185E+01 -0.23199196466E+02  0.39991148086E+02  0.47000000000E+01 0.  1.
         13    1    4    4    0    0 -0.17206588738E+02  0.49686049703E+02 -0.39759305489E+02  0.65920957245E+02  0.00000000000E+00 0. -1.
        -14    1    4    4    0    0 -0.26467358899E+02  0.15379093531E+03 -0.34204814483E+03  0.37596423533E+03  0.00000000000E+00 0.  1.
</event>
<event>
12    1  0.8563264E-002  0.1741308E+03  0.7818608E-02  0.1173642E+00
         21   -1    0    0  501  502  0.00000000000E+00  0.00000000000E+00  0.12000061307E+03  0.12000061307E+03  0.00000000000E+00 0. -1.
         21   -1    0    0  502  503 -0.00000000000E+00 -0.00000000000E+00 -0.27113919239E+03  0.27113919239E+03  0.00000000000E+00 0. -1.
         -6    2    1    2    0  503 -0.20971051852E+02  0.74385395726E+01 -0.24290215394E+02  0.17581682149E+03  0.17270328100E+03 0.  0.
        -24    2    3    3    0    0 -0.13555345989E+02 -0.11518544122E+02 -0.81059341772E+02  0.11532560374E+03  0.80080919862E+02 0.  0.
          6    2    1    2  501    0  0.20971051852E+02 -0.74385395726E+01 -0.12684836392E+03  0.21532298397E+03  0.17256408406E+03 0.  0.
         24    2    5    5    0    0 -0.11816871188E+02 -0.61297379272E+02 -0.40396630827E+02  0.10821642643E+03  0.78625059729E+02 0.  0.
          5    1    5    5  501    0  0.32787923041E+02  0.53858839699E+02 -0.86451733097E+02  0.10710655753E+03  0.47000000000E+01 0. -1.
        -11    1    6    6    0    0 -0.13805189366E+02 -0.18897036994E+01 -0.46424629220E+02  0.48470614105E+02  0.00000000000E+00 0.  1.
         12    1    6    6    0    0  0.19883181775E+01 -0.59407675572E+02  0.60279983926E+01  0.59745812328E+02  0.00000000000E+00 0. -1.
         -5    1    3    3    0  503 -0.74157058633E+01  0.18957083695E+02  0.56769126377E+02  0.60491217754E+02  0.47000000000E+01 0.  1.
         13    1    4    4    0    0 -0.39872643286E+02 -0.22062776881E+02 -0.72640457995E+02  0.85750976345E+02  0.00000000000E+00 0. -1.
        -14    1    4    4    0    0  0.26317297297E+02  0.10544232758E+02 -0.84188837762E+01  0.29574627395E+02  0.00000000000E+00 0.  1.
</event>
<event>
12    1  0.8563264E-002  0.3116171E+03  0.7818608E-02  0.1079917E+00
         21   -1    0    0  501  502  0.00000000000E+00  0.00000000000E+00  0.45537353555E+03  0.45537353555E+03  0.00000000000E+00 0. -1.
         21   -1    0    0  502  503 -0.00000000000E+00 -0.00000000000E+00 -0.21163184629E+03  0.21163184629E+03  0.00000000000E+00 0.  1.
         -6    2    1    2    0  503 -0.76537896570E+02 -0.24472719655E+03  0.10891707698E+03  0.33010319166E+03  0.17707551255E+03 0.  0.
        -24    2    3    3    0    0 -0.10574464972E+03 -0.11957483715E+03  0.88034820851E+02  0.19981771237E+03  0.81834686238E+02 0.  0.
          6    2    1    2  501    0  0.76537896570E+02  0.24472719655E+03  0.13482461228E+03  0.33690219017E+03  0.17197662435E+03 0.  0.
         24    2    5    5    0    0  0.45134876355E+02  0.13045659170E+03  0.14787653399E+03  0.21758595711E+03  0.80125526813E+02 0.  0.
          5    1    5    5  501    0  0.31403020215E+02  0.11427060485E+03 -0.13051921701E+02  0.11931623306E+03  0.47000000000E+01 0. -1.
        -13    1    6    6    0    0  0.33823340691E+02  0.42224694470E+02  0.12380744542E+02  0.55499784090E+02  0.00000000000E+00 0.  1.
         14    1    6    6    0    0  0.11311535664E+02  0.88231897226E+02  0.13549578944E+03  0.16208617302E+03  0.00000000000E+00 0. -1.
         -5    1    3    3    0  503  0.29206753149E+02 -0.12515235940E+03  0.20882256124E+02  0.13028547929E+03  0.47000000000E+01 0.  1.
         11    1    4    4    0    0 -0.53153146049E+02 -0.79848057701E+02  0.93152099300E+02  0.13370969620E+03  0.00000000000E+00 0. -1.
        -12    1    4    4    0    0 -0.52591503670E+02 -0.39726779451E+02 -0.51172784486E+01  0.66108016175E+02  0.00000000000E+00 0.  1.
</event>
<event>
12    1  0.8563264E-002  0.1895244E+03  0.7818608E-02  0.1161298E+00
         21   -1    0    0  503  502  0.00000000000E+00  0.00000000000E+00  0.50929402505E+02  0.50929402505E+02  0.00000000000E+00 0. -1.
         21   -1    0    0  501  503 -0.00000000000E+00 -0.00000000000E+00 -0.71517258441E+03  0.71517258441E+03  0.00000000000E+00 0. -1.
          6    2    1    2  501    0  0.43486356782E+02 -0.28040147772E+01 -0.42242896447E+03  0.45886653642E+03  0.17381985646E+03 0.  0.
         24    2    3    3    0    0 -0.38676481175E+02  0.26070647896E+02 -0.20891919482E+03  0.22823048152E+03  0.79160431100E+02 0.  0.
         -6    2    1    2    0  502 -0.43486356782E+02  0.28040147772E+01 -0.24181421743E+03  0.30723545049E+03  0.18444668758E+03 0.  0.
        -24    2    5    5    0    0 -0.25763401232E+02 -0.88524852985E+01 -0.23860728912E+02  0.88201685271E+02  0.80424396557E+02 0.  0.
          5    1    3    3  501    0  0.82162837957E+02 -0.28874662674E+02 -0.21350976965E+03  0.23063605490E+03  0.47000000000E+01 0. -1.
        -11    1    4    4    0    0 -0.49504903410E+02  0.16625112866E+02 -0.64007181145E+02  0.82607802764E+02  0.00000000000E+00 0.  1.
         12    1    4    4    0    0  0.10828422235E+02  0.94455350306E+01 -0.14491201367E+03  0.14562267875E+03  0.00000000000E+00 0. -1.
         -5    1    5    5    0  502 -0.17722955550E+02  0.11656500076E+02 -0.21795348852E+03  0.21903376522E+03  0.47000000000E+01 0.  1.
         13    1    6    6    0    0 -0.22466091299E+02  0.18629995230E+02  0.20673907096E+02  0.35766079113E+02  0.00000000000E+00 0. -1.
        -14    1    6    6    0    0 -0.32973099338E+01 -0.27482480528E+02 -0.44534636008E+02  0.52435606158E+02  0.00000000000E+00 0.  1.
</event>
<event>
12    1  0.8563264E-002  0.3161176E+03  0.7818608E-02  0.1077521E+00
         21   -1    0    0  503  502  0.00000000000E+00  0.00000000000E+00  0.26091087636E+03  0.26091087636E+03  0.00000000000E+00 0.  1.
         21   -1    0    0  501  503 -0.00000000000E+00 -0.00000000000E+00 -0.38299315479E+03  0.38299315479E+03  0.00000000000E+00 0. -1.
          6    2    1    2  501    0 -0.78097902699E+02 -0.25287417917E+03 -0.47152505019E+02  0.31961494659E+03  0.17287487515E+03 0.  0.
         24    2    3    3    0    0 -0.10245062911E+03 -0.10004469563E+03 -0.25683318463E+02  0.16330460690E+03  0.74186853680E+02 0.  0.
         -6    2    1    2    0  502  0.78097902699E+02  0.25287417917E+03 -0.74929773416E+02  0.32428908456E+03  0.17176817670E+03 0.  0.
        -24    2    5    5    0    0  0.75010653159E+02  0.93999431175E+02 -0.88732385304E+02  0.16471678510E+03  0.69250934613E+02 0.  0.
          5    1    3    3  501    0  0.24352726410E+02 -0.15282948354E+03 -0.21469186556E+02  0.15631033969E+03  0.47000000000E+01 0. -1.
        -11    1    4    4    0    0 -0.74065178967E+01 -0.55743207799E+02 -0.53233471230E+01  0.56484508918E+02  0.00000000000E+00 0.  1.
         12    1    4    4    0    0 -0.95044111212E+02 -0.44301487835E+02 -0.20359971340E+02  0.10682009798E+03  0.00000000000E+00 0. -1.
         -5    1    5    5    0  502  0.30872495397E+01  0.15887474799E+03  0.13802611888E+02  0.15957229946E+03  0.47000000000E+01 0.  1.
         13    1    6    6    0    0  0.83892500287E+02  0.98019368951E+02 -0.82095658732E+02  0.15292300506E+03  0.00000000000E+00 0. -1.
        -14    1    6    6    0    0 -0.88818471286E+01 -0.40199377758E+01 -0.66367265717E+01  0.11793780044E+02  0.00000000000E+00 0.  1.
</event>
<event>
12    1  0.8563264E-002  0.1949695E+03  0.7818608E-02  0.1154632E+00
         21   -1    0    0  501  502  0.00000000000E+00  0.00000000000E+00  0.17517675308E+04  0.17517675308E+04  0.00000000000E+00 0. -1.
         21   -1    0    0  502  503 -0.00000000000E+00 -0.00000000000E+00 -0.46340769796E+02  0.46340769796E+02  0.00000000000E+00 0. -1.
         -6    2    1    2    0  503  0.70071935535E+02  0.52239991750E+02  0.19593437932E+03  0.27641159309E+03  0.17428136707E+03 0.  0.
        -24    2    3    3    0    0  0.74666054530E+02  0.98818235827E+02  0.15042651899E+03  0.21096165724E+03  0.80849364752E+02 0.  0.
          6    2    1    2  501    0 -0.70071935535E+02 -0.52239991750E+02  0.15094923817E+04  0.15216967075E+04  0.17133162692E+03 0.  0.
         24    2    5    5    0    0  0.62992049067E+01  0.10707443688E+02  0.94173985086E+03  0.94536350789E+03  0.81755036673E+02 0.  0.
          5    1    5    5  501    0 -0.76371140441E+02 -0.62947435438E+02  0.56775253084E+03  0.57633319963E+03  0.47000000000E+01 0. -1.
        -13    1    6    6    0    0 -0.30978149519E+02  0.27821568864E+02  0.48867225251E+03  0.49044291800E+03  0.00000000000E+00 0.  1.
         14    1    6    6    0    0  0.37277354426E+02 -0.17114125176E+02  0.45306759836E+03  0.45492058990E+03  0.00000000000E+00 0. -1.
         -5    1    3    3    0  503 -0.45941189954E+01 -0.46578244078E+02  0.45507860338E+02  0.65449935854E+02  0.47000000000E+01 0.  1.
         11    1    4    4    0    0  0.20608067061E+02  0.84658419717E+02  0.11688335912E+03  0.14578566492E+03  0.00000000000E+00 0. -1.
        -12    1    4    4    0    0  0.54057987469E+02  0.14159816110E+02  0.33543159869E+02  0.65175992324E+02  0.00000000000E+00 0.  1.
</event>
<event>
12    1  0.8563264E-002  0.2169689E+03  0.7818608E-02  0.1137537E+00
         21   -1    0    0  503  502  0.00000000000E+00  0.00000000000E+00  0.35037233646E+03  0.35037233646E+03  0.00000000000E+00 0. -1.
         21   -1    0    0  501  503 -0.00000000000E+00 -0.00000000000E+00 -0.22744686041E+03  0.22744686041E+03  0.00000000000E+00 0.  1.
          6    2    1    2  501    0 -0.77420012813E+01 -0.13200514556E+03 -0.12822350185E+03  0.24592870924E+03  0.16295510599E+03 0.  0.
         24    2    3    3    0    0 -0.58197418079E+02 -0.68090547859E+02 -0.29510554653E+02  0.11787731009E+03  0.70717220097E+02 0.  0.
         -6    2    1    2    0  502  0.77420012813E+01  0.13200514556E+03  0.25114897790E+03  0.33189048762E+03  0.17201799219E+03 0.  0.
        -24    2    5    5    0    0 -0.48057084061E+02  0.12904639951E+03  0.20474936804E+03  0.25910789425E+03  0.79070478648E+02 0.  0.
          5    1    3    3  501    0  0.50455416797E+02 -0.63914597700E+02 -0.98712947193E+02  0.12805139916E+03  0.47000000000E+01 0. -1.
        -11    1    4    4    0    0 -0.55844260877E+02 -0.17999792699E+02 -0.33516315659E+02  0.67571572614E+02  0.00000000000E+00 0.  1.
         12    1    4    4    0    0 -0.23531572013E+01 -0.50090755160E+02  0.40057610066E+01  0.50305737471E+02  0.00000000000E+00 0. -1.
         -5    1    5    5    0  502  0.55799085342E+02  0.29587460446E+01  0.46399609857E+02  0.72782593373E+02  0.47000000000E+01 0.  1.
         13    1    6    6    0    0 -0.43336187758E+02  0.13008774257E+03  0.14649401516E+03  0.20065229232E+03  0.00000000000E+00 0. -1.
        -14    1    6    6    0    0 -0.47208963031E+01 -0.10413430574E+01  0.58255352886E+02  0.58455601931E+02  0.00000000000E+00 0.  1.
</event>
<event>
12    1  0.8563264E-002  0.2084555E+03  0.7818608E-02  0.1142829E+00
         21   -1    0    0  503  502  0.00000000000E+00  0.00000000000E+00  0.12589513372E+03  0.12589513372E+03  0.00000000000E+00 0. -1.
         21   -1    0    0  501  503 -0.00000000000E+00 -0.00000000000E+00 -0.13317562948E+04  0.13317562948E+04  0.00000000000E+00 0. -1.
          6    2    1    2  501    0 -0.70470923645E+01 -0.11757904005E+03 -0.12303926613E+04  0.12479262003E+04  0.17198606957E+03 0.  0.
         24    2    3    3    0    0 -0.51649571458E+02 -0.19248430437E+02 -0.52805670663E+03  0.53732351720E+03  0.82671013186E+02 0.  0.
         -6    2    1    2    0  502  0.70470923645E+01  0.11757904005E+03  0.24531500224E+02  0.20972522827E+03  0.17178004745E+03 0.  0.
        -24    2    5    5    0    0 -0.38099616078E+02  0.37906299975E+02  0.57047886004E+02  0.11243506362E+03  0.80614601101E+02 0.  0.
          5    1    3    3  501    0  0.44602479093E+02 -0.98330609608E+02 -0.70233595472E+03  0.71060268310E+03  0.47000000000E+01 0. -1.
        -11    1    4    4    0    0 -0.15778356073E+01 -0.42767226597E+02 -0.18910906651E+03  0.19389111448E+03  0.00000000000E+00 0.  1.
         12    1    4    4    0    0 -0.50071735850E+02  0.23518796160E+02 -0.33894764011E+03  0.34343240273E+03  0.00000000000E+00 0. -1.
         -5    1    5    5    0  502  0.45146708442E+02  0.79672740071E+02 -0.32516385781E+02  0.97290164651E+02  0.47000000000E+01 0.  1.
         13    1    6    6    0    0 -0.45197926752E+02 -0.27974270624E+00  0.58063096103E+02  0.73581614332E+02  0.00000000000E+00 0. -1.
        -14    1    6    6    0    0  0.70983106744E+01  0.38186042681E+02 -0.10152100982E+01  0.38853449288E+02  0.00000000000E+00 0.  1.
</event>
<event>
12    1  0.8563264E-002  0.1859410E+03  0.7818608E-02  0.1163267E+00
         21   -1    0    0  501  502  0.00000000000E+00  0.00000000000E+00  0.12308764927E+03  0.12308764927E+03  0.00000000000E+00 0. -1.
         21   -1    0    0  502  503 -0.00000000000E+00 -0.00000000000E+00 -0.28043159072E+03  0.28043159072E+03  0.00000000000E+00 0. -1.
         -6    2    1    2    0  503 -0.56178458346E+00  0.60061571939E+02 -0.10846636821E+03  0.21126137343E+03  0.17105176656E+03 0.  0.
        -24    2    3    3    0    0 -0.65771227559E+02  0.43011201237E+02 -0.79401812489E+02  0.13770986091E+03  0.80520433179E+02 0.  0.
          6    2    1    2  501    0  0.56178458346E+00 -0.60061571939E+02 -0.48877573236E+02  0.19225786656E+03  0.17597261737E+03 0.  0.
         24    2    5    5    0    0  0.31425880811E+02  0.55534150304E+01 -0.74608523994E+02  0.11517290838E+03  0.81730903389E+02 0.  0.
          5    1    5    5  501    0 -0.30864096228E+02 -0.65614986970E+02  0.25730950758E+02  0.77084958182E+02  0.47000000000E+01 0. -1.
        -11    1    6    6    0    0 -0.61672089792E+01  0.37233525709E+02 -0.24623196862E+02  0.45062975124E+02  0.00000000000E+00 0.  1.
         12    1    6    6    0    0  0.37593089790E+02 -0.31680110679E+02 -0.49985327132E+02  0.70109933255E+02  0.00000000000E+00 0. -1.
         -5    1    3    3    0  503  0.65209442976E+02  0.17050370702E+02 -0.29064555723E+02  0.73551512518E+02  0.47000000000E+01 0.  1.
         11    1    4    4    0    0 -0.56245115057E+02 -0.11184450059E+02 -0.37073683396E+02  0.68286623078E+02  0.00000000000E+00 0. -1.
        -12    1    4    4    0    0 -0.95261125026E+01  0.54195651296E+02 -0.42328129093E+02  0.69423237834E+02  0.00000000000E+00 0.  1.
</event>
<event>
12    1  0.8563264E-002  0.2484103E+03  0.7818608E-02  0.1114391E+00
         21   -1    0    0  503  502  0.00000000000E+00  0.00000000000E+00  0.26511500436E+03  0.26511500436E+03  0.00000000000E+00 0. -1.
         21   -1    0    0  501  503 -0.00000000000E+00 -0.00000000000E+00 -0.31746725113E+03  0.31746725113E+03  0.00000000000E+00 0.  1.
          6    2    1    2  501    0 -0.12570171519E+02  0.17839644254E+03  0.12471348602E+03  0.27752498072E+03  0.17170719672E+03 0.  0.
         24    2    3    3    0    0  0.63167531397E+01  0.20106501635E+03  0.11968808744E+03  0.24722770703E+03  0.79556638186E+02 0.  0.
         -6    2    1    2    0  502  0.12570171519E+02 -0.17839644254E+03 -0.17706573278E+03  0.30505727477E+03  0.17240756143E+03 0.  0.
        -24    2    5    5    0    0 -0.49942947346E+02 -0.13344777169E+03 -0.15405588708E+03  0.22455997021E+03  0.79945969992E+02 0.  0.
          5    1    3    3  501    0 -0.18886924658E+02 -0.22668573811E+02  0.50253985761E+01  0.30297273682E+02  0.47000000000E+01 0. -1.
        -13    1    4    4    0    0  0.38261898316E+02  0.77741256873E+02  0.31097346612E+02  0.92058247046E+02  0.00000000000E+00 0.  1.
         14    1    4    4    0    0 -0.31945145177E+02  0.12332375948E+03  0.88590740828E+02  0.15516945999E+03  0.00000000000E+00 0. -1.
         -5    1    5    5    0  502  0.62513118865E+02 -0.44948670854E+02 -0.23009845703E+02  0.80497304557E+02  0.47000000000E+01 0.  1.
         11    1    6    6    0    0 -0.25141626779E+02 -0.69351020208E+02 -0.24195930934E+02  0.77634454173E+02  0.00000000000E+00 0. -1.
        -12    1    6    6    0    0 -0.24801320567E+02 -0.64096751480E+02 -0.12985995615E+03  0.14692551604E+03  0.00000000000E+00 0.  1.
</event>
<event>
12    1  0.8563264E-002  0.2286801E+03  0.7818608E-02  0.1127796E+00
         21   -1    0    0  501  502  0.00000000000E+00  0.00000000000E+00  0.44817933166E+03  0.44817933166E+03  0.00000000000E+00 0. -1.
         21   -1    0    0  502  503 -0.00000000000E+00 -0.00000000000E+00 -0.37127239848E+03  0.37127239848E+03  0.00000000000E+00 0. -1.
         -6    2    1    2    0  503  0.13825840532E+03 -0.46372408943E+02 -0.30122771324E+03  0.37819664281E+03  0.17614987500E+03 0.  0.
        -24    2    3    3    0    0  0.15723655119E+03 -0.14904069165E+02 -0.29036447117E+03  0.33958930598E+03  0.77871087769E+02 0.  0.
          6    2    1    2  501    0 -0.13825840532E+03  0.46372408943E+02  0.37813464642E+03  0.44125508733E+03  0.17451204636E+03 0.  0.
         24    2    5    5    0    0 -0.16068147813E+03  0.47585523569E+02  0.25150617866E+03  0.31256505397E+03  0.79741053351E+02 0.  0.
          5    1    5    5  501    0  0.22423072815E+02 -0.12131146262E+01  0.12662846775E+03  0.12869003336E+03  0.47000000000E+01 0. -1.
        -13    1    6    6    0    0 -0.72845160994E+02  0.53698758062E+02  0.84725792986E+02  0.12396948856E+03  0.00000000000E+00 0.  1.
         14    1    6    6    0    0 -0.87836317137E+02 -0.61132344925E+01  0.16678038568E+03  0.18859556541E+03  0.00000000000E+00 0. -1.
         -5    1    3    3    0  503 -0.18978145877E+02 -0.31468339778E+02 -0.10863242071E+02  0.38607336836E+02  0.47000000000E+01 0.  1.
         13    1    4    4    0    0  0.58040488668E+02 -0.43273627296E+02 -0.10698669648E+03  0.12917994569E+03  0.00000000000E+00 0. -1.
        -14    1    4    4    0    0  0.99196062525E+02  0.28369558131E+02 -0.18337777468E+03  0.21040936029E+03  0.00000000000E+00 0.  1.
</event>
<event>
12    1  0.8563264E-002  0.1793826E+03  0.7818608E-02  0.1168521E+00
         21   -1    0    0  503  502  0.00000000000E+00  0.00000000000E+00  0.49040419090E+02  0.49040419090E+02  0.00000000000E+00 0.  1.
         21   -1    0    0  501  503 -0.00000000000E+00 -0.00000000000E+00 -0.10801409009E+04  0.10801409009E+04  0.00000000000E+00 0.  1.
          6    2    1    2  501    0 -0.41778731311E+02  0.24815197996E+02 -0.87044706153E+03  0.88873855414E+03  0.17267563303E+03 0.  0.
         24    2    3    3    0    0 -0.40629257841E+02 -0.40367170529E+02 -0.32113403668E+03  0.33555056464E+03  0.78656639046E+02 0.  0.
         -6    2    1    2    0  502  0.41778731311E+02 -0.24815197996E+02 -0.16065342030E+03  0.24044276588E+03  0.17216836459E+03 0.  0.
        -24    2    5    5    0    0  0.25783972648E+02 -0.33513267348E+02 -0.18713776086E+03  0.20796201758E+03  0.80247784299E+02 0.  0.
          5    1    3    3  501    0 -0.11494734708E+01  0.65182368525E+02 -0.54931302485E+03  0.55318798950E+03  0.47000000000E+01 0. -1.
        -13    1    4    4    0    0 -0.22633934377E+02  0.75880463838E+01 -0.22812347792E+03  0.22936912306E+03  0.00000000000E+00 0.  1.
         14    1    4    4    0    0 -0.17995323463E+02 -0.47955216913E+02 -0.93010558757E+02  0.10618144158E+03  0.00000000000E+00 0. -1.
         -5    1    5    5    0  502  0.15994758663E+02  0.86980693518E+01  0.26484340553E+02  0.32480748293E+02  0.47000000000E+01 0.  1.
         11    1    6    6    0    0 -0.21361997191E+01  0.24839995545E+02 -0.67467057946E+02  0.71926300029E+02  0.00000000000E+00 0. -1.
        -12    1    6    6    0    0  0.27920172368E+02 -0.58353262894E+02 -0.11967070291E+03  0.13603571755E+03  0.00000000000E+00 0.  1.
</event>
<event>
12    1  0.8563264E-002  0.2858356E+03  0.7818608E-02  0.1092907E+00
         21   -1    0    0  503  502  0.00000000000E+00  0.00000000000E+00  0.84960182294E+02  0.84960182294E+02  0.00000000000E+00 0. -1.
         21   -1    0    0  501  503 -0.00000000000E+00 -0.00000000000E+00 -0.97320176406E+03  0.97320176406E+03  0.00000000000E+00 0. -1.
          6    2    1    2  501    0 -0.10322635081E+03 -0.20321001005E+03 -0.51914388654E+03  0.59132672346E+03  0.16794919249E+03 0.  0.
         24    2    3    3    0    0 -0.10177545231E+03 -0.12274416617E+03 -0.45523505121E+03  0.48845162262E+03  0.76952340933E+02 0.  0.
         -6    2    1    2    0  502  0.10322635081E+03  0.20321001005E+03 -0.36909769522E+03  0.46683522289E+03  0.17248776487E+03 0.  0.
        -24    2    5    5    0    0  0.12889765808E+03  0.16013638528E+03 -0.22861646087E+03  0.31759910002E+03  0.79658232461E+02 0.  0.
          5    1    3    3  501    0 -0.14508985004E+01 -0.80465843883E+02 -0.63908835338E+02  0.10287510084E+03  0.47000000000E+01 0. -1.
        -13    1    4    4    0    0 -0.27745773532E+02 -0.69605109220E+01 -0.16330874975E+03  0.16579512781E+03  0.00000000000E+00 0.  1.
         14    1    4    4    0    0 -0.74029678782E+02 -0.11578365524E+03 -0.29192630146E+03  0.32265649481E+03  0.00000000000E+00 0. -1.
         -5    1    5    5    0  502 -0.25671307265E+02  0.43073624766E+02 -0.14048123435E+03  0.14923612287E+03  0.47000000000E+01 0.  1.
         11    1    6    6    0    0  0.40374384322E+02  0.35610693321E+01 -0.45053627373E+02  0.60601992241E+02  0.00000000000E+00 0. -1.
        -12    1    6    6    0    0  0.88523273758E+02  0.15657531595E+03 -0.18356283350E+03  0.25699710777E+03  0.00000000000E+00 0.  1.
</event>
<event>
12    1  0.8563264E-002  0.2457744E+03  0.7818608E-02  0.1116274E+00
         21   -1    0    0  501  502  0.00000000000E+00  0.00000000000E+00  0.77858979152E+02  0.77858979152E+02  0.00000000000E+00 0. -1.
         21   -1    0    0  502  503 -0.00000000000E+00 -0.00000000000E+00 -0.83728867919E+03  0.83728867919E+03  0.00000000000E+00 0.  1.
         -6    2    1    2    0  503  0.12999971608E+03 -0.11653212712E+03 -0.50767867512E+03  0.56331867464E+03  0.17061837294E+03 0.  0.
        -24    2    3    3    0    0  0.19995000207E+02 -0.56884562425E+01 -0.23619743061E+03  0.25009110080E+03  0.79524674818E+02 0.  0.
          6    2    1    2  501    0 -0.12999971608E+03  0.11653212712E+03 -0.25175102492E+03  0.35182898371E+03  0.17298957309E+03 0.  0.
         24    2    5    5    0    0 -0.40001213317E+02  0.74405669292E+02 -0.33769468238E+02  0.11222009823E+03  0.65701390940E+02 0.  0.
          5    1    5    5  501    0 -0.89998502762E+02  0.42126457831E+02 -0.21798155668E+03  0.23960888548E+03  0.47000000000E+01 0. -1.
        -11    1    6    6    0    0  0.10947350977E+02 -0.28857159002E+01  0.43200304264E+01  0.12117529144E+02  0.00000000000E+00 0.  1.
         12    1    6    6    0    0 -0.50948564294E+02  0.77291385193E+02 -0.38089498665E+02  0.10010256908E+03  0.00000000000E+00 0. -1.
         -5    1    3    3    0  503  0.11000471587E+03 -0.11084367088E+03 -0.27148124451E+03  0.31322757383E+03  0.47000000000E+01 0.  1.
         11    1    4    4    0    0  0.18477280133E+02 -0.89481358109E+01 -0.24221370853E+03  0.24308220752E+03  0.00000000000E+00 0. -1.
        -12    1    4    4    0    0  0.15177200742E+01  0.32596795684E+01  0.60162779126E+01  0.70088932817E+01  0.00000000000E+00 0.  1.
</event>
<event>
12    1  0.8563264E-002  0.2081145E+03  0.7818608E-02  0.1143886E+00
         21   -1    0    0  501  502  0.00000000000E+00  0.00000000000E+00  0.14150865162E+03  0.14150865162E+03  0.00000000000E+00 0.  1.
         21   -1    0    0  502  503 -0.00000000000E+00 -0.00000000000E+00 -0.54514866735E+03  0.54514866735E+03  0.00000000000E+00 0. -1.
         -6    2    1    2    0  503  0.73983802422E+02 -0.80488660568E+02 -0.43306512548E+03  0.48047585782E+03  0.17708647476E+03 0.  0.
        -24    2    3    3    0    0  0.73053416053E+02 -0.45553524541E+02 -0.42888584614E+03  0.44496690509E+03  0.81489584690E+02 0.  0.
          6    2    1    2  501    0 -0.73983802422E+02  0.80488660568E+02  0.29425109742E+02  0.20618146115E+03  0.17231636701E+03 0.  0.
         24    2    5    5    0    0  0.41452707215E+01 -0.45214479458E+01  0.38450295195E+02  0.90274539046E+02  0.81445935678E+02 0.  0.
          5    1    5    5  501    0 -0.78129073143E+02  0.85010108514E+02 -0.90251854531E+01  0.11590692211E+03  0.47000000000E+01 0. -1.
        -13    1    6    6    0    0 -0.21182929628E+02 -0.13363646440E+02  0.53815731870E+02  0.59358542355E+02  0.00000000000E+00 0.  1.
         14    1    6    6    0    0  0.25328200350E+02  0.88421984943E+01 -0.15365436676E+02  0.30915996691E+02  0.00000000000E+00 0. -1.
         -5    1    3    3    0  503  0.93038636849E+00 -0.34935136027E+02 -0.41792793368E+01  0.35508952727E+02  0.47000000000E+01 0.  1.
         11    1    4    4    0    0  0.17137231966E+02  0.23835353947E+02 -0.99718729686E+02  0.10395015088E+03  0.00000000000E+00 0. -1.
        -12    1    4    4    0    0  0.55916184087E+02 -0.69388878488E+02 -0.32916711645E+03  0.34101675422E+03  0.00000000000E+00 0.  1.
</event>
<event>
12    1  0.8563264E-002  0.1917346E+03  0.7818608E-02  0.1157000E+00
         21   -1    0    0  501  502  0.00000000000E+00  0.00000000000E+00  0.67366631739E+03  0.67366631739E+03  0.00000000000E+00 0. -1.
         21   -1    0    0  502  503 -0.00000000000E+00 -0.00000000000E+00 -0.93942528838E+02  0.93942528838E+02  0.00000000000E+00 0. -1.
         -6    2    1    2    0  503 -0.24845369276E+02  0.82596796577E+02  0.40831430055E+02  0.19562358001E+03  0.17076842856E+03 0.  0.
        -24    2    3    3    0    0 -0.39237257285E+02  0.10887161150E+03 -0.49521198717E+01  0.14070804683E+03  0.79885172600E+02 0.  0.
          6    2    1    2  501    0  0.24845369276E+02 -0.82596796577E+02  0.53889235849E+03  0.57198526622E+03  0.17123856911E+03 0.  0.
         24    2    5    5    0    0  0.42272964414E+02 -0.65538539689E+02  0.53619289326E+03  0.54700362671E+03  0.75018965202E+02 0.  0.
          5    1    5    5  501    0 -0.17427595139E+02 -0.17058256887E+02  0.26994652334E+01  0.24981639516E+02  0.47000000000E+01 0. -1.
        -13    1    6    6    0    0  0.27391632933E+01 -0.67613879561E+02  0.30202279810E+03  0.30951075958E+03  0.00000000000E+00 0.  1.
         14    1    6    6    0    0  0.39533801121E+02  0.20753398716E+01  0.23417009517E+03  0.23749286713E+03  0.00000000000E+00 0. -1.
         -5    1    3    3    0  503  0.14391888009E+02 -0.26274814926E+02  0.45783549927E+02  0.54915533174E+02  0.47000000000E+01 0.  1.
         11    1    4    4    0    0 -0.13651465889E+02  0.83755082447E+01  0.27691530638E+02  0.31989569055E+02  0.00000000000E+00 0. -1.
        -12    1    4    4    0    0 -0.25585791396E+02  0.10049610326E+03 -0.32643650509E+02  0.10871847778E+03  0.00000000000E+00 0.  1.
</event>
<event>
12    1  0.8563264E-002  0.1861866E+03  0.7818608E-02  0.1162919E+00
         21   -1    0    0  501  502  0.00000000000E+00  0.00000000000E+00  0.26679411223E+02  0.26679411223E+02  0.00000000000E+00 0.  1.
         21   -1    0    0  502  503 -0.00000000000E+00 -0.00000000000E+00 -0.14487767313E+04  0.14487767313E+04  0.00000000000E+00 0.  1.
         -6    2    1    2    0  503 -0.59205936038E+02  0.61692951584E-01 -0.45932208666E+03  0.49562306513E+03  0.17652222730E+03 0.  0.
        -24    2    3    3    0    0 -0.48535396813E+02  0.69077743238E+02 -0.28707777328E+03  0.30970031479E+03  0.79832435221E+02 0.  0.
          6    2    1    2  501    0  0.59205936038E+02 -0.61692951584E-01 -0.96277523342E+03  0.97983307739E+03  0.17213762750E+03 0.  0.
         24    2    5    5    0    0  0.15118481355E+02  0.25550147033E+00 -0.20272654761E+03  0.21849222136E+03  0.80075988456E+02 0.  0.
          5    1    5    5  501    0  0.44087454683E+02 -0.31719442192E+00 -0.76004868581E+03  0.76134085604E+03  0.47000000000E+01 0. -1.
        -13    1    6    6    0    0  0.34268361809E+02  0.48582740165E+01 -0.19380368930E+03  0.19686999120E+03  0.00000000000E+00 0.  1.
         14    1    6    6    0    0 -0.19149880454E+02 -0.46027725462E+01 -0.89228583074E+01  0.21622230155E+02  0.00000000000E+00 0. -1.
         -5    1    3    3    0  503 -0.10670539225E+02 -0.69016050286E+02 -0.17224431338E+03  0.18592275035E+03  0.47000000000E+01 0.  1.
         13    1    4    4    0    0  0.13820170227E+02  0.38862283170E+02 -0.15689065421E+03  0.16222192064E+03  0.00000000000E+00 0. -1.
        -14    1    4    4    0    0 -0.62355567040E+02  0.30215460068E+02 -0.13018711907E+03  0.14747839414E+03  0.00000000000E+00 0.  1.
</event>
<event>
12    1  0.8563264E-002  0.1985886E+03  0.7818608E-02  0.1151605E+00
         21   -1    0    0  503  502  0.00000000000E+00  0.00000000000E+00  0.14915143023E+02  0.14915143023E+02  0.00000000000E+00 0. -1.
         21   -1    0    0  501  503 -0.00000000000E+00 -0.00000000000E+00 -0.26027746259E+04  0.26027746259E+04  0.00000000000E+00 0. -1.
          6    2    1    2  501    0  0.95164201154E+02 -0.25566068556E+02 -0.13015696966E+04  0.13166324937E+04  0.17241693437E+03 0.  0.
         24    2    3    3    0    0  0.58548761914E+01  0.16969920385E+02 -0.32523671990E+03  0.33528972111E+03  0.79485944274E+02 0.  0.
         -6    2    1    2    0  502 -0.95164201154E+02  0.25566068556E+02 -0.12862897863E+04  0.13010572752E+04  0.16881578761E+03 0.  0.
        -24    2    5    5    0    0 -0.83962841970E+02  0.64728519757E+02 -0.11130974998E+04  0.11230774277E+04  0.10524886926E+03 0.  0.
          5    1    3    3  501    0  0.89309324963E+02 -0.42535988941E+02 -0.97633297674E+03  0.98134277261E+03  0.47000000000E+01 0. -1.
        -11    1    4    4    0    0  0.57761062551E+01 -0.23109956302E+02 -0.23911261413E+03  0.24029622494E+03  0.00000000000E+00 0.  1.
         12    1    4    4    0    0  0.78769936257E-01  0.40079876687E+02 -0.86124105766E+02  0.94993496166E+02  0.00000000000E+00 0. -1.
         -5    1    5    5    0  502 -0.11201359184E+02 -0.39162451201E+02 -0.17319228647E+03  0.17797984752E+03  0.47000000000E+01 0.  1.
         13    1    6    6    0    0  0.14676247398E+02 -0.15765402799E+02 -0.13037260346E+03  0.13213991031E+03  0.00000000000E+00 0. -1.
        -14    1    6    6    0    0 -0.98639089368E+02  0.80493922557E+02 -0.98272489633E+03  0.99093751740E+03  0.00000000000E+00 0.  1.
</event>
<event>
12    1  0.8563264E-002  0.1940484E+03  0.7818608E-02  0.1155827E+00
         21   -1    0    0  501  502  0.00000000000E+00  0.00000000000E+00  0.50009322094E+03  0.50009322094E+03  0.00000000000E+00 0. -1.
         21   -1    0    0  502  503 -0.00000000000E+00 -0.00000000000E+00 -0.89544977416E+02  0.89544977416E+02  0.00000000000E+00 0. -1.
         -6    2    1    2    0  503 -0.34326013731E+01  0.89909596879E+02  0.32770051079E+03  0.37864410012E+03  0.16699763897E+03 0.  0.
        -24    2    3    3    0    0  0.26559787854E+02  0.11756573204E+03  0.23152618498E+03  0.27406878675E+03  0.83559570702E+02 0.  0.
          6    2    1    2  501    0  0.34326013731E+01 -0.89909596879E+02  0.82847732738E+02  0.21099409824E+03  0.17192802072E+03 0.  0.
         24    2    5    5    0    0  0.36569332858E+02 -0.13343179429E+02 -0.33340959518E+01  0.90953035050E+02  0.82133926279E+02 0.  0.
          5    1    5    5  501    0 -0.33136731485E+02 -0.76566417450E+02  0.86181828690E+02  0.12004106319E+03  0.47000000000E+01 0. -1.
        -13    1    6    6    0    0  0.42881198735E+02  0.13183517341E+02  0.25224798400E+02  0.51467395395E+02  0.00000000000E+00 0.  1.
         14    1    6    6    0    0 -0.63118658762E+01 -0.26526696770E+02 -0.28558894352E+02  0.39485639655E+02  0.00000000000E+00 0. -1.
         -5    1    3    3    0  503 -0.29992389227E+02 -0.27656135157E+02  0.96174325805E+02  0.10457531338E+03  0.47000000000E+01 0.  1.
         13    1    4    4    0    0  0.56166727347E+02  0.79173938010E+02  0.16967273936E+03  0.19547903264E+03  0.00000000000E+00 0. -1.
        -14    1    4    4    0    0 -0.29606939493E+02  0.38391794026E+02  0.61853445622E+02  0.78589754103E+02  0.00000000000E+00 0.  1.
</event>
<event>
12    1  0.8563264E-002  0.1862757E+03  0.7818608E-02  0.1162070E+00
         21   -1    0    0  503  502  0.00000000000E+00  0.00000000000E+00  0.41779052087E+03  0.41779052087E+03  0.00000000000E+00 0. -1.
         21   -1    0    0  501  503 -0.00000000000E+00 -0.00000000000E+00 -0.56123767126E+03  0.56123767126E+03  0.00000000000E+00 0. -1.
          6    2    1    2  501    0 -0.52736032894E+02  0.48011972498E+02 -0.52378034703E+03  0.55591770663E+03  0.17208255561E+03 0.  0.
         24    2    3    3    0    0  0.64919374318E+01  0.82572782369E+02 -0.29877875435E+03  0.32065145585E+03  0.81781430960E+02 0.  0.
         -6    2    1    2    0  502  0.52736032894E+02 -0.48011972498E+02  0.38033319663E+03  0.42311048549E+03  0.17112248188E+03 0.  0.
        -24    2    5    5    0    0  0.96195268293E+02 -0.14721186766E+02  0.29601019999E+03  0.32246536977E+03  0.83015861254E+02 0.  0.
          5    1    3    3  501    0 -0.59227970326E+02 -0.34560809871E+02 -0.22500159268E+03  0.23526625078E+03  0.47000000000E+01 0. -1.
        -11    1    4    4    0    0  0.14686779545E+02  0.29631100875E+02 -0.24416914385E+02  0.41108263652E+02  0.00000000000E+00 0.  1.
         12    1    4    4    0    0 -0.81948421128E+01  0.52941681494E+02 -0.27436183996E+03  0.27954319220E+03  0.00000000000E+00 0. -1.
         -5    1    5    5    0  502 -0.43459235400E+02 -0.33290785733E+02  0.84322996646E+02  0.10064511573E+03  0.47000000000E+01 0.  1.
         13    1    6    6    0    0 -0.13410676758E+02 -0.12265252837E+02  0.37670787817E+02  0.41825481862E+02  0.00000000000E+00 0. -1.
        -14    1    6    6    0    0  0.10960594505E+03 -0.24559339291E+01  0.25833941217E+03  0.28063988790E+03  0.00000000000E+00 0.  1.
</event>
<event>
12    1  0.8563264E-002  0.1932953E+03  0.7818608E-02  0.1155818E+00
         21   -1    0    0  503  502  0.00000000000E+00  0.00000000000E+00  0.41535847357E+03  0.41535847357E+03  0.00000000000E+00 0. -1.
         21   -1    0    0  501  503 -0.00000000000E+00 -0.00000000000E+00 -0.90595897541E+02  0.90595897541E+02  0.00000000000E+00 0.  1.
          6    2    1    2  501    0 -0.65439756647E+02 -0.59582089089E+02  0.13196011136E+03  0.23294178552E+03  0.17034088576E+03 0.  0.
         24    2    3    3    0    0 -0.10955926031E+03 -0.36726162762E+02  0.84640730666E+02  0.16416578854E+03  0.80214152659E+02 0.  0.
         -6    2    1    2    0  502  0.65439756647E+02  0.59582089089E+02  0.19280246467E+03  0.27301258559E+03  0.17184497205E+03 0.  0.
        -24    2    5    5    0    0  0.78596860474E+02  0.40496103125E+01  0.57230513488E+02  0.12584326295E+03  0.79795547090E+02 0.  0.
          5    1    3    3  501    0  0.44119503665E+02 -0.22855926327E+02  0.47319380698E+02  0.68775996987E+02  0.47000000000E+01 0. -1.
        -11    1    4    4    0    0 -0.73481534169E+02  0.14837483626E+02  0.29726265623E+02  0.80643274066E+02  0.00000000000E+00 0.  1.
         12    1    4    4    0    0 -0.36077726142E+02 -0.51563646388E+02  0.54914465043E+02  0.83522514470E+02  0.00000000000E+00 0. -1.
         -5    1    5    5    0  502 -0.13157103827E+02  0.55532478777E+02  0.13557195118E+03  0.14716932264E+03  0.47000000000E+01 0.  1.
         11    1    6    6    0    0  0.43414980308E+02 -0.32464658716E+02  0.51571811863E+02  0.74822899967E+02  0.00000000000E+00 0. -1.
        -12    1    6    6    0    0  0.35181880165E+02  0.36514269029E+02  0.56587016251E+01  0.51020362981E+02  0.00000000000E+00 0.  1.
</event>
<event>
12    1  0.8563264E-002  0.1744348E+03  0.7818608E-02  0.1173467E+00
         21   -1    0    0  501  502  0.00000000000E+00  0.00000000000E+00  0.27264603010E+03  0.27264603010E+03  0.00000000000E+00 0. -1.
         21   -1    0    0  502  503 -0.00000000000E+00 -0.00000000000E+00 -0.12783706334E+03  0.12783706334E+03  0.00000000000E+00 0. -1.
         -6    2    1    2    0  503  0.11248362097E+01 -0.30464356326E+02  0.24275755918E+00  0.17443495923E+03  0.17175026581E+03 0.  0.
        -24    2    3    3    0    0 -0.14564731098E+02  0.34747991145E+01  0.61684393974E+02  0.10235726864E+03  0.80298445586E+02 0.  0.
          6    2    1    2  501    0 -0.11248362097E+01  0.30464356326E+02  0.14456620921E+03  0.22604813421E+03  0.17108193322E+03 0.  0.
         24    2    5    5    0    0 -0.49709335395E+02 -0.24441222407E+02  0.59824625903E+02  0.11389510448E+03  0.79528093035E+02 0.  0.
          5    1    5    5  501    0  0.48584499185E+02  0.54905578733E+02  0.84741583303E+02  0.11215302973E+03  0.47000000000E+01 0. -1.
        -13    1    6    6    0    0  0.16422655608E+02  0.26999469639E+01  0.34060230382E+02  0.37909004531E+02  0.00000000000E+00 0.  1.
         14    1    6    6    0    0 -0.66131991003E+02 -0.27141169371E+02  0.25764395521E+02  0.75986099949E+02  0.00000000000E+00 0. -1.
         -5    1    3    3    0  503  0.15689567308E+02 -0.33939155440E+02 -0.61441636415E+02  0.72077690582E+02  0.47000000000E+01 0.  1.
         13    1    4    4    0    0  0.28696128536E+02 -0.14282702152E+02  0.38698834026E+02  0.50250006255E+02  0.00000000000E+00 0. -1.
        -14    1    4    4    0    0 -0.43260859634E+02  0.17757501267E+02  0.22985559949E+02  0.52107262389E+02  0.00000000000E+00 0.  1.
</event>
<event>
12    1  0.8563264E-002  0.1936962E+03  0.7818608E-02  0.1155658E+00
         21   -1    0    0  501  502  0.00000000000E+00  0.00000000000E+00  0.65562278829E+03  0.65562278829E+03  0.00000000000E+00 0.  1.
         21   -1    0    0  502  503 -0.00000000000E+00 -0.00000000000E+00 -0.20109832145E+03  0.20109832145E+03  0.00000000000E+00 0.  1.
         -6    2    1    2    0  503 -0.69058127949E+02 -0.45692601565E+02 -0.13624443836E+03  0.23500886042E+03  0.17265508570E+03 0.  0.
        -24    2    3    3    0    0  0.24518101562E+02 -0.17843864982E+02 -0.97684971766E+02  0.12993276740E+03  0.80128830732E+02 0.  0.
          6    2    1    2  501    0  0.69058127949E+02  0.45692601565E+02  0.59076890520E+03  0.62171224932E+03  0.17510391981E+03 0.  0.
         24    2    5    5    0    0  0.88770273667E+02  0.80199925227E+02  0.36747073589E+03  0.39485659810E+03  0.81023464710E+02 0.  0.
          5    1    5    5  501    0 -0.19712145718E+02 -0.34507323662E+02  0.22329816931E+03  0.22685565122E+03  0.47000000000E+01 0. -1.
        -13    1    6    6    0    0  0.35673472538E+02  0.14994390980E+02  0.23348048334E+03  0.23666551186E+03  0.00000000000E+00 0.  1.
         14    1    6    6    0    0  0.53096801129E+02  0.65205534248E+02  0.13399025255E+03  0.15819108623E+03  0.00000000000E+00 0. -1.
         -5    1    3    3    0  503 -0.93576229511E+02 -0.27848736583E+02 -0.38559466593E+02  0.10507609301E+03  0.47000000000E+01 0.  1.
         13    1    4    4    0    0  0.29351827771E+02  0.12075321991E+02 -0.46396939527E+01  0.32076002785E+02  0.00000000000E+00 0. -1.
        -14    1    4    4    0    0 -0.48337262089E+01 -0.29919186973E+02 -0.93045277813E+02  0.97856764618E+02  0.00000000000E+00 0.  1.
</event>
<event>
12    1  0.8563264E-002  0.3078644E+03  0.7818608E-02  0.1081852E+00
         21   -1    0    0  501  502  0.00000000000E+00  0.00000000000E+00  0.44125291462E+03  0.44125291462E+03  0.00000000000E+00 0.  1.
         21   -1    0    0  502  503 -0.00000000000E+00 -0.00000000000E+00 -0.31236313466E+03  0.31236313466E+03  0.00000000000E+00 0.  1.
         -6    2    1    2    0  503 -0.23673263813E+03 -0.86475626669E+02 -0.14934827611E+03  0.33864991332E+03  0.16987783920E+03 0.  0.
        -24    2    3    3    0    0 -0.10865787408E+03  0.15547060922E+02 -0.10104389469E+03  0.16786590577E+03  0.76947052988E+02 0.  0.
          6    2    1    2  501    0  0.23673263813E+03  0.86475626669E+02  0.27823805608E+03  0.41496613597E+03  0.17680526629E+03 0.  0.
         24    2    5    5    0    0  0.88296625535E+02 -0.35370678154E+02  0.10073448163E+03  0.15341426583E+03  0.65887193106E+02 0.  0.
          5    1    5    5  501    0  0.14843601259E+03  0.12184630482E+03  0.17750357444E+03  0.26155187014E+03  0.47000000000E+01 0. -1.
        -13    1    6    6    0    0  0.62662467871E+02  0.78252060170E+01  0.40657242897E+02  0.75105460048E+02  0.00000000000E+00 0.  1.
         14    1    6    6    0    0  0.25634157663E+02 -0.43195884171E+02  0.60077238735E+02  0.78308805779E+02  0.00000000000E+00 0. -1.
         -5    1    3    3    0  503 -0.12807476405E+03 -0.10202268759E+03 -0.48304381421E+02  0.17078400755E+03  0.47000000000E+01 0.  1.
         11    1    4    4    0    0 -0.47546008140E+02  0.86144534912E+01  0.14418960187E+01  0.48341604888E+02  0.00000000000E+00 0. -1.
        -12    1    4    4    0    0 -0.61111865937E+02  0.69326074303E+01 -0.10248579071E+03  0.11952430088E+03  0.00000000000E+00 0.  1.
</event>
<event>
12    1  0.8563264E-002  0.2881775E+03  0.7818608E-02  0.1091406E+00
         21   -1    0    0  501  502  0.00000000000E+00  0.00000000000E+00  0.63884094316E+03  0.63884094316E+03  0.00000000000E+00 0.  1.
         21   -1    0    0  502  503 -0.00000000000E+00 -0.00000000000E+00 -0.50340460487E+03  0.50340460487E+03  0.00000000000E+00 0.  1.
         -6    2    1    2    0  503  0.76386069099E+02 -0.21720341098E+03 -0.42437235377E+03  0.51296992696E+03  0.17330348535E+03 0.  0.
        -24    2    3    3    0    0  0.25871768192E+02 -0.16401856571E+03 -0.19645328164E+03  0.27349233761E+03  0.92912478059E+02 0.  0.
          6    2    1    2  501    0 -0.76386069099E+02  0.21720341098E+03  0.55980869205E+03  0.62927562107E+03  0.17201709881E+03 0.  0.
         24    2    5    5    0    0 -0.41770569763E+02  0.60568068877E+02  0.34030066901E+03  0.35735885923E+03  0.80545251104E+02 0.  0.
          5    1    5    5  501    0 -0.34615499336E+02  0.15663534210E+03  0.21950802304E+03  0.27191676184E+03  0.47000000000E+01 0. -1.
        -13    1    6    6    0    0  0.91595657185E+01  0.56847245132E+02  0.19635481162E+03  0.20462335881E+03  0.00000000000E+00 0.  1.
         14    1    6    6    0    0 -0.50930135481E+02  0.37208237447E+01  0.14394585739E+03  0.15273550042E+03  0.00000000000E+00 0. -1.
         -5    1    3    3    0  503  0.50514300907E+02 -0.53184845272E+02 -0.22791907213E+03  0.23947758935E+03  0.47000000000E+01 0.  1.
         11    1    4    4    0    0 -0.23875067133E+02 -0.61274352819E+02 -0.11764506149E+03  0.13477731871E+03  0.00000000000E+00 0. -1.
        -12    1    4    4    0    0  0.49746835325E+02 -0.10274421289E+03 -0.78808220143E+02  0.13871501890E+03  0.00000000000E+00 0.  1.
</event>
<event>
12    1  0.8563264E-002  0.2891286E+03  0.7818608E-02  0.1091333E+00
         21   -1    0    0  501  502  0.00000000000E+00  0.00000000000E+00  0.14728213880E+03  0.14728213880E+03  0.00000000000E+00 0.  1.
         21   -1    0    0  502  503 -0.00000000000E+00 -0.00000000000E+00 -0.56310669231E+03  0.56310669231E+03  0.00000000000E+00 0. -1.
         -6    2    1    2    0  503 -0.21887074244E+03  0.63790758782E+02 -0.23670600043E+03  0.37366442034E+03  0.17782492960E+03 0.  0.
        -24    2    3    3    0    0 -0.34385855944E+02 -0.37888572883E+01 -0.10406653955E+03  0.13656318788E+03  0.81381306823E+02 0.  0.
          6    2    1    2  501    0  0.21887074244E+03 -0.63790758782E+02 -0.17911855308E+03  0.33672441077E+03  0.17124897065E+03 0.  0.
         24    2    5    5    0    0  0.18026398307E+03  0.14951621176E+02 -0.11680488737E+03  0.22904002376E+03  0.78085185560E+02 0.  0.
          5    1    5    5  501    0  0.38606759372E+02 -0.78742379958E+02 -0.62313665708E+02  0.10768438700E+03  0.47000000000E+01 0. -1.
        -13    1    6    6    0    0  0.16307722421E+03 -0.37914538428E+01 -0.73711205713E+02  0.17900250844E+03  0.00000000000E+00 0.  1.
         14    1    6    6    0    0  0.17186758856E+02  0.18743075018E+02 -0.43093681658E+02  0.50037515325E+02  0.00000000000E+00 0. -1.
         -5    1    3    3    0  503 -0.18448488650E+03  0.67579616071E+02 -0.13263946088E+03  0.23710123247E+03  0.47000000000E+01 0.  1.
         13    1    4    4    0    0 -0.52531022955E+01  0.24766266665E+02 -0.89873135244E+02  0.93370999174E+02  0.00000000000E+00 0. -1.
        -14    1    4    4    0    0 -0.29132753648E+02 -0.28555123953E+02 -0.14193404308E+02  0.43192188703E+02  0.00000000000E+00 0.  1.
</event>
<event>
12    1  0.8563264E-002  0.1907616E+03  0.7818608E-02  0.1158399E+00
         21   -1    0    0  503  502  0.00000000000E+00  0.00000000000E+00  0.55778029827E+03  0.55778029827E+03  0.00000000000E+00 0.  1.
         21   -1    0    0  501  503 -0.00000000000E+00 -0.00000000000E+00 -0.85456554973E+02  0.85456554973E+02  0.00000000000E+00 0.  1.
          6    2    1    2  501    0  0.77188643446E+02 -0.25928128202E+02  0.74857069394E+02  0.20236301189E+03  0.16946047691E+03 0.  0.
         24    2    3    3    0    0 -0.78232656466E+01 -0.43157583168E+01  0.79636893353E+02  0.11439110764E+03  0.81630027992E+02 0.  0.
         -6    2    1    2    0  502 -0.77188643446E+02  0.25928128202E+02  0.39746667390E+03  0.44087384135E+03  0.17250980440E+03 0.  0.
        -24    2    5    5    0    0 -0.54349032609E+02 -0.12694107920E+02  0.83761976621E+02  0.12394158985E+03  0.72322135236E+02 0.  0.
          5    1    3    3  501    0  0.85011909093E+02 -0.21612369885E+02 -0.47798239597E+01  0.87971904247E+02  0.47000000000E+01 0. -1.
        -13    1    4    4    0    0  0.24212782428E+02  0.15201564041E+02  0.26014021261E+01  0.28707380153E+02  0.00000000000E+00 0.  1.
         14    1    4    4    0    0 -0.32036048075E+02 -0.19517322358E+02  0.77035491227E+02  0.85683727492E+02  0.00000000000E+00 0. -1.
         -5    1    5    5    0  502 -0.22839610837E+02  0.38622236122E+02  0.31370469728E+03  0.31693225151E+03  0.47000000000E+01 0.  1.
         13    1    6    6    0    0 -0.37619568801E+02 -0.34052752545E+02  0.19809658747E+02  0.54472419557E+02  0.00000000000E+00 0. -1.
        -14    1    6    6    0    0 -0.16729463808E+02  0.21358644625E+02  0.63952317873E+02  0.69469170291E+02  0.00000000000E+00 0.  1.
</event>
<event>
12    1  0.8563264E-002  0.2251366E+03  0.7818608E-02  0.1130523E+00
         21   -1    0    0  503  502  0.00000000000E+00  0.00000000000E+00  0.63192485599E+03  0.63192485599E+03  0.00000000000E+00 0. -1.
         21   -1    0    0  501  503 -0.00000000000E+00 -0.00000000000E+00 -0.10236332973E+03  0.10236332973E+03  0.00000000000E+00 0.  1.
          6    2    1    2  501    0  0.22572642713E+02  0.14193667654E+03  0.91942702383E+02  0.24318702841E+03  0.17329433320E+03 0.  0.
         24    2    3    3    0    0  0.65560473065E+02  0.13573989229E+03  0.37527273609E+02  0.17340535043E+03  0.77055988108E+02 0.  0.
         -6    2    1    2    0  502 -0.22572642713E+02 -0.14193667654E+03  0.43761882387E+03  0.49110115731E+03  0.17033662952E+03 0.  0.
        -24    2    5    5    0    0 -0.79718028979E+01 -0.11821514930E+03  0.44029144669E+03  0.46272637466E+03  0.78871849277E+02 0.  0.
          5    1    3    3  501    0 -0.42987830353E+02  0.61967842472E+01  0.54415428774E+02  0.69781677983E+02  0.47000000000E+01 0. -1.
        -13    1    4    4    0    0 -0.35108386078E+01  0.78384965563E+02  0.27148466503E+02  0.83027513798E+02  0.00000000000E+00 0.  1.
         14    1    4    4    0    0  0.69071311673E+02  0.57354926731E+02  0.10378807106E+02  0.90377836627E+02  0.00000000000E+00 0. -1.
         -5    1    5    5    0  502 -0.14600839815E+02 -0.23721527236E+02 -0.26726228199E+01  0.28374782650E+02  0.47000000000E+01 0.  1.
         13    1    6    6    0    0 -0.41213261153E+02 -0.75096095862E+02  0.22789080477E+03  0.24345877558E+03  0.00000000000E+00 0. -1.
        -14    1    6    6    0    0  0.33241458255E+02 -0.43119053443E+02  0.21240064192E+03  0.21926759908E+03  0.00000000000E+00 0.  1.
</event>
<event>
12    1  0.8563264E-002  0.2424129E+03  0.7818608E-02  0.1118432E+00
         21   -1    0    0  503  502  0.00000000000E+00  0.00000000000E+00  0.44455779255E+03  0.44455779255E+03  0.00000000000E+00 0.  1.
         21   -1    0    0  501  503 -0.00000000000E+00 -0.00000000000E+00 -0.16836273999E+03  0.16836273999E+03  0.00000000000E+00 0.  1.
          6    2    1    2  501    0 -0.72793151245E+02  0.15365679726E+03 -0.58001572985E+01  0.24105323018E+03  0.17077401366E+03 0.  0.
         24    2    3    3    0    0 -0.51470008633E+02  0.85006900839E+02  0.59084378617E+02  0.14410181095E+03  0.86017632750E+02 0.  0.
         -6    2    1    2    0  502  0.72793151245E+02 -0.15365679726E+03  0.28199520986E+03  0.37186730236E+03  0.17278523655E+03 0.  0.
        -24    2    5    5    0    0  0.97200482334E+01 -0.90026949518E+01  0.68253057076E+02  0.10614033061E+03  0.80198267611E+02 0.  0.
          5    1    3    3  501    0 -0.21323142612E+02  0.68649896426E+02 -0.64884535915E+02  0.96951419232E+02  0.47000000000E+01 0. -1.
        -11    1    4    4    0    0 -0.14707582355E+02  0.74300969098E+02  0.25050219402E+01  0.75784049262E+02  0.00000000000E+00 0.  1.
         12    1    4    4    0    0 -0.36762426278E+02  0.10705931741E+02  0.56579356676E+02  0.68317761689E+02  0.00000000000E+00 0. -1.
         -5    1    5    5    0  502  0.63073103012E+02 -0.14465410231E+03  0.21374215278E+03  0.26572697175E+03  0.47000000000E+01 0.  1.
         11    1    6    6    0    0  0.41277695786E+01  0.55256296971E+01  0.83832731603E+02  0.84115979179E+02  0.00000000000E+00 0. -1.
        -12    1    6    6    0    0  0.55922786548E+01 -0.14528324649E+02 -0.15579674526E+02  0.22024351432E+02  0.00000000000E+00 0.  1.
</event>
<event>
12    1  0.8563264E-002  0.2118744E+03  0.7818608E-02  0.1140286E+00
         21   -1    0    0  501  502  0.00000000000E+00  0.00000000000E+00  0.17627791631E+04  0.17627791631E+04  0.00000000000E+00 0. -1.
         21   -1    0    0  502  503 -0.00000000000E+00 -0.00000000000E+00 -0.58270518570E+02  0.58270518570E+02  0.00000000000E+00 0.  1.
         -6    2    1    2    0  503 -0.12925456567E+02 -0.12102005697E+03  0.16695128298E+03  0.26896289704E+03  0.17220739670E+03 0.  0.
        -24    2    3    3    0    0 -0.37523708344E+02 -0.11455059639E+03  0.18704632872E+03  0.23620883204E+03  0.79236452607E+02 0.  0.
          6    2    1    2  501    0  0.12925456567E+02  0.12102005697E+03  0.15375573615E+04  0.15520867846E+04  0.17342959771E+03 0.  0.
         24    2    5    5    0    0  0.31132613329E+02  0.54772990472E+02  0.36378603327E+03  0.37629709448E+03  0.72731734581E+02 0.  0.
          5    1    5    5  501    0 -0.18207156762E+02  0.66247066497E+02  0.11737713283E+04  0.11757896901E+04  0.47000000000E+01 0. -1.
        -11    1    6    6    0    0 -0.20027212608E+02 -0.95176052756E+00  0.61317699737E+02  0.64512443714E+02  0.00000000000E+00 0.  1.
         12    1    6    6    0    0  0.51159825938E+02  0.55724751000E+02  0.30246833353E+03  0.31178465076E+03  0.00000000000E+00 0. -1.
         -5    1    3    3    0  503  0.24598251777E+02 -0.64694605800E+01 -0.20095045742E+02  0.32754065000E+02  0.47000000000E+01 0.  1.
         13    1    4    4    0    0 -0.13905932395E+01 -0.11381604608E+02  0.87854772932E+02  0.88599863431E+02  0.00000000000E+00 0. -1.
        -14    1    4    4    0    0 -0.36133115105E+02 -0.10316899178E+03  0.99191555791E+02  0.14760896860E+03  0.00000000000E+00 0.  1.
</event>
<event>
12    1  0.8563264E-002  0.2098559E+03  0.7818608E-02  0.1143162E+00
         21   -1    0    0  503  502  0.00000000000E+00  0.00000000000E+00  0.48529648759E+03  0.48529648759E+03  0.00000000000E+00 0. -1.
         21   -1    0    0  501  503 -0.00000000000E+00 -0.00000000000E+00 -0.11948648057E+03  0.11948648057E+03  0.00000000000E+00 0. -1.
          6    2    1    2  501    0 -0.83901196938E+02 -0.71251618416E+02  0.33670744187E+03  0.39291867634E+03  0.16999111987E+03 0.  0.
         24    2    3    3    0    0  0.32066487093E+01 -0.54456228654E+02  0.97147164561E+02  0.13741705530E+03  0.80437006845E+02 0.  0.
         -6    2    1    2    0  502  0.83901196938E+02  0.71251618416E+02  0.29102565150E+02  0.21186429182E+03  0.17867096819E+03 0.  0.
        -24    2    5    5    0    0 -0.27057912874E+02  0.54036609081E+02 -0.18536001725E+02  0.89799539941E+02  0.63783134476E+02 0.  0.
          5    1    3    3  501    0 -0.87107845648E+02 -0.16795389763E+02  0.23956027730E+03  0.25550162104E+03  0.47000000000E+01 0. -1.
        -11    1    4    4    0    0 -0.35266343732E+02 -0.35567414862E+02  0.32004775239E+02  0.59439562904E+02  0.00000000000E+00 0.  1.
         12    1    4    4    0    0  0.38472992441E+02 -0.18888813792E+02  0.65142389322E+02  0.77977492397E+02  0.00000000000E+00 0. -1.
         -5    1    5    5    0  502  0.11095910981E+03  0.17215009335E+02  0.47638566875E+02  0.12206475188E+03  0.47000000000E+01 0.  1.
         11    1    6    6    0    0  0.24791298291E+01  0.14487728784E+02 -0.34841324196E+02  0.37814788665E+02  0.00000000000E+00 0. -1.
        -12    1    6    6    0    0 -0.29537042703E+02  0.39548880297E+02  0.16305322471E+02  0.51984751276E+02  0.00000000000E+00 0.  1.
</event>
<event>
12    1  0.8563264E-002  0.1979682E+03  0.7818608E-02  0.1152875E+00
         21   -1    0    0  501  502  0.00000000000E+00  0.00000000000E+00  0.34544771485E+03  0.34544771485E+03  0.00000000000E+00 0. -1.
         21   -1    0    0  502  503 -0.00000000000E+00 -0.00000000000E+00 -0.16275067355E+03  0.16275067355E+03  0.00000000000E+00 0. -1.
         -6    2    1    2    0  503  0.47175430597E+02 -0.73813181371E+02 -0.54643170918E+02  0.19913237880E+03  0.17027601465E+03 0.  0.
        -24    2    3    3    0    0 -0.27608561992E+02 -0.74288076635E+02 -0.10071600853E+02  0.11194530447E+03  0.78417874388E+02 0.  0.
          6    2    1    2  501    0 -0.47175430597E+02  0.73813181371E+02  0.23734021222E+03  0.30906600959E+03  0.17753172942E+03 0.  0.
         24    2    5    5    0    0 -0.10045141889E+03  0.39858034959E+02  0.15910147664E+03  0.20839489833E+03  0.80224704877E+02 0.  0.
          5    1    5    5  501    0  0.53275988297E+02  0.33955146411E+02  0.78238735587E+02  0.10067111126E+03  0.47000000000E+01 0. -1.
        -13    1    6    6    0    0 -0.91050439728E+02  0.40197772092E+00  0.88517743314E+02  0.12698714518E+03  0.00000000000E+00 0.  1.
         14    1    6    6    0    0 -0.94009791657E+01  0.39456057238E+02  0.70583733322E+02  0.81407753142E+02  0.00000000000E+00 0. -1.
         -5    1    3    3    0  503  0.74783992589E+02  0.47489526435E+00 -0.44571570065E+02  0.87187074335E+02  0.47000000000E+01 0.  1.
         13    1    4    4    0    0 -0.14373898549E+02 -0.71276158461E+02 -0.37152772693E+02  0.81653096960E+02  0.00000000000E+00 0. -1.
        -14    1    4    4    0    0 -0.13234663443E+02 -0.30119181740E+01  0.27081171840E+02  0.30292207509E+02  0.00000000000E+00 0.  1.
</event>
<event>
12    1  0.8563264E-002  0.2258138E+03  0.7818608E-02  0.1129994E+00
         21   -1    0    0  501  502  0.00000000000E+00  0.00000000000E+00  0.13336392215E+04  0.13336392215E+04  0.00000000000E+00 0. -1.
         21   -1    0    0  502  503 -0.00000000000E+00 -0.00000000000E+00 -0.61175546954E+02  0.61175546954E+02  0.00000000000E+00 0.  1.
         -6    2    1    2    0  503  0.92007997083E+02  0.10871867984E+03  0.20414326067E+03  0.30288969800E+03  0.17257599893E+03 0.  0.
        -24    2    3    3    0    0 -0.10121400069E+02  0.62958107106E+01  0.79672749926E+02  0.11200791279E+03  0.77819955499E+02 0.  0.
          6    2    1    2  501    0 -0.92007997083E+02 -0.10871867984E+03  0.10683204139E+04  0.10919250705E+04  0.17523307310E+03 0.  0.
         24    2    5    5    0    0 -0.98742169985E+02 -0.26038468112E+02  0.43682214650E+03  0.45498432109E+03  0.75954768203E+02 0.  0.
          5    1    5    5  501    0  0.67341729022E+01 -0.82680211724E+02  0.63149826741E+03  0.63694074939E+03  0.47000000000E+01 0. -1.
        -13    1    6    6    0    0 -0.10596573828E+03 -0.15532807806E+02  0.42225810194E+03  0.43562817914E+03  0.00000000000E+00 0.  1.
         14    1    6    6    0    0  0.72235682929E+01 -0.10505660306E+02  0.14564044559E+02  0.19356141952E+02  0.00000000000E+00 0. -1.
         -5    1    3    3    0  503  0.10212939715E+03  0.10242286913E+03  0.12447051075E+03  0.19088178522E+03  0.47000000000E+01 0.  1.
         13    1    4    4    0    0  0.18584293358E+02 -0.28193474005E+02  0.36838875216E+02  0.49973499610E+02  0.00000000000E+00 0. -1.
        -14    1    4    4    0    0 -0.28705693427E+02  0.34489284716E+02  0.42833874710E+02  0.62034413175E+02  0.00000000000E+00 0.  1.
</event>
<event>
12    1  0.8563264E-002  0.2584514E+03  0.7818608E-02  0.1108331E+00
         21   -1    0    0  501  502  0.00000000000E+00  0.00000000000E+00  0.88890947114E+02  0.88890947114E+02  0.00000000000E+00 0. -1.
         21   -1    0    0  502  503 -0.00000000000E+00 -0.00000000000E+00 -0.76238750150E+03  0.76238750150E+03  0.00000000000E+00 0. -1.
         -6    2    1    2    0  503  0.53439113562E+02 -0.18440537975E+03 -0.39904948636E+03  0.47543412719E+03  0.17302032768E+03 0.  0.
        -24    2    3    3    0    0  0.10030327883E+03 -0.13129857059E+03 -0.32261082482E+03  0.37111949666E+03  0.79698645695E+02 0.  0.
          6    2    1    2  501    0 -0.53439113562E+02  0.18440537975E+03 -0.27444706802E+03  0.37584432142E+03  0.17051884899E+03 0.  0.
         24    2    5    5    0    0 -0.18084498296E+02  0.28383079101E+02 -0.47836448981E+02  0.98414384715E+02  0.79148070158E+02 0.  0.
          5    1    5    5  501    0 -0.35354615266E+02  0.15602230065E+03 -0.22661061904E+03  0.27742993671E+03  0.47000000000E+01 0. -1.
        -11    1    6    6    0    0 -0.14006504854E+02 -0.12284923824E+02 -0.53960458916E+02  0.57086186228E+02  0.00000000000E+00 0.  1.
         12    1    6    6    0    0 -0.40779934414E+01  0.40668002925E+02  0.61240099355E+01  0.41328198487E+02  0.00000000000E+00 0. -1.
         -5    1    3    3    0  503 -0.46864165263E+02 -0.53106809155E+02 -0.76438661542E+02  0.10431463053E+03  0.47000000000E+01 0.  1.
         13    1    4    4    0    0  0.92020095561E+02 -0.13928344387E+03 -0.27138817941E+03  0.31862065163E+03  0.00000000000E+00 0. -1.
        -14    1    4    4    0    0  0.82831832636E+01  0.79848732767E+01 -0.51222645406E+02  0.52498845021E+02  0.00000000000E+00 0.  1.
</event>
<event>
12    1  0.8563264E-002  0.2036370E+03  0.7818608E-02  0.1146729E+00
         21   -1    0    0  501  502  0.00000000000E+00  0.00000000000E+00  0.42297491910E+02  0.42297491910E+02  0.00000000000E+00 0.  1.
         21   -1    0    0  502  503 -0.00000000000E+00 -0.00000000000E+00 -0.13894512544E+04  0.13894512544E+04  0.00000000000E+00 0.  1.
         -6    2    1    2    0  503  0.16899460819E+02 -0.10692155604E+03 -0.10623920363E+04  0.10817323508E+04  0.17248254734E+03 0.  0.
        -24    2    3    3    0    0  0.30322437228E+02 -0.13177662401E+03 -0.10087814937E+04  0.10209529878E+04  0.80127225855E+02 0.  0.
          6    2    1    2  501    0 -0.16899460819E+02  0.10692155604E+03 -0.28476172619E+03  0.35001639547E+03  0.17234971852E+03 0.  0.
         24    2    5    5    0    0  0.15918057343E+01  0.14018832776E+02 -0.44577278019E+02  0.91784906160E+02  0.78982743466E+02 0.  0.
          5    1    5    5  501    0 -0.18491266554E+02  0.92902723262E+02 -0.24018444817E+03  0.25823148931E+03  0.47000000000E+01 0. -1.
        -13    1    6    6    0    0 -0.10562362060E+02 -0.93683032899E+01  0.18587645373E+02  0.23341575768E+02  0.00000000000E+00 0.  1.
         14    1    6    6    0    0  0.12154167795E+02  0.23387136066E+02 -0.63164923392E+02  0.68443330393E+02  0.00000000000E+00 0. -1.
         -5    1    3    3    0  503 -0.13422976408E+02  0.24855067976E+02 -0.53610542579E+02  0.60779363071E+02  0.47000000000E+01 0.  1.
         11    1    4    4    0    0 -0.41421089525E+01 -0.12099538372E+03 -0.77638134409E+03  0.78576397945E+03  0.00000000000E+00 0. -1.
        -12    1    4    4    0    0  0.34464546180E+02 -0.10781240291E+02 -0.23240014961E+03  0.23518900830E+03  0.00000000000E+00 0.  1.
</event>
<event>
12    1  0.8563264E-002  0.2407786E+03  0.7818608E-02  0.1119431E+00
         21   -1    0    0  503  502  0.00000000000E+00  0.00000000000E+00  0.64246681747E+03  0.64246681747E+03  0.00000000000E+00 0.  1.
         21   -1    0    0  501  503 -0.00000000000E+00 -0.00000000000E+00 -0.19289724027E+03  0.19289724027E+03  0.00000000000E+00 0. -1.
          6    2    1    2  501    0 -0.15247364084E+03 -0.73221024847E+02 -0.80645234112E+02  0.25303933970E+03  0.17004624082E+03 0.  0.
         24    2    3    3    0    0 -0.28244981047E+02 -0.46515009081E+02  0.10383045890E+02  0.96660923818E+02  0.79209226276E+02 0.  0.
         -6    2    1    2    0  502  0.15247364084E+03  0.73221024847E+02  0.53021481131E+03  0.58232471804E+03  0.17136161027E+03 0.  0.
        -24    2    5    5    0    0  0.13005189064E+03 -0.11327028170E+02  0.31918913071E+03  0.35384050409E+03  0.79243960935E+02 0.  0.
          5    1    3    3  501    0 -0.12422865979E+03 -0.26706015766E+02 -0.91028280002E+02  0.15637841588E+03  0.47000000000E+01 0. -1.
        -13    1    4    4    0    0 -0.11889455445E+02  0.22196916465E+02  0.60458159504E+01  0.25896218678E+02  0.00000000000E+00 0.  1.
         14    1    4    4    0    0 -0.16355525603E+02 -0.68711925546E+02  0.43372299394E+01  0.70764705140E+02  0.00000000000E+00 0. -1.
         -5    1    5    5    0  502  0.22421750203E+02  0.84548053018E+02  0.21102568060E+03  0.22848421395E+03  0.47000000000E+01 0.  1.
         11    1    6    6    0    0  0.98210827598E+02  0.24243324950E+02  0.17721192028E+03  0.20405188103E+03  0.00000000000E+00 0. -1.
        -12    1    6    6    0    0  0.31841063040E+02 -0.35570353121E+02  0.14197721043E+03  0.14978862306E+03  0.00000000000E+00 0.  1.
</event>
<event>
12    1  0.8563264E-002  0.2169011E+03  0.7818608E-02  0.1136704E+00
         21   -1    0    0  503  502  0.00000000000E+00  0.00000000000E+00  0.39799437800E+03  0.39799437800E+03  0.00000000000E+00 0. -1.
         21   -1    0    0  501  503 -0.00000000000E+00 -0.00000000000E+00 -0.11720493443E+03  0.11720493443E+03  0.00000000000E+00 0.  1.
          6    2    1    2  501    0  0.11592323901E+03  0.64563590378E+02  0.15441069735E+03  0.26416610630E+03  0.16832829149E+03 0.  0.
         24    2    3    3    0    0 -0.19459220208E+01  0.52993212355E+02  0.75566958624E+02  0.12180937866E+03  0.79467555171E+02 0.  0.
         -6    2    1    2    0  502 -0.11592323901E+03 -0.64563590378E+02  0.12637874622E+03  0.25103320613E+03  0.17157921942E+03 0.  0.
        -24    2    5    5    0    0  0.82452588845E+01 -0.10160053119E+02  0.58266071998E+02  0.99247214928E+02  0.79270824087E+02 0.  0.
          5    1    3    3  501    0  0.11786916103E+03  0.11570378023E+02  0.78843738721E+02  0.14235672764E+03  0.47000000000E+01 0. -1.
        -11    1    4    4    0    0 -0.31113661427E+02 -0.30893879017E+01  0.16779794723E+02  0.35484725671E+02  0.00000000000E+00 0.  1.
         12    1    4    4    0    0  0.29167739406E+02  0.56082600257E+02  0.58787163901E+02  0.86324652986E+02  0.00000000000E+00 0. -1.
         -5    1    5    5    0  502 -0.12416849789E+03 -0.54403537259E+02  0.68112674222E+02  0.15178599120E+03  0.47000000000E+01 0.  1.
         13    1    6    6    0    0 -0.88494126323E+01 -0.32360332012E+02  0.62475726272E+02  0.70913465330E+02  0.00000000000E+00 0. -1.
        -14    1    6    6    0    0  0.17094671517E+02  0.22200278893E+02 -0.42096542735E+01  0.28333749599E+02  0.00000000000E+00 0.  1.
</event>
<event>
12    1  0.8563264E-002  0.1740788E+03  0.7818608E-02  0.1173965E+00
         21   -1    0    0  503  502  0.00000000000E+00  0.00000000000E+00  0.50761023688E+03  0.50761023688E+03  0.00000000000E+00 0.  1.
         21   -1    0    0  501  503 -0.00000000000E+00 -0.00000000000E+00 -0.80575644162E+02  0.80575644162E+02  0.00000000000E+00 0.  1.
          6    2    1    2  501    0 -0.88354452779E+01  0.23538205964E+02  0.61806449837E+02  0.18359346419E+03  0.17103920784E+03 0.  0.
         24    2    3    3    0    0  0.29960345133E+02 -0.42632521832E+02  0.43452206530E+02  0.10458304198E+03  0.79588719164E+02 0.  0.
         -6    2    1    2    0  502  0.88354452779E+01 -0.23538205964E+02  0.36522814288E+03  0.40459241686E+03  0.17225363622E+03 0.  0.
        -24    2    5    5    0    0 -0.18966747457E+01  0.28501835174E+02  0.32860452263E+03  0.33988751873E+03  0.82016102742E+02 0.  0.
          5    1    3    3  501    0 -0.38795790411E+02  0.66170727796E+02  0.18354243307E+02  0.79010422212E+02  0.47000000000E+01 0. -1.
        -11    1    4    4    0    0 -0.38505297418E+01  0.29261831935E+01 -0.19352324253E+02  0.19947470551E+02  0.00000000000E+00 0.  1.
         12    1    4    4    0    0  0.33810874875E+02 -0.45558705026E+02  0.62804530784E+02  0.84635571425E+02  0.00000000000E+00 0. -1.
         -5    1    5    5    0  502  0.10732120024E+02 -0.52040041138E+02  0.36623620253E+02  0.64704898132E+02  0.47000000000E+01 0.  1.
         13    1    6    6    0    0 -0.38169651403E+02  0.14088980036E+01  0.19821293758E+03  0.20185954499E+03  0.00000000000E+00 0. -1.
        -14    1    6    6    0    0  0.36272976657E+02  0.27092937170E+02  0.13039158505E+03  0.13802797373E+03  0.00000000000E+00 0.  1.
</event>
<event>
12    1  0.8563264E-002  0.1862445E+03  0.7818608E-02  0.1162146E+00
         21   -1    0    0  503  502  0.00000000000E+00  0.00000000000E+00  0.19427865791E+02  0.19427865791E+02  0.00000000000E+00 0. -1.
         21   -1    0    0  501  503 -0.00000000000E+00 -0.00000000000E+00 -0.22102208134E+04  0.22102208134E+04  0.00000000000E+00 0. -1.
          6    2    1    2  501    0  0.63755634322E+02  0.33890556166E+02 -0.15875257191E+04  0.15982863746E+04  0.17049362351E+03 0.  0.
         24    2    3    3    0    0 -0.24533928376E+02 -0.72457093474E+01 -0.57797699837E+03  0.58403889554E+03  0.79935016776E+02 0.  0.
         -6    2    1    2    0  502 -0.63755634322E+02 -0.33890556166E+02 -0.60326722850E+03  0.63136230460E+03  0.17167894451E+03 0.  0.
        -24    2    5    5    0    0 -0.10931452930E+03 -0.30737622973E+02 -0.48358750331E+03  0.50317930838E+03  0.80237617384E+02 0.  0.
          5    1    3    3  501    0  0.88289562698E+02  0.41136265514E+02 -0.10095487207E+04  0.10142474791E+04  0.47000000000E+01 0. -1.
        -13    1    4    4    0    0 -0.13606875972E+02 -0.27617884345E+02 -0.83063546483E+02  0.88585819202E+02  0.00000000000E+00 0.  1.
         14    1    4    4    0    0 -0.10927052403E+02  0.20372174998E+02 -0.49491345189E+03  0.49545307634E+03  0.00000000000E+00 0. -1.
         -5    1    5    5    0  502  0.45558894974E+02 -0.31529331930E+01 -0.11967972518E+03  0.12818299622E+03  0.47000000000E+01 0.  1.
         11    1    6    6    0    0 -0.46914630449E+02 -0.20565862675E+01 -0.72397447515E+02  0.86293699098E+02  0.00000000000E+00 0. -1.
        -12    1    6    6    0    0 -0.62399898848E+02 -0.28681036706E+02 -0.41119005580E+03  0.41688560929E+03  0.00000000000E+00 0.  1.
</event>
<event>
12    1  0.8563264E-002  0.2134166E+03  0.7818608E-02  0.1139175E+00
         21   -1    0    0  503  502  0.00000000000E+00  0.00000000000E+00  0.17875088510E+03  0.17875088510E+03  0.00000000000E+00 0. -1.
         21   -1    0    0  501  503 -0.00000000000E+00 -0.00000000000E+00 -0.51849040944E+03  0.51849040944E+03  0.00000000000E+00 0. -1.
          6    2    1    2  501    0 -0.12439707234E+03  0.53035670133E+01 -0.41959426048E+03  0.47075046426E+03  0.17333175342E+03 0.  0.
         24    2    3    3    0    0 -0.85054705008E+02 -0.42464058061E+02 -0.15149393156E+03  0.19556063116E+03  0.79095196382E+02 0.  0.
         -6    2    1    2    0  502  0.12439707234E+03 -0.53035670133E+01  0.79854736138E+02  0.22649083027E+03  0.17151838935E+03 0.  0.
        -24    2    5    5    0    0  0.53910883466E+02  0.20316787156E+02  0.10804382859E+03  0.14623237089E+03  0.79945495200E+02 0.  0.
          5    1    3    3  501    0 -0.39342367334E+02  0.47767625074E+02 -0.26810032892E+03  0.27518983310E+03  0.47000000000E+01 0. -1.
        -11    1    4    4    0    0 -0.36533259278E+02  0.10441835317E+02 -0.14072150677E+02  0.40518346251E+02  0.00000000000E+00 0.  1.
         12    1    4    4    0    0 -0.48521445730E+02 -0.52905893377E+02 -0.13742178088E+03  0.15504228491E+03  0.00000000000E+00 0. -1.
         -5    1    5    5    0  502  0.70486188875E+02 -0.25620354169E+02 -0.28189092451E+02  0.80258459387E+02  0.47000000000E+01 0.  1.
         13    1    6    6    0    0  0.67095526413E+02  0.12530037816E+02  0.45957083399E+02  0.82285266159E+02  0.00000000000E+00 0. -1.
        -14    1    6    6    0    0 -0.13184642947E+02  0.77867493394E+01  0.62086745190E+02  0.63947104729E+02  0.00000000000E+00 0.  1.
</event>
<event>
12    1  0.8563264E-002  0.1849558E+03  0.7818608E-02  0.1165202E+00
         21   -1    0    0  503  502  0.00000000000E+00  0.00000000000E+00  0.16125595183E+04  0.16125595183E+04  0.00000000000E+00 0.  1.
         21   -1    0    0  501  503 -0.00000000000E+00 -0.00000000000E+00 -0.64546104198E+02  0.64546104198E+02  0.00000000000E+00 0.  1.
          6    2    1    2  501    0  0.37502605711E+02  0.18104912871E+02  0.85046238612E+02  0.20357183915E+03  0.18020654174E+03 0.  0.
         24    2    3    3    0    0  0.15162304334E+02  0.78707682745E+02  0.81264970611E+02  0.13870140852E+03  0.78799051275E+02 0.  0.
         -6    2    1    2    0  502 -0.37502605711E+02 -0.18104912871E+02  0.14629671755E+04  0.14735337834E+04  0.17115671416E+03 0.  0.
        -24    2    5    5    0    0 -0.64709514011E+02 -0.64850696614E+02  0.10557371989E+04  0.10627008148E+04  0.79743681415E+02 0.  0.
          5    1    3    3  501    0  0.22340301377E+02 -0.60602769874E+02  0.37812680010E+01  0.64870430627E+02  0.47000000000E+01 0. -1.
        -11    1    4    4    0    0  0.34245329664E+02  0.32783991202E+02  0.50222979776E+01  0.47673432433E+02  0.00000000000E+00 0.  1.
         12    1    4    4    0    0 -0.19083025330E+02  0.45923691543E+02  0.76242672633E+02  0.91027976089E+02  0.00000000000E+00 0. -1.
         -5    1    5    5    0  502  0.27206908300E+02  0.46745783743E+02  0.40722997666E+03  0.41083296855E+03  0.47000000000E+01 0.  1.
         13    1    6    6    0    0 -0.53323752902E+02 -0.75272354100E+02  0.63343098185E+03  0.64011261407E+03  0.00000000000E+00 0. -1.
        -14    1    6    6    0    0 -0.11385761109E+02  0.10421657486E+02  0.42230621702E+03  0.42258820078E+03  0.00000000000E+00 0.  1.
</event>
<event>
12    1  0.8563264E-002  0.1933500E+03  0.7818608E-02  0.1155657E+00
         21   -1    0    0  501  502  0.00000000000E+00  0.00000000000E+00  0.42026666351E+03  0.42026666351E+03  0.00000000000E+00 0.  1.
         21   -1    0    0  502  503 -0.00000000000E+00 -0.00000000000E+00 -0.24341325061E+03  0.24341325061E+03  0.00000000000E+00 0.  1.
         -6    2    1    2    0  503  0.55650927414E+02  0.67513429990E+02 -0.17630892752E+03  0.26105372044E+03  0.17149086881E+03 0.  0.
        -24    2    3    3    0    0  0.58053390412E+02  0.21546097402E+02 -0.27920284690E+02  0.10561869603E+03  0.80878527454E+02 0.  0.
          6    2    1    2  501    0 -0.55650927414E+02 -0.67513429990E+02  0.35316234042E+03  0.40262619368E+03  0.17242135656E+03 0.  0.
         24    2    5    5    0    0 -0.16186055344E+02 -0.94183807541E+02  0.15570897582E+03  0.19945457569E+03  0.80026649449E+02 0.  0.
          5    1    5    5  501    0 -0.39464872070E+02  0.26670377550E+02  0.19745336460E+03  0.20317161799E+03  0.47000000000E+01 0. -1.
        -11    1    6    6    0    0 -0.39214307001E+02 -0.49233063185E+02  0.43815931987E+02  0.76690887856E+02  0.00000000000E+00 0.  1.
         12    1    6    6    0    0  0.23028251657E+02 -0.44950744356E+02  0.11189304383E+03  0.12276368783E+03  0.00000000000E+00 0. -1.
         -5    1    3    3    0  503 -0.24024629980E+01  0.45967332588E+02 -0.14838864283E+03  0.15543502441E+03  0.47000000000E+01 0.  1.
         11    1    4    4    0    0  0.74231019209E+02 -0.48937607606E+00 -0.23918927794E+02  0.77991017487E+02  0.00000000000E+00 0. -1.
        -12    1    4    4    0    0 -0.16177628797E+02  0.22035473478E+02 -0.40013568964E+01  0.27627678547E+02  0.00000000000E+00 0.  1.
</event>
<event>
12    1  0.8563264E-002  0.2606531E+03  0.7818608E-02  0.1106781E+00
         21   -1    0    0  503  502  0.00000000000E+00  0.00000000000E+00  0.19155699862E+03  0.19155699862E+03  0.00000000000E+00 0. -1.
         21   -1    0    0  501  503 -0.00000000000E+00 -0.00000000000E+00 -0.50920436719E+03  0.50920436719E+03  0.00000000000E+00 0.  1.
          6    2    1    2  501    0  0.15433027511E+03  0.12041365179E+03 -0.35197095501E+03  0.43785808298E+03  0.17181055353E+03 0.  0.
         24    2    3    3    0    0  0.87959294154E+02  0.13322192699E+03 -0.18040301966E+03  0.25339452163E+03  0.78604165475E+02 0.  0.
         -6    2    1    2    0  502 -0.15433027511E+03 -0.12041365179E+03  0.34323586436E+02  0.26290328284E+03  0.17211259742E+03 0.  0.
        -24    2    5    5    0    0 -0.15426062143E+03 -0.75061812161E+02  0.73825377667E+02  0.20257687304E+03  0.78463928859E+02 0.  0.
          5    1    3    3  501    0  0.66370980960E+02 -0.12808275196E+02 -0.17156793534E+03  0.18446356135E+03  0.47000000000E+01 0. -1.
        -13    1    4    4    0    0  0.79284483285E+02  0.10006245519E+03 -0.17798094412E+03  0.21903365198E+03  0.00000000000E+00 0.  1.
         14    1    4    4    0    0  0.86748108691E+01  0.33159471797E+02 -0.24220755459E+01  0.34360869655E+02  0.00000000000E+00 0. -1.
         -5    1    5    5    0  502 -0.69653678663E-01 -0.45351839630E+02 -0.39501791231E+02  0.60326409805E+02  0.47000000000E+01 0.  1.
         11    1    6    6    0    0 -0.14578466147E+03 -0.86109905685E+02  0.52799489745E+02  0.17735802630E+03  0.00000000000E+00 0. -1.
        -12    1    6    6    0    0 -0.84759599692E+01  0.11048093524E+02  0.21025887921E+02  0.25218846738E+02  0.00000000000E+00 0.  1.
</event>
<event>
12    1  0.8563264E-002  0.1818174E+03  0.7818608E-02  0.1166272E+00
         21   -1    0    0  501  502  0.00000000000E+00  0.00000000000E+00  0.51628777775E+03  0.51628777775E+03  0.00000000000E+00 0.  1.
         21   -1    0    0  502  503 -0.00000000000E+00 -0.00000000000E+00 -0.63936669459E+02  0.63936669459E+02  0.00000000000E+00 0.  1.
         -6    2    1    2    0  503  0.55024808285E+02 -0.47665542312E+01  0.24283393094E+03  0.30281680771E+03  0.17227667122E+03 0.  0.
        -24    2    3    3    0    0  0.14923034241E+01 -0.63392611055E+02  0.10641453616E+03  0.14490833774E+03  0.75189911118E+02 0.  0.
          6    2    1    2  501    0 -0.55024808285E+02  0.47665542312E+01  0.20951717735E+03  0.27740763950E+03  0.17322557918E+03 0.  0.
         24    2    5    5    0    0 -0.55948445935E+02 -0.22294485531E+02  0.46611654298E+02  0.11220033815E+03  0.82395369268E+02 0.  0.
          5    1    5    5  501    0  0.92363765026E+00  0.27061039762E+02  0.16290552305E+03  0.16520730135E+03  0.47000000000E+01 0. -1.
        -11    1    6    6    0    0 -0.45967140246E+02  0.22229432240E+02  0.42414739160E+02  0.66378729561E+02  0.00000000000E+00 0.  1.
         12    1    6    6    0    0 -0.99813056891E+01 -0.44523917771E+02  0.41969151375E+01  0.45821608588E+02  0.00000000000E+00 0. -1.
         -5    1    3    3    0  503  0.53532504861E+02  0.58626056824E+02  0.13641939479E+03  0.15790846997E+03  0.47000000000E+01 0.  1.
         11    1    4    4    0    0 -0.33417321643E+02 -0.10677532281E+02  0.40212339070E+02  0.53364401007E+02  0.00000000000E+00 0. -1.
        -12    1    4    4    0    0  0.34909625068E+02 -0.52715078774E+02  0.66202197087E+02  0.91543936728E+02  0.00000000000E+00 0.  1.
</event>
<event>
12    1  0.8563264E-002  0.1792791E+03  0.7818608E-02  0.1168864E+00
         21   -1    0    0  503  502  0.00000000000E+00  0.00000000000E+00  0.87155591829E+02  0.87155591829E+02  0.00000000000E+00 0. -1.
         21   -1    0    0  501  503 -0.00000000000E+00 -0.00000000000E+00 -0.58761121279E+03  0.58761121279E+03  0.00000000000E+00 0. -1.
          6    2    1    2  501    0 -0.26161064528E+02  0.41196114982E+02 -0.45689548336E+03  0.49027155752E+03  0.17097133154E+03 0.  0.
         24    2    3    3    0    0  0.37454521897E+02 -0.16581031980E+02 -0.19485529674E+03  0.21445950022E+03  0.79665040856E+02 0.  0.
         -6    2    1    2    0  502  0.26161064528E+02 -0.41196114982E+02 -0.43560137608E+02  0.18449524711E+03  0.17250938940E+03 0.  0.
        -24    2    5    5    0    0  0.17076800883E+02 -0.21863833498E+01  0.40783006199E+02  0.91006537013E+02  0.79514393565E+02 0.  0.
          5    1    3    3  501    0 -0.63615586425E+02  0.57777146961E+02 -0.26204018662E+03  0.27581205729E+03  0.47000000000E+01 0. -1.
        -11    1    4    4    0    0 -0.31238511729E+01  0.27962111224E+02 -0.79199109145E+02  0.84048420566E+02  0.00000000000E+00 0.  1.
         12    1    4    4    0    0  0.40578373070E+02 -0.44543143203E+02 -0.11565618760E+03  0.13041107965E+03  0.00000000000E+00 0. -1.
         -5    1    5    5    0  502  0.90842636451E+01 -0.39009731632E+02 -0.84343143807E+02  0.93488710095E+02  0.47000000000E+01 0.  1.
         13    1    6    6    0    0 -0.23254305838E+02 -0.85506523243E+01  0.43526556376E+02  0.50084303980E+02  0.00000000000E+00 0. -1.
        -14    1    6    6    0    0  0.40331106721E+02  0.63642689745E+01 -0.27435501767E+01  0.40922233034E+02  0.00000000000E+00 0.  1.
</event>
<event>
12    1  0.8563264E-002  0.1733260E+03  0.7818608E-02  0.1175912E+00
         21   -1    0    0  503  502  0.00000000000E+00  0.00000000000E+00  0.10418044156E+03  0.10418044156E+03  0.00000000000E+00 0.  1.
         21   -1    0    0  501  503 -0.00000000000E+00 -0.00000000000E+00 -0.84206526731E+03  0.84206526731E+03  0.00000000000E+00 0.  1.
          6    2    1    2  501    0 -0.22190513671E+02 -0.11777439618E+02 -0.75378980798E+03  0.77219147669E+03  0.16567883112E+03 0.  0.
         24    2    3    3    0    0 -0.54624742458E+02  0.39461183770E+02 -0.43806753635E+03  0.45066384409E+03  0.81570132115E+02 0.  0.
         -6    2    1    2    0  502  0.22190513671E+02  0.11777439618E+02  0.15904982222E+02  0.17405423218E+03  0.17149571510E+03 0.  0.
        -24    2    5    5    0    0  0.16674533419E+02 -0.53039074144E+02  0.36844692138E+02  0.10555483112E+03  0.81811414747E+02 0.  0.
          5    1    3    3  501    0  0.32434228788E+02 -0.51238623388E+02 -0.31572227162E+03  0.32152763259E+03  0.47000000000E+01 0. -1.
        -13    1    4    4    0    0 -0.15092121318E+02 -0.16107421196E+02 -0.24335881672E+03  0.24435780082E+03  0.00000000000E+00 0.  1.
         14    1    4    4    0    0 -0.39532621141E+02  0.55568604967E+02 -0.19470871963E+03  0.20630604328E+03  0.00000000000E+00 0. -1.
         -5    1    5    5    0  502  0.55159802515E+01  0.64816513762E+02 -0.20939709916E+02  0.68499401061E+02  0.47000000000E+01 0.  1.
         11    1    6    6    0    0  0.38103651887E+02 -0.28961467752E+02 -0.98029305268E+01  0.48854399478E+02  0.00000000000E+00 0. -1.
        -12    1    6    6    0    0 -0.21429118468E+02 -0.24077606392E+02  0.46647622665E+02  0.56700431640E+02  0.00000000000E+00 0.  1.
</event>
<event>
12    1  0.8563264E-002  0.1795563E+03  0.7818608E-02  0.1171459E+00
         21   -1    0    0  501  502  0.00000000000E+00  0.00000000000E+00  0.71658972588E+03  0.71658972588E+03  0.00000000000E+00 0.  1.
         21   -1    0    0  502  503 -0.00000000000E+00 -0.00000000000E+00 -0.69627472147E+02  0.69627472147E+02  0.00000000000E+00 0.  1.
         -6    2    1    2    0  503 -0.41669343921E+02 -0.30717807837E+02  0.57886017793E+03  0.60606895823E+03  0.17193184285E+03 0.  0.
        -24    2    3    3    0    0 -0.97950098448E+01  0.48177712619E+02  0.33553233656E+03  0.34824924465E+03  0.79237322712E+02 0.  0.
          6    2    1    2  501    0  0.41669343921E+02  0.30717807837E+02  0.68102075794E+02  0.18014823980E+03  0.15854203743E+03 0.  0.
         24    2    5    5    0    0 -0.31275706628E+02  0.10219647718E+02  0.60581798219E+02  0.10386062912E+03  0.77680531547E+02 0.  0.
          5    1    5    5  501    0  0.72945050549E+02  0.20498160119E+02  0.75202775755E+01  0.76287610676E+02  0.47000000000E+01 0. -1.
        -11    1    6    6    0    0 -0.44258268502E+02  0.34195124489E+02  0.32343999589E+02  0.64608321283E+02  0.00000000000E+00 0.  1.
         12    1    6    6    0    0  0.12982561874E+02 -0.23975476770E+02  0.28237798629E+02  0.39252307838E+02  0.00000000000E+00 0. -1.
         -5    1    3    3    0  503 -0.31874334076E+02 -0.78895520456E+02  0.24332784137E+03  0.25781971358E+03  0.47000000000E+01 0.  1.
         11    1    4    4    0    0 -0.44301424165E+02  0.28120026197E+02  0.21360328670E+03  0.21995389550E+03  0.00000000000E+00 0. -1.
        -12    1    4    4    0    0  0.34506414320E+02  0.20057686422E+02  0.12192904986E+03  0.12829534915E+03  0.00000000000E+00 0.  1.
</event>
<event>
12    1  0.8563264E-002  0.1768431E+03  0.7818608E-02  0.1173362E+00
         21   -1    0    0  501  502  0.00000000000E+00  0.00000000000E+00  0.22153984942E+03  0.22153984942E+03  0.00000000000E+00 0.  1.
         21   -1    0    0  502  503 -0.00000000000E+00 -0.00000000000E+00 -0.13707864082E+03  0.13707864082E+03  0.00000000000E+00 0.  1.
         -6    2    1    2    0  503 -0.29477864570E+02  0.18525291972E+02  0.12310348042E+02  0.16762315665E+03  0.16350488382E+03 0.  0.
        -24    2    3    3    0    0 -0.43362327634E+02 -0.25974403683E+02  0.51364433232E+02  0.10662878971E+03  0.78590283683E+02 0.  0.
          6    2    1    2  501    0  0.29477864570E+02 -0.18525291972E+02  0.72150860559E+02  0.19099533359E+03  0.17338206317E+03 0.  0.
         24    2    5    5    0    0 -0.58785033027E+01 -0.32936203558E+01 -0.27945417374E+02  0.83648086649E+02  0.78553493313E+02 0.  0.
          5    1    5    5  501    0  0.35356367872E+02 -0.15231671617E+02  0.10009627793E+03  0.10734724694E+03  0.47000000000E+01 0. -1.
        -11    1    6    6    0    0  0.17128582916E+02  0.75661438090E+00  0.22363718098E+02  0.28179721524E+02  0.00000000000E+00 0.  1.
         12    1    6    6    0    0 -0.23007086218E+02 -0.40502347367E+01 -0.50309135472E+02  0.55468365125E+02  0.00000000000E+00 0. -1.
         -5    1    3    3    0  503  0.13884463064E+02  0.44499695656E+02 -0.39054085191E+02  0.60994366938E+02  0.47000000000E+01 0.  1.
         11    1    4    4    0    0 -0.16045981250E+02 -0.25446557485E+02  0.68197620325E+02  0.74538018622E+02  0.00000000000E+00 0. -1.
        -12    1    4    4    0    0 -0.27316346384E+02 -0.52784619792E+00 -0.16833187092E+02  0.32090771089E+02  0.00000000000E+00 0.  1.
</event>
<event>
12    1  0.8563264E-002  0.2114164E+03  0.7818608E-02  0.1140484E+00
         21   -1    0    0  503  502  0.00000000000E+00  0.00000000000E+00  0.65865799617E+03  0.65865799617E+03  0.00000000000E+00 0.  1.
         21   -1    0    0  501  503 -0.00000000000E+00 -0.00000000000E+00 -0.10674903116E+03  0.10674903116E+03  0.00000000000E+00 0.  1.
          6    2    1    2  501    0  0.71105733343E+01  0.12306296512E+03  0.44869789333E+02  0.21612537091E+03  0.17176095108E+03 0.  0.
         24    2    3    3    0    0 -0.35692918794E+01  0.11848166126E+03 -0.24045257025E+02  0.14607951820E+03  0.81917076089E+02 0.  0.
         -6    2    1    2    0  502 -0.71105733343E+01 -0.12306296512E+03  0.50703917568E+03  0.54928165643E+03  0.17154171148E+03 0.  0.
        -24    2    5    5    0    0 -0.65080636549E+02 -0.68343774879E+02  0.22948379410E+03  0.26046718683E+03  0.79208477059E+02 0.  0.
          5    1    3    3  501    0  0.10679865214E+02  0.45813038624E+01  0.68915046358E+02  0.70045852701E+02  0.47000000000E+01 0. -1.
        -11    1    4    4    0    0  0.90894430949E+01 -0.15347248405E+01 -0.23664815914E+02  0.25396788544E+02  0.00000000000E+00 0.  1.
         12    1    4    4    0    0 -0.12658734974E+02  0.12001638610E+03 -0.38044111062E+00  0.12068272966E+03  0.00000000000E+00 0. -1.
         -5    1    5    5    0  502  0.57970063215E+02 -0.54719190239E+02  0.27755538157E+03  0.28881446960E+03  0.47000000000E+01 0.  1.
         13    1    6    6    0    0 -0.46906957666E+02 -0.15411221026E+02  0.42040379930E+02  0.64847220107E+02  0.00000000000E+00 0. -1.
        -14    1    6    6    0    0 -0.18173678884E+02 -0.52932553854E+02  0.18744341417E+03  0.19561996672E+03  0.00000000000E+00 0.  1.
</event>
<event>
12    1  0.8563264E-002  0.2286470E+03  0.7818608E-02  0.1127633E+00
         21   -1    0    0  503  502  0.00000000000E+00  0.00000000000E+00  0.96272147916E+02  0.96272147916E+02  0.00000000000E+00 0.  1.
         21   -1    0    0  501  503 -0.00000000000E+00 -0.00000000000E+00 -0.87278527726E+03  0.87278527726E+03  0.00000000000E+00 0. -1.
          6    2    1    2  501    0  0.10118720385E+03  0.11212099246E+03 -0.68641578988E+03  0.72349574231E+03  0.17166678586E+03 0.  0.
         24    2    3    3    0    0  0.10645557259E+03  0.25051772163E+02 -0.33197039671E+03  0.35844446978E+03  0.79484044960E+02 0.  0.
         -6    2    1    2    0  502 -0.10118720385E+03 -0.11212099246E+03 -0.90097339464E+02  0.24556168287E+03  0.17138565384E+03 0.  0.
        -24    2    5    5    0    0 -0.10031624092E+03 -0.77375227356E+02  0.50330766013E+01  0.14417177790E+03  0.68628679733E+02 0.  0.
          5    1    3    3  501    0 -0.52683687402E+01  0.87069220292E+02 -0.35444539317E+03  0.36505127252E+03  0.47000000000E+01 0. -1.
        -13    1    4    4    0    0  0.11544494625E+03  0.28308204880E+02 -0.26050082683E+03  0.28633821061E+03  0.00000000000E+00 0.  1.
         14    1    4    4    0    0 -0.89893736597E+01 -0.32564327164E+01 -0.71469569882E+02  0.72106259173E+02  0.00000000000E+00 0. -1.
         -5    1    5    5    0  502 -0.87096292645E+00 -0.34745765099E+02 -0.95130416065E+02  0.10138990497E+03  0.47000000000E+01 0.  1.
         13    1    6    6    0    0  0.85103768556E+01 -0.15572463476E+02 -0.54978334441E+01  0.18578328922E+02  0.00000000000E+00 0. -1.
        -14    1    6    6    0    0 -0.10882661778E+03 -0.61802763880E+02  0.10530910045E+02  0.12559344898E+03  0.00000000000E+00 0.  1.
</event>
<event>
12    1  0.8563264E-002  0.2176408E+03  0.7818608E-02  0.1135951E+00
         21   -1    0    0  501  502  0.00000000000E+00  0.00000000000E+00  0.25269235752E+03  0.25269235752E+03  0.00000000000E+00 0. -1.
         21   -1    0    0  502  503 -0.00000000000E+00 -0.00000000000E+00 -0.21361813545E+03  0.21361813545E+03  0.00000000000E+00 0.  1.
         -6    2    1    2    0  503  0.88820586141E+02 -0.96807844246E+02 -0.64071441380E+02  0.22687589047E+03  0.17351272243E+03 0.  0.
        -24    2    3    3    0    0  0.68780809675E+02 -0.12467940517E+03 -0.11317234243E+02  0.16376081366E+03  0.80086019058E+02 0.  0.
          6    2    1    2  501    0 -0.88820586141E+02  0.96807844246E+02  0.10314566345E+03  0.23943460249E+03  0.17154896022E+03 0.  0.
         24    2    5    5    0    0 -0.35769292866E+02  0.35226810070E+02  0.12390367393E+03  0.15541288811E+03  0.79250709267E+02 0.  0.
          5    1    5    5  501    0 -0.53051293275E+02  0.61581034175E+02 -0.20758010479E+02  0.84021714380E+02  0.47000000000E+01 0. -1.
        -11    1    6    6    0    0 -0.19004882574E+01  0.13057827996E+02 -0.93332893862E+01  0.16162580807E+02  0.00000000000E+00 0.  1.
         12    1    6    6    0    0 -0.33868804608E+02  0.22168982074E+02  0.13323696331E+03  0.13925030731E+03  0.00000000000E+00 0. -1.
         -5    1    3    3    0  503  0.20039776467E+02  0.27871560923E+02 -0.52754207137E+02  0.63115076802E+02  0.47000000000E+01 0.  1.
         13    1    4    4    0    0  0.17364435973E+02 -0.72785773837E+01  0.24297024936E+02  0.30738359523E+02  0.00000000000E+00 0. -1.
        -14    1    4    4    0    0  0.51416373701E+02 -0.11740082779E+03 -0.35614259179E+02  0.13302245414E+03  0.00000000000E+00 0.  1.
</event>
<event>
12    1  0.8563264E-002  0.1809329E+03  0.7818608E-02  0.1167556E+00
         21   -1    0    0  501  502  0.00000000000E+00  0.00000000000E+00  0.27057504665E+03  0.27057504665E+03  0.00000000000E+00 0.  1.
         21   -1    0    0  502  503 -0.00000000000E+00 -0.00000000000E+00 -0.12867575696E+03  0.12867575696E+03  0.00000000000E+00 0.  1.
         -6    2    1    2    0  503  0.44672966218E+02  0.90235816329E+01  0.16272752607E+02  0.17898106824E+03  0.17231460001E+03 0.  0.
        -24    2    3    3    0    0 -0.86760485890E+01  0.63907609341E+02  0.88997887375E+01  0.10194325626E+03  0.78445936206E+02 0.  0.
          6    2    1    2  501    0 -0.44672966218E+02 -0.90235816329E+01  0.12562653708E+03  0.22026973536E+03  0.17509891650E+03 0.  0.
         24    2    5    5    0    0 -0.31764760508E+02 -0.26463659852E+02  0.15724897586E+03  0.18163236049E+03  0.80955226295E+02 0.  0.
          5    1    5    5  501    0 -0.12908205710E+02  0.17440078219E+02 -0.31622438777E+02  0.38637374874E+02  0.47000000000E+01 0. -1.
        -13    1    6    6    0    0 -0.41801035300E+02  0.31930198166E+01  0.13945531525E+03  0.14562042054E+03  0.00000000000E+00 0.  1.
         14    1    6    6    0    0  0.10036274792E+02 -0.29656679668E+02  0.17793660609E+02  0.36011939944E+02  0.00000000000E+00 0. -1.
         -5    1    3    3    0  503  0.53349014807E+02 -0.54884027709E+02  0.73729638698E+01  0.77037811980E+02  0.47000000000E+01 0.  1.
         13    1    4    4    0    0 -0.31600279482E+02  0.78710731277E+01  0.22887506560E+02  0.39804138127E+02  0.00000000000E+00 0. -1.
        -14    1    4    4    0    0  0.22924230893E+02  0.56036536214E+02 -0.13987717822E+02  0.62139118136E+02  0.00000000000E+00 0.  1.
</event>
<event>
12    1  0.8563264E-002  0.1787069E+03  0.7818608E-02  0.1169147E+00
         21   -1    0    0  503  502  0.00000000000E+00  0.00000000000E+00  0.37001765307E+02  0.37001765307E+02  0.00000000000E+00 0. -1.
         21   -1    0    0  501  503 -0.00000000000E+00 -0.00000000000E+00 -0.91248704347E+03  0.91248704347E+03  0.00000000000E+00 0. -1.
          6    2    1    2  501    0 -0.50299128454E+02 -0.87819657939E+01 -0.54968351561E+03  0.57789367936E+03  0.17088596216E+03 0.  0.
         24    2    3    3    0    0  0.19249125693E+00  0.40921866862E+02 -0.42714215521E+03  0.43626617620E+03  0.78759885096E+02 0.  0.
         -6    2    1    2    0  502  0.50299128454E+02  0.87819657939E+01 -0.32580176256E+03  0.37159512942E+03  0.17125719394E+03 0.  0.
        -24    2    5    5    0    0 -0.21418440119E+02 -0.26840878118E+02 -0.10356138041E+03  0.13532140234E+03  0.80048361035E+02 0.  0.
          5    1    3    3  501    0 -0.50491619711E+02 -0.49703832656E+02 -0.12254136039E+03  0.14162750315E+03  0.47000000000E+01 0. -1.
        -13    1    4    4    0    0 -0.29540033443E+02  0.43704736037E+02 -0.18779404942E+03  0.19506235548E+03  0.00000000000E+00 0.  1.
         14    1    4    4    0    0  0.29732524700E+02 -0.27828691746E+01 -0.23934810579E+03  0.24120382072E+03  0.00000000000E+00 0. -1.
         -5    1    5    5    0  502  0.71717568573E+02  0.35622843912E+02 -0.22224038215E+03  0.23627372708E+03  0.47000000000E+01 0.  1.
         13    1    6    6    0    0 -0.34815948888E+02  0.91687123404E+01 -0.15412700243E+02  0.39163336320E+02  0.00000000000E+00 0. -1.
        -14    1    6    6    0    0  0.13397508769E+02 -0.36009590458E+02 -0.88148680167E+02  0.96158066023E+02  0.00000000000E+00 0.  1.
</event>
<event>
12    1  0.8563264E-002  0.2048403E+03  0.7818608E-02  0.1146387E+00
         21   -1    0    0  503  502  0.00000000000E+00  0.00000000000E+00  0.43009319688E+03  0.43009319688E+03  0.00000000000E+00 0. -1.
         21   -1    0    0  501  503 -0.00000000000E+00 -0.00000000000E+00 -0.19153900150E+03  0.19153900150E+03  0.00000000000E+00 0.  1.
          6    2    1    2  501    0 -0.96248876221E+02 -0.33862395430E+02 -0.10068750880E+03  0.22534381663E+03  0.17387165745E+03 0.  0.
         24    2    3    3    0    0 -0.66295995016E+02 -0.88986992832E+02 -0.56615639132E+02  0.14853030201E+03  0.80883101902E+02 0.  0.
         -6    2    1    2    0  502  0.96248876221E+02  0.33862395430E+02  0.33924170418E+03  0.39628838175E+03  0.17762049336E+03 0.  0.
        -24    2    5    5    0    0  0.69534064555E+00  0.63929580758E+02  0.13602578122E+03  0.16967568321E+03  0.78735948102E+02 0.  0.
          5    1    3    3  501    0 -0.29952881205E+02  0.55124597402E+02 -0.44071869669E+02  0.76813514614E+02  0.47000000000E+01 0. -1.
        -13    1    4    4    0    0 -0.42730157955E+02  0.25020536887E+01 -0.16036852916E+02  0.45708941390E+02  0.00000000000E+00 0.  1.
         14    1    4    4    0    0 -0.23565837061E+02 -0.91489046520E+02 -0.40578786216E+02  0.10282136062E+03  0.00000000000E+00 0. -1.
         -5    1    5    5    0  502  0.95553535575E+02 -0.30067185328E+02  0.20321592296E+03  0.22661269854E+03  0.47000000000E+01 0.  1.
         13    1    6    6    0    0  0.31845381568E+02  0.62060097384E+02  0.10124266866E+03  0.12294576842E+03  0.00000000000E+00 0. -1.
        -14    1    6    6    0    0 -0.31150040922E+02  0.18694833733E+01  0.34783112556E+02  0.46729914794E+02  0.00000000000E+00 0.  1.
</event>
<event>
12    1  0.8563264E-002  0.1893719E+03  0.7818608E-02  0.1159137E+00
         21   -1    0    0  503  502  0.00000000000E+00  0.00000000000E+00  0.17697627843E+02  0.17697627843E+02  0.00000000000E+00 0.  1.
         21   -1    0    0  501  503 -0.00000000000E+00 -0.00000000000E+00 -0.21791512113E+04  0.21791512113E+04  0.00000000000E+00 0.  1.
          6    2    1    2  501    0 -0.41330893716E+01 -0.78974497990E+02 -0.13751150197E+04  0.13880286729E+04  0.17154656962E+03 0.  0.
         24    2    3    3    0    0  0.27565275295E+02 -0.50120507549E+02 -0.12802670907E+04  0.12838386603E+04  0.76720091475E+02 0.  0.
         -6    2    1    2    0  502  0.41330893716E+01  0.78974497990E+02 -0.78633856374E+03  0.80882016626E+03  0.17206879658E+03 0.  0.
        -24    2    5    5    0    0  0.55282477429E+02  0.89552547039E+02 -0.62324428885E+03  0.63750178568E+03  0.83061857502E+02 0.  0.
          5    1    3    3  501    0 -0.31698364667E+02 -0.28853990441E+02 -0.94847928993E+02  0.10419001258E+03  0.47000000000E+01 0. -1.
        -11    1    4    4    0    0  0.14867019337E+02 -0.22877128999E+01 -0.42514067677E+02  0.45096650039E+02  0.00000000000E+00 0.  1.
         12    1    4    4    0    0  0.12698255959E+02 -0.47832794649E+02 -0.12377530230E+04  0.12387420103E+04  0.00000000000E+00 0. -1.
         -5    1    5    5    0  502 -0.51149388057E+02 -0.10578049049E+02 -0.16309427489E+03  0.17131838057E+03  0.47000000000E+01 0.  1.
         13    1    6    6    0    0  0.31954839662E+02  0.85855710861E+00 -0.29369014470E+03  0.29542469429E+03  0.00000000000E+00 0. -1.
        -14    1    6    6    0    0  0.23327637767E+02  0.88693989931E+02 -0.32955414415E+03  0.34207709140E+03  0.00000000000E+00 0.  1.
</event>
<event>
12    1  0.8563264E-002  0.2672150E+03  0.7818608E-02  0.1102977E+00
         21   -1    0    0  503  502  0.00000000000E+00  0.00000000000E+00  0.21497895047E+04  0.21497895047E+04  0.00000000000E+00 0.  1.
         21   -1    0    0  501  503 -0.00000000000E+00 -0.00000000000E+00 -0.34973831885E+02  0.34973831885E+02  0.00000000000E+00 0.  1.
          6    2    1    2  501    0  0.59576383197E+02  0.19449384966E+03  0.80811758142E+03  0.85115090057E+03  0.17328192963E+03 0.  0.
         24    2    3    3    0    0  0.66433001175E+02  0.16821676090E+03  0.44792750526E+03  0.48990793583E+03  0.81611968041E+02 0.  0.
         -6    2    1    2    0  502 -0.59576383197E+02 -0.19449384966E+03  0.13066980914E+04  0.13336124360E+04  0.17229342549E+03 0.  0.
        -24    2    5    5    0    0 -0.89775715469E+02 -0.12789036906E+03  0.66746399287E+03  0.69019162037E+03  0.80253756706E+02 0.  0.
          5    1    3    3  501    0 -0.68566179784E+01  0.26277088754E+02  0.36019007616E+03  0.36124296473E+03  0.47000000000E+01 0. -1.
        -13    1    4    4    0    0 -0.14276953178E+02  0.12693128600E+02  0.81959462719E+02  0.84156404598E+02  0.00000000000E+00 0.  1.
         14    1    4    4    0    0  0.80709954353E+02  0.15552363230E+03  0.36596804254E+03  0.40575153124E+03  0.00000000000E+00 0. -1.
         -5    1    5    5    0  502  0.30199332272E+02 -0.66603480597E+02  0.63923409850E+03  0.64342081563E+03  0.47000000000E+01 0.  1.
         11    1    6    6    0    0 -0.75645361205E+02 -0.61793364544E+02  0.50272198324E+03  0.51212306432E+03  0.00000000000E+00 0. -1.
        -12    1    6    6    0    0 -0.14130354263E+02 -0.66097004517E+02  0.16474200963E+03  0.17806855605E+03  0.00000000000E+00 0.  1.
</event>
<event>
12    1  0.8563264E-002  0.1967649E+03  0.7818608E-02  0.1152608E+00
         21   -1    0    0  503  502  0.00000000000E+00  0.00000000000E+00  0.29474093879E+03  0.29474093879E+03  0.00000000000E+00 0.  1.
         21   -1    0    0  501  503 -0.00000000000E+00 -0.00000000000E+00 -0.16094325668E+03  0.16094325668E+03  0.00000000000E+00 0.  1.
          6    2    1    2  501    0  0.79458512026E+02 -0.50359851558E+02 -0.31282147580E+02  0.19923604760E+03  0.17281973302E+03 0.  0.
         24    2    3    3    0    0  0.77203782300E+02 -0.21013777523E+02 -0.80479083467E+02  0.14171470922E+03  0.84877400333E+02 0.  0.
         -6    2    1    2    0  502 -0.79458512026E+02  0.50359851558E+02  0.16507982970E+03  0.25644814788E+03  0.17223394727E+03 0.  0.
        -24    2    5    5    0    0  0.27250035343E+02  0.18103221382E+02  0.69410140347E+02  0.10947201467E+03  0.78077290951E+02 0.  0.
          5    1    3    3  501    0  0.22547297260E+01 -0.29346074035E+02  0.49196935887E+02  0.57521338372E+02  0.47000000000E+01 0. -1.
        -13    1    4    4    0    0  0.25923275140E+02  0.17030347689E+02 -0.70587247947E+02  0.77101287338E+02  0.00000000000E+00 0.  1.
         14    1    4    4    0    0  0.51280507161E+02 -0.38044125212E+02 -0.98918355200E+01  0.64613421885E+02  0.00000000000E+00 0. -1.
         -5    1    5    5    0  502 -0.10670854737E+03  0.32256630176E+02  0.95669689350E+02  0.14697613321E+03  0.47000000000E+01 0.  1.
         11    1    6    6    0    0  0.28478544885E+02  0.46492153198E+02  0.55626096077E+02  0.77889732266E+02  0.00000000000E+00 0. -1.
        -12    1    6    6    0    0 -0.12285095427E+01 -0.28388931816E+02  0.13784044270E+02  0.31582282403E+02  0.00000000000E+00 0.  1.
</event>
<event>
12    1  0.8563264E-002  0.1786184E+03  0.7818608E-02  0.1169265E+00
         21   -1    0    0  501  502  0.00000000000E+00  0.00000000000E+00  0.23947834949E+03  0.23947834949E+03  0.00000000000E+00 0. -1.
         21   -1    0    0  502  503 -0.00000000000E+00 -0.00000000000E+00 -0.15503264199E+03  0.15503264199E+03  0.00000000000E+00 0. -1.
         -6    2    1    2    0  503 -0.39164665412E+02 -0.25524792750E+02 -0.32317578362E+02  0.18151849208E+03  0.17239243323E+03 0.  0.
        -24    2    3    3    0    0 -0.69339045792E+02  0.29674831766E+02  0.80480784570E+01  0.10662544816E+03  0.74938079211E+02 0.  0.
          6    2    1    2  501    0  0.39164665412E+02  0.25524792750E+02  0.11676328586E+03  0.21299249940E+03  0.17189169210E+03 0.  0.
         24    2    5    5    0    0  0.31799072013E-01  0.67410105043E+02  0.11516958167E+03  0.15545650626E+03  0.79740639084E+02 0.  0.
          5    1    5    5  501    0  0.39132866340E+02 -0.41885312294E+02  0.15937041900E+01  0.57535993144E+02  0.47000000000E+01 0. -1.
        -13    1    6    6    0    0  0.11184913960E+02  0.31387044425E+02  0.11285975883E+03  0.11767571551E+03  0.00000000000E+00 0.  1.
         14    1    6    6    0    0 -0.11153114888E+02  0.36023060618E+02  0.23098228473E+01  0.37780790748E+02  0.00000000000E+00 0. -1.
         -5    1    3    3    0  503  0.30174380379E+02 -0.55199624516E+02 -0.40365656819E+02  0.74893043925E+02  0.47000000000E+01 0.  1.
         11    1    4    4    0    0 -0.14745514124E+02  0.54937182235E-01  0.35708745362E+02  0.38633504891E+02  0.00000000000E+00 0. -1.
        -12    1    4    4    0    0 -0.54593531668E+02  0.29619894584E+02 -0.27660666905E+02  0.67991943264E+02  0.00000000000E+00 0.  1.
</event>
<event>
12    1  0.8563264E-002  0.1811035E+03  0.7818608E-02  0.1166772E+00
         21   -1    0    0  501  502  0.00000000000E+00  0.00000000000E+00  0.42491518848E+02  0.42491518848E+02  0.00000000000E+00 0. -1.
         21   -1    0    0  502  503 -0.00000000000E+00 -0.00000000000E+00 -0.88641258934E+03  0.88641258934E+03  0.00000000000E+00 0.  1.
         -6    2    1    2    0  503  0.44626221281E+02  0.31611741211E+02 -0.58919200139E+03  0.61635751778E+03  0.17250673442E+03 0.  0.
        -24    2    3    3    0    0  0.53670801939E+02  0.13937255588E+01 -0.57240186737E+03  0.58031682537E+03  0.79001408752E+02 0.  0.
          6    2    1    2  501    0 -0.44626221281E+02 -0.31611741211E+02 -0.25472906911E+03  0.31254659041E+03  0.17264898123E+03 0.  0.
         24    2    5    5    0    0  0.19133722612E+01 -0.75726117366E+02 -0.20913667289E+03  0.23372547304E+03  0.71772856669E+02 0.  0.
          5    1    5    5  501    0 -0.46539593543E+02  0.44114376155E+02 -0.45592396214E+02  0.78821117368E+02  0.47000000000E+01 0. -1.
        -11    1    6    6    0    0  0.28020381177E+02 -0.45328752724E+02 -0.16820867517E+03  0.17644828134E+03  0.00000000000E+00 0.  1.
         12    1    6    6    0    0 -0.26107008916E+02 -0.30397364641E+02 -0.40927997725E+02  0.57277191703E+02  0.00000000000E+00 0. -1.
         -5    1    3    3    0  503 -0.90445806579E+01  0.30218015652E+02 -0.16790134012E+02  0.36040692410E+02  0.47000000000E+01 0.  1.
         11    1    4    4    0    0  0.53294798907E+02  0.26446917801E+02 -0.25163748626E+03  0.25857532663E+03  0.00000000000E+00 0. -1.
        -12    1    4    4    0    0  0.37600303229E+00 -0.25053192242E+02 -0.32076438112E+03  0.32174149874E+03  0.00000000000E+00 0.  1.
</event>
<event>
12    1  0.8563264E-002  0.1913845E+03  0.7818608E-02  0.1157818E+00
         21   -1    0    0  501  502  0.00000000000E+00  0.00000000000E+00  0.16670488944E+03  0.16670488944E+03  0.00000000000E+00 0.  1.
         21   -1    0    0  502  503 -0.00000000000E+00 -0.00000000000E+00 -0.23372878117E+03  0.23372878117E+03  0.00000000000E+00 0. -1.
         -6    2    1    2    0  503  0.12402110066E+02  0.83577271548E+02 -0.87386541716E+02  0.20796899357E+03  0.16874750949E+03 0.  0.
        -24    2    3    3    0    0 -0.45245571593E+02  0.58357751465E+02 -0.11580130908E+02  0.10933846425E+03  0.79799820974E+02 0.  0.
          6    2    1    2  501    0 -0.12402110066E+02 -0.83577271548E+02  0.20362649988E+02  0.19246467705E+03  0.17172373669E+03 0.  0.
         24    2    5    5    0    0  0.53691948803E+02 -0.50101773294E+02  0.41378941707E+02  0.11531023376E+03  0.78684306824E+02 0.  0.
          5    1    5    5  501    0 -0.66094058869E+02 -0.33475498254E+02 -0.21016291719E+02  0.77154443286E+02  0.47000000000E+01 0. -1.
        -13    1    6    6    0    0  0.35296083750E+02 -0.18723772455E+00  0.50220870182E+02  0.61383909845E+02  0.00000000000E+00 0.  1.
         14    1    6    6    0    0  0.18395865053E+02 -0.49914535570E+02 -0.88419284749E+01  0.53926323918E+02  0.00000000000E+00 0. -1.
         -5    1    3    3    0  503  0.57647681659E+02  0.25219520083E+02 -0.75806410807E+02  0.98630529317E+02  0.47000000000E+01 0.  1.
         11    1    4    4    0    0 -0.63630618670E+02  0.51095010079E+02 -0.25112491698E+02  0.85382626609E+02  0.00000000000E+00 0. -1.
        -12    1    4    4    0    0  0.18385047077E+02  0.72627413860E+01  0.13532360790E+02  0.23955837640E+02  0.00000000000E+00 0.  1.
</event>
<event>
12    1  0.8563264E-002  0.1958830E+03  0.7818608E-02  0.1154115E+00
         21   -1    0    0  501  502  0.00000000000E+00  0.00000000000E+00  0.82245287490E+02  0.82245287490E+02  0.00000000000E+00 0. -1.
         21   -1    0    0  502  503 -0.00000000000E+00 -0.00000000000E+00 -0.77637274257E+03  0.77637274257E+03  0.00000000000E+00 0.  1.
         -6    2    1    2    0  503 -0.87792542699E+02 -0.22960062616E+02 -0.62022479598E+03  0.64925765832E+03  0.16918041938E+03 0.  0.
        -24    2    3    3    0    0 -0.55653070318E+02 -0.60647387240E+02 -0.23924946811E+03  0.26504733756E+03  0.78958301313E+02 0.  0.
          6    2    1    2  501    0  0.87792542699E+02  0.22960062616E+02 -0.73902659093E+02  0.20936037174E+03  0.17359570042E+03 0.  0.
         24    2    5    5    0    0  0.58559596866E+00  0.56776738360E+02 -0.22413355527E+02  0.10248728112E+03  0.82324621736E+02 0.  0.
          5    1    5    5  501    0  0.87206946730E+02 -0.33816675744E+02 -0.51489303565E+02  0.10687309062E+03  0.47000000000E+01 0. -1.
        -11    1    6    6    0    0 -0.97931772912E+00  0.64319813617E+02 -0.45077786169E+02  0.78549374872E+02  0.00000000000E+00 0.  1.
         12    1    6    6    0    0  0.15649136978E+01 -0.75430752572E+01  0.22664430642E+02  0.23937906248E+02  0.00000000000E+00 0. -1.
         -5    1    3    3    0  503 -0.32139472381E+02  0.37687324624E+02 -0.38097532788E+03  0.38421032075E+03  0.47000000000E+01 0.  1.
         11    1    4    4    0    0 -0.11379954882E+02 -0.42958508314E+02 -0.38763930803E+02  0.58971002544E+02  0.00000000000E+00 0. -1.
        -12    1    4    4    0    0 -0.44273115435E+02 -0.17688878926E+02 -0.20048553730E+03  0.20607633502E+03  0.00000000000E+00 0.  1.
</event>
<event>
12    1  0.8563264E-002  0.1864705E+03  0.7818608E-02  0.1161694E+00
         21   -1    0    0  501  502  0.00000000000E+00  0.00000000000E+00  0.47221494671E+03  0.47221494671E+03  0.00000000000E+00 0. -1.
         21   -1    0    0  502  503 -0.00000000000E+00 -0.00000000000E+00 -0.74361568636E+02  0.74361568636E+02  0.00000000000E+00 0. -1.
         -6    2    1    2    0  503 -0.42120155081E+02  0.59571609124E+02  0.17155962582E+03  0.25335287783E+03  0.17155783695E+03 0.  0.
        -24    2    3    3    0    0 -0.22268830918E+02  0.36312602614E+02  0.19519042936E+03  0.21442266680E+03  0.77867004467E+02 0.  0.
          6    2    1    2  501    0  0.42120155081E+02 -0.59571609124E+02  0.22629375226E+03  0.29322363751E+03  0.17160523071E+03 0.  0.
         24    2    5    5    0    0  0.89276627406E+02 -0.67752367609E+02  0.18098328634E+03  0.22714954264E+03  0.79254433749E+02 0.  0.
          5    1    5    5  501    0 -0.47156472325E+02  0.81807584849E+01  0.45310465913E+02  0.66074094869E+02  0.47000000000E+01 0. -1.
        -13    1    6    6    0    0  0.19427925362E+02  0.18118526900E+02  0.34016595551E+02  0.43160793248E+02  0.00000000000E+00 0.  1.
         14    1    6    6    0    0  0.69848702044E+02 -0.85870894509E+02  0.14696669079E+03  0.18398874939E+03  0.00000000000E+00 0. -1.
         -5    1    3    3    0  503 -0.19851324163E+02  0.23259006511E+02 -0.23630803545E+02  0.38930211033E+02  0.47000000000E+01 0.  1.
         13    1    4    4    0    0 -0.24744972510E+02  0.41506506106E+02  0.51515267779E+02  0.70632333445E+02  0.00000000000E+00 0. -1.
        -14    1    4    4    0    0  0.24761415915E+01 -0.51939034923E+01  0.14367516158E+03  0.14379033335E+03  0.00000000000E+00 0.  1.
</event>
<event>
12    1  0.8563264E-002  0.3106013E+03  0.7818608E-02  0.1080097E+00
         21   -1    0    0  501  502  0.00000000000E+00  0.00000000000E+00  0.10115585297E+03  0.10115585297E+03  0.00000000000E+00 0.  1.
         21   -1    0    0  502  503 -0.00000000000E+00 -0.00000000000E+00 -0.22083354245E+04  0.22083354245E+04  0.00000000000E+00 0. -1.
         -6    2    1    2    0  503 -0.23264813305E+03  0.11300388744E+03 -0.19245638736E+04  0.19494664046E+04  0.17198292571E+03 0.  0.
        -24    2    3    3    0    0 -0.18104772936E+03  0.14873488797E+03 -0.15503356997E+04  0.15699823836E+04  0.80022220905E+02 0.  0.
          6    2    1    2  501    0  0.23264813305E+03 -0.11300388744E+03 -0.18261569792E+03  0.36002487285E+03  0.17138956665E+03 0.  0.
         24    2    5    5    0    0  0.24634401150E+03 -0.75637172457E+02 -0.16609582540E+03  0.31667923105E+03  0.79319343832E+02 0.  0.
          5    1    5    5  501    0 -0.13695878446E+02 -0.37366714983E+02 -0.16519872518E+02  0.43345641800E+02  0.47000000000E+01 0. -1.
        -13    1    6    6    0    0  0.20582560413E+03 -0.56906695132E+02 -0.97298062131E+02  0.23466883935E+03  0.00000000000E+00 0.  1.
         14    1    6    6    0    0  0.40518407368E+02 -0.18730477325E+02 -0.68797763272E+02  0.82010391706E+02  0.00000000000E+00 0. -1.
         -5    1    3    3    0  503 -0.51600403688E+02 -0.35731000531E+02 -0.37422817395E+03  0.37948402105E+03  0.47000000000E+01 0.  1.
         11    1    4    4    0    0 -0.15226062823E+03  0.95342411932E+02 -0.97091892938E+03  0.98739912997E+03  0.00000000000E+00 0. -1.
        -12    1    4    4    0    0 -0.28787101129E+02  0.53392476039E+02 -0.57941677028E+03  0.58258325360E+03  0.00000000000E+00 0.  1.
</event>
<event>
12    1  0.8563264E-002  0.2404006E+03  0.7818608E-02  0.1119679E+00
         21   -1    0    0  503  502  0.00000000000E+00  0.00000000000E+00  0.83100534292E+03  0.83100534292E+03  0.00000000000E+00 0. -1.
         21   -1    0    0  501  503 -0.00000000000E+00 -0.00000000000E+00 -0.77133852710E+02  0.77133852710E+02  0.00000000000E+00 0. -1.
          6    2    1    2  501    0 -0.16594919424E+03 -0.18042258252E+02  0.23140580327E+03  0.33301935808E+03  0.17172241820E+03 0.  0.
         24    2    3    3    0    0 -0.11558991712E+03 -0.60637654948E+02  0.10656915434E+03  0.19175116091E+03  0.91507206918E+02 0.  0.
         -6    2    1    2    0  502  0.16594919424E+03  0.18042258252E+02  0.52246568693E+03  0.57511983755E+03  0.17299646057E+03 0.  0.
        -24    2    5    5    0    0  0.92160113650E+02  0.38042316312E+02  0.45968408979E+03  0.47608222007E+03  0.73512675634E+02 0.  0.
          5    1    3    3  501    0 -0.50359277125E+02  0.42595396697E+02  0.12483664894E+03  0.14126819717E+03  0.47000000000E+01 0. -1.
        -11    1    4    4    0    0 -0.56884022560E+01 -0.27969691409E+02  0.62880975554E+02  0.69055619933E+02  0.00000000000E+00 0.  1.
         12    1    4    4    0    0 -0.10990151486E+03 -0.32667963540E+02  0.43688178783E+02  0.12269554098E+03  0.00000000000E+00 0. -1.
         -5    1    5    5    0  502  0.73789080592E+02 -0.20000058060E+02  0.62781597142E+02  0.99037617483E+02  0.47000000000E+01 0.  1.
         11    1    6    6    0    0  0.35832501721E+02 -0.40414486344E+01  0.29249762847E+03  0.29471200205E+03  0.00000000000E+00 0. -1.
        -12    1    6    6    0    0  0.56327611929E+02  0.42083764947E+02  0.16718646132E+03  0.18137021802E+03  0.00000000000E+00 0.  1.
</event>
<event>
12    1  0.8563264E-002  0.2455431E+03  0.7818608E-02  0.1116215E+00
         21   -1    0    0  503  502  0.00000000000E+00  0.00000000000E+00  0.30471464011E+03  0.30471464011E+03  0.00000000000E+00 0.  1.
         21   -1    0    0  501  503 -0.00000000000E+00 -0.00000000000E+00 -0.26356517675E+03  0.26356517675E+03  0.00000000000E+00 0. -1.
          6    2    1    2  501    0 -0.38050502402E+02  0.17037070594E+03 -0.12160616863E+03  0.27400635308E+03  0.17267716440E+03 0.  0.
         24    2    3    3    0    0  0.24230346080E+02  0.13841210976E+03 -0.12520298724E+03  0.20375478326E+03  0.78071773964E+02 0.  0.
         -6    2    1    2    0  502  0.38050502402E+02 -0.17037070594E+03  0.16275563198E+03  0.29427346378E+03  0.17214371197E+03 0.  0.
        -24    2    5    5    0    0 -0.34563723519E+02 -0.14186823185E+03  0.12440275993E+03  0.20722032122E+03  0.78377092683E+02 0.  0.
          5    1    3    3  501    0 -0.62280848482E+02  0.31958596178E+02  0.35968186167E+01  0.70251569815E+02  0.47000000000E+01 0. -1.
        -13    1    4    4    0    0  0.14895101274E+02  0.66614935518E+02 -0.11892318433E+02  0.69288100809E+02  0.00000000000E+00 0.  1.
         14    1    4    4    0    0  0.93352448056E+01  0.71797174240E+02 -0.11331066881E+03  0.13446668246E+03  0.00000000000E+00 0. -1.
         -5    1    5    5    0  502  0.72614225921E+02 -0.28502474083E+02  0.38352872053E+02  0.87053142560E+02  0.47000000000E+01 0.  1.
         11    1    6    6    0    0 -0.39368725318E+02 -0.62892198907E+02  0.21179834299E+02  0.77161587578E+02  0.00000000000E+00 0. -1.
        -12    1    6    6    0    0  0.48050017990E+01 -0.78976032947E+02  0.10322292563E+03  0.13005873365E+03  0.00000000000E+00 0.  1.
</event>
<event>
12    1  0.8563264E-002  0.1842458E+03  0.7818608E-02  0.1163984E+00
         21   -1    0    0  503  502  0.00000000000E+00  0.00000000000E+00  0.10498908589E+04  0.10498908589E+04  0.00000000000E+00 0. -1.
         21   -1    0    0  501  503 -0.00000000000E+00 -0.00000000000E+00 -0.48881389958E+02  0.48881389958E+02  0.00000000000E+00 0. -1.
          6    2    1    2  501    0  0.63984820749E+02  0.10718937301E+02  0.18008658134E+03  0.25763866133E+03  0.17244578897E+03 0.  0.
         24    2    3    3    0    0  0.16240774793E+02  0.29189911045E+01  0.12967952252E+02  0.83595392944E+02  0.80918098475E+02 0.  0.
         -6    2    1    2    0  502 -0.63984820749E+02 -0.10718937301E+02  0.82092288757E+03  0.84113358749E+03  0.17141286930E+03 0.  0.
        -24    2    5    5    0    0 -0.50489646897E+02 -0.23216061178E+01  0.25844856254E+03  0.27841510440E+03  0.90358821275E+02 0.  0.
          5    1    3    3  501    0  0.47744045956E+02  0.77999461970E+01  0.16711862908E+03  0.17404326839E+03  0.47000000000E+01 0. -1.
        -11    1    4    4    0    0 -0.12600284023E+02  0.88897720046E+01 -0.28693361073E+02  0.32574593987E+02  0.00000000000E+00 0.  1.
         12    1    4    4    0    0  0.28841058815E+02 -0.59707809001E+01  0.41661313326E+02  0.51020798957E+02  0.00000000000E+00 0. -1.
         -5    1    5    5    0  502 -0.13495173852E+02 -0.83973311836E+01  0.56247432503E+03  0.56271848309E+03  0.47000000000E+01 0.  1.
         11    1    6    6    0    0 -0.53618364855E-01 -0.17268342477E+02  0.19601744958E+03  0.19677662225E+03  0.00000000000E+00 0. -1.
        -12    1    6    6    0    0 -0.50436028532E+02  0.14946736359E+02  0.62431112962E+02  0.81638482149E+02  0.00000000000E+00 0.  1.
</event>
<event>
12    1  0.8563264E-002  0.2550611E+03  0.7818608E-02  0.1110312E+00
         21   -1    0    0  501  502  0.00000000000E+00  0.00000000000E+00  0.17122855905E+03  0.17122855905E+03  0.00000000000E+00 0.  1.
         21   -1    0    0  502  503 -0.00000000000E+00 -0.00000000000E+00 -0.42587779851E+03  0.42587779851E+03  0.00000000000E+00 0. -1.
         -6    2    1    2    0  503  0.92392855201E+02  0.16255648989E+03 -0.22730158323E+03  0.34164624931E+03  0.17347938735E+03 0.  0.
        -24    2    3    3    0    0  0.10537902614E+03  0.18526888587E+03 -0.21257979345E+03  0.31126015609E+03  0.79141752361E+02 0.  0.
          6    2    1    2  501    0 -0.92392855201E+02 -0.16255648989E+03 -0.27347656229E+02  0.25546010824E+03  0.17190381178E+03 0.  0.
         24    2    5    5    0    0 -0.57781852025E+02 -0.13333081793E+03  0.44342588349E+02  0.17052694270E+03  0.77442388977E+02 0.  0.
          5    1    5    5  501    0 -0.34611003176E+02 -0.29225671956E+02 -0.71690244578E+02  0.84933165546E+02  0.47000000000E+01 0. -1.
        -11    1    6    6    0    0 -0.65185802262E+00 -0.95352920736E+01  0.32265165444E+02  0.33650967519E+02  0.00000000000E+00 0.  1.
         12    1    6    6    0    0 -0.57129994002E+02 -0.12379552586E+03  0.12077422905E+02  0.13687597518E+03  0.00000000000E+00 0. -1.
         -5    1    3    3    0  503 -0.12986170935E+02 -0.22712395984E+02 -0.14721789783E+02  0.30386093222E+02  0.47000000000E+01 0.  1.
         13    1    4    4    0    0  0.60165575068E+02  0.53947993949E+02 -0.11879199151E+03  0.14367261299E+03  0.00000000000E+00 0. -1.
        -14    1    4    4    0    0  0.45213451068E+02  0.13132089192E+03 -0.93787801933E+02  0.16758754310E+03  0.00000000000E+00 0.  1.
</event>
<event>
12    1  0.8563264E-002  0.2077403E+03  0.7818608E-02  0.1143512E+00
         21   -1    0    0  501  502  0.00000000000E+00  0.00000000000E+00  0.27068571076E+02  0.27068571076E+02  0.00000000000E+00 0. -1.
         21   -1    0    0  502  503 -0.00000000000E+00 -0.00000000000E+00 -0.27798351443E+04  0.27798351443E+04  0.00000000000E+00 0.  1.
         -6    2    1    2    0  503  0.80540338812E+02  0.83246681906E+02 -0.22963812461E+04  0.23057586292E+04  0.17245078246E+03 0.  0.
        -24    2    3    3    0    0  0.11293877578E+03  0.73159307011E+02 -0.13945983702E+04  0.14033253302E+04  0.79434985533E+02 0.  0.
          6    2    1    2  501    0 -0.80540338812E+02 -0.83246681906E+02 -0.45638532716E+03  0.50114508623E+03  0.17158692952E+03 0.  0.
         24    2    5    5    0    0  0.30747523096E+01  0.27623321435E+02 -0.10932950726E+03  0.12730892796E+03  0.59009490696E+02 0.  0.
          5    1    5    5  501    0 -0.83615091122E+02 -0.11087000334E+03 -0.34705581991E+03  0.37383615828E+03  0.47000000000E+01 0. -1.
        -13    1    6    6    0    0  0.22892758097E+02  0.69516665201E+01 -0.89077509040E+02  0.92234519880E+02  0.00000000000E+00 0.  1.
         14    1    6    6    0    0 -0.19818005787E+02  0.20671654915E+02 -0.20251998215E+02  0.35074408078E+02  0.00000000000E+00 0. -1.
         -5    1    3    3    0  503 -0.32398436964E+02  0.10087374895E+02 -0.90178287584E+03  0.90243329893E+03  0.47000000000E+01 0.  1.
         13    1    4    4    0    0  0.30326851678E+01 -0.77212662266E+01 -0.16310813742E+02  0.18299119552E+02  0.00000000000E+00 0. -1.
        -14    1    4    4    0    0  0.10990609061E+03  0.80880573237E+02 -0.13782875565E+04  0.13850262107E+04  0.00000000000E+00 0.  1.
</event>
<event>
12    1  0.8563264E-002  0.2171221E+03  0.7818608E-02  0.1137394E+00
         21   -1    0    0  501  502  0.00000000000E+00  0.00000000000E+00  0.70220504139E+03  0.70220504139E+03  0.00000000000E+00 0.  1.
         21   -1    0    0  502  503 -0.00000000000E+00 -0.00000000000E+00 -0.28252380138E+03  0.28252380138E+03  0.00000000000E+00 0.  1.
         -6    2    1    2    0  503  0.39557068618E+02  0.11521566120E+03 -0.22297141070E+03  0.30638938068E+03  0.17122731190E+03 0.  0.
        -24    2    3    3    0    0  0.12959334236E+02  0.22361387441E+01 -0.14411011067E+03  0.16598636572E+03  0.81306856697E+02 0.  0.
          6    2    1    2  501    0 -0.39557068618E+02 -0.11521566120E+03  0.64265265071E+03  0.67833946209E+03  0.17972920211E+03 0.  0.
         24    2    5    5    0    0 -0.19217410093E+02  0.26756581804E+02  0.17970246701E+03  0.19365937988E+03  0.64232042213E+02 0.  0.
          5    1    5    5  501    0 -0.20339658525E+02 -0.14197224301E+03  0.46295018371E+03  0.48468008221E+03  0.47000000000E+01 0. -1.
        -11    1    6    6    0    0 -0.72256171122E+01  0.28815462060E+02  0.17902517777E+03  0.18147328914E+03  0.00000000000E+00 0.  1.
         12    1    6    6    0    0 -0.11991792981E+02 -0.20588802561E+01  0.67728923799E+00  0.12186090740E+02  0.00000000000E+00 0. -1.
         -5    1    3    3    0  503  0.26597734382E+02  0.11297952246E+03 -0.78861300026E+02  0.14040301496E+03  0.47000000000E+01 0.  1.
         13    1    4    4    0    0  0.38389838890E+01  0.28572723096E+02 -0.12440209247E+02  0.31398998528E+02  0.00000000000E+00 0. -1.
        -14    1    4    4    0    0  0.91203503468E+01 -0.26336584352E+02 -0.13166990143E+03  0.13458736719E+03  0.00000000000E+00 0.  1.
</event>
<event>
12    1  0.8563264E-002  0.2285434E+03  0.7818608E-02  0.1127861E+00
         21   -1    0    0  501  502  0.00000000000E+00  0.00000000000E+00  0.61806068064E+02  0.61806068064E+02  0.00000000000E+00 0.  1.
         21   -1    0    0  502  503 -0.00000000000E+00 -0.00000000000E+00 -0.84367637760E+03  0.84367637760E+03  0.00000000000E+00 0.  1.
         -6    2    1    2    0  503  0.50347980706E+02 -0.14119648813E+03 -0.41499559911E+03  0.47324508495E+03  0.17107950119E+03 0.  0.
        -24    2    3    3    0    0  0.67472010802E+02 -0.11303047448E+03 -0.18066081165E+03  0.23655659908E+03  0.77410175671E+02 0.  0.
          6    2    1    2  501    0 -0.50347980706E+02  0.14119648813E+03 -0.36687471043E+03  0.43223736072E+03  0.17251294278E+03 0.  0.
         24    2    5    5    0    0 -0.62093413896E+01  0.12726415324E+03 -0.35206833619E+03  0.38341474142E+03  0.82583472781E+02 0.  0.
          5    1    5    5  501    0 -0.44138639316E+02  0.13932334896E+02 -0.14806374241E+02  0.48822619292E+02  0.47000000000E+01 0. -1.
        -13    1    6    6    0    0 -0.89551926227E+01  0.46717804293E+02 -0.43377490522E+02  0.64376668110E+02  0.00000000000E+00 0.  1.
         14    1    6    6    0    0  0.27458512331E+01  0.80546348942E+02 -0.30869084566E+03  0.31903807331E+03  0.00000000000E+00 0. -1.
         -5    1    3    3    0  503 -0.17124030096E+02 -0.28166013654E+02 -0.23433478746E+03  0.23668848587E+03  0.47000000000E+01 0.  1.
         13    1    4    4    0    0 -0.17484625545E+02 -0.19782896742E+02 -0.35534334509E+02  0.44269222525E+02  0.00000000000E+00 0. -1.
        -14    1    4    4    0    0  0.84956636347E+02 -0.93247577736E+02 -0.14512647714E+03  0.19228737655E+03  0.00000000000E+00 0.  1.
</event>
<event>
12    1  0.8563264E-002  0.3064235E+03  0.7818608E-02  0.1082665E+00
         21   -1    0    0  501  502  0.00000000000E+00  0.00000000000E+00  0.16051059937E+03  0.16051059937E+03  0.00000000000E+00 0. -1.
         21   -1    0    0  502  503 -0.00000000000E+00 -0.00000000000E+00 -0.67132678084E+03  0.67132678084E+03  0.00000000000E+00 0. -1.
         -6    2    1    2    0  503 -0.13986174163E+03  0.21111027653E+03 -0.41403727017E+03  0.51509435828E+03  0.17252965315E+03 0.  0.
        -24    2    3    3    0    0 -0.33069756887E+02  0.23934018859E+02 -0.10773259399E+03  0.14054913526E+03  0.80506531008E+02 0.  0.
          6    2    1    2  501    0  0.13986174163E+03 -0.21111027653E+03 -0.96778911299E+02  0.31674302193E+03  0.16380210208E+03 0.  0.
         24    2    5    5    0    0  0.16382092187E+03 -0.15258726549E+03 -0.71754985812E+02  0.24857211916E+03  0.80741268276E+02 0.  0.
          5    1    5    5  501    0 -0.23959180236E+02 -0.58523011038E+02 -0.25023925487E+02  0.68170902776E+02  0.47000000000E+01 0. -1.
        -11    1    6    6    0    0 -0.88450750693E+01 -0.73045114607E+01 -0.83154266270E+01  0.14168188333E+02  0.00000000000E+00 0.  1.
         12    1    6    6    0    0  0.17266599694E+03 -0.14528275403E+03 -0.63439559185E+02  0.23440393082E+03  0.00000000000E+00 0. -1.
         -5    1    3    3    0  503 -0.10679198475E+03  0.18717625767E+03 -0.30630467617E+03  0.37454522302E+03  0.47000000000E+01 0.  1.
         13    1    4    4    0    0 -0.58038906850E+02  0.11876273837E+02 -0.54354879726E+02  0.80399089166E+02  0.00000000000E+00 0. -1.
        -14    1    4    4    0    0  0.24969149964E+02  0.12057745022E+02 -0.53377714266E+02  0.60150046095E+02  0.00000000000E+00 0.  1.
</event>
<event>
12    1  0.8563264E-002  0.1789920E+03  0.7818608E-02  0.1168946E+00
         21   -1    0    0  501  502  0.00000000000E+00  0.00000000000E+00  0.16319556411E+02  0.16319556411E+02  0.00000000000E+00 0.  1.
         21   -1    0    0  502  503 -0.00000000000E+00 -0.00000000000E+00 -0.19957683923E+04  0.19957683923E+04  0.00000000000E+00 0.  1.
         -6    2    1    2    0  503  0.15358679938E+02  0.44092002931E+02 -0.11302128908E+04  0.11441940460E+04  0.17210125647E+03 0.  0.
        -24    2    3    3    0    0  0.43548367966E+02  0.28386002982E+01 -0.10072545258E+04  0.10113883561E+04  0.80250913108E+02 0.  0.
          6    2    1    2  501    0 -0.15358679938E+02 -0.44092002931E+02 -0.84923594503E+03  0.86789390271E+03  0.17279508746E+03 0.  0.
         24    2    5    5    0    0 -0.35840336140E+02  0.35563573929E+02 -0.39293133218E+03  0.40421243999E+03  0.80270588276E+02 0.  0.
          5    1    5    5  501    0  0.20481656202E+02 -0.79655576860E+02 -0.45630461285E+03  0.46368146272E+03  0.47000000000E+01 0. -1.
        -13    1    6    6    0    0  0.52886276748E+00 -0.18879453372E+02 -0.19100850897E+03  0.19194000092E+03  0.00000000000E+00 0.  1.
         14    1    6    6    0    0 -0.36369198908E+02  0.54443027301E+02 -0.20192282322E+03  0.21227243906E+03  0.00000000000E+00 0. -1.
         -5    1    3    3    0  503 -0.28189688028E+02  0.41253402632E+02 -0.12295836505E+03  0.13280568992E+03  0.47000000000E+01 0.  1.
         11    1    4    4    0    0 -0.10047822381E+02 -0.10714369378E+02 -0.62342596446E+03  0.62359898140E+03  0.00000000000E+00 0. -1.
        -12    1    4    4    0    0  0.53596190347E+02  0.13552969676E+02 -0.38382856133E+03  0.38778937466E+03  0.00000000000E+00 0.  1.
</event>
<event>
12    1  0.8563264E-002  0.1821971E+03  0.7818608E-02  0.1165843E+00
         21   -1    0    0  501  502  0.00000000000E+00  0.00000000000E+00  0.10779797862E+04  0.10779797862E+04  0.00000000000E+00 0.  1.
         21   -1    0    0  502  503 -0.00000000000E+00 -0.00000000000E+00 -0.92073347728E+02  0.92073347728E+02  0.00000000000E+00 0.  1.
         -6    2    1    2    0  503 -0.45065860853E+01 -0.57933840857E+02  0.15554648236E+02  0.18285985598E+03  0.17268219542E+03 0.  0.
        -24    2    3    3    0    0 -0.66774188601E+01 -0.81284724899E+02  0.61019884861E+02  0.13148715855E+03  0.83148373943E+02 0.  0.
          6    2    1    2  501    0  0.45065860853E+01  0.57933840857E+02  0.97035179021E+03  0.98719327792E+03  0.17202131256E+03 0.  0.
         24    2    5    5    0    0  0.24177992884E+02  0.39151574496E+02  0.94548667229E+03  0.95004355565E+03  0.80748306753E+02 0.  0.
          5    1    5    5  501    0 -0.19671406799E+02  0.18782266360E+02  0.24865117920E+02  0.37149722263E+02  0.47000000000E+01 0. -1.
        -11    1    6    6    0    0  0.24225917198E+02  0.58208856462E+02  0.47437094193E+03  0.47854253372E+03  0.00000000000E+00 0.  1.
         12    1    6    6    0    0 -0.47924313997E-01 -0.19057281966E+02  0.47111573036E+03  0.47150102193E+03  0.00000000000E+00 0. -1.
         -5    1    3    3    0  503  0.21708327747E+01  0.23350884043E+02 -0.45465236625E+02  0.51372697436E+02  0.47000000000E+01 0.  1.
         11    1    4    4    0    0 -0.43224509475E+02 -0.51425182999E+02  0.47890018769E+02  0.82500676140E+02  0.00000000000E+00 0. -1.
        -12    1    4    4    0    0  0.36547090615E+02 -0.29859541900E+02  0.13129866092E+02  0.48986482406E+02  0.00000000000E+00 0.  1.
</event>
<event>
12    1  0.8563264E-002  0.1752982E+03  0.7818608E-02  0.1172518E+00
         21   -1    0    0  501  502  0.00000000000E+00  0.00000000000E+00  0.73459157257E+02  0.73459157257E+02  0.00000000000E+00 0. -1.
         21   -1    0    0  502  503 -0.00000000000E+00 -0.00000000000E+00 -0.59138586330E+03  0.59138586330E+03  0.00000000000E+00 0. -1.
         -6    2    1    2    0  503 -0.14191555731E+02  0.29649062937E+02 -0.43939216016E+03  0.47306970258E+03  0.17218886695E+03 0.  0.
        -24    2    3    3    0    0 -0.39680738061E+02  0.31565498950E+02 -0.11198962394E+03  0.14463724093E+03  0.76205734015E+02 0.  0.
          6    2    1    2  501    0  0.14191555731E+02 -0.29649062937E+02 -0.78534545881E+02  0.19177531797E+03  0.17184187644E+03 0.  0.
         24    2    5    5    0    0 -0.90255783658E+01 -0.64823844058E+02 -0.99518866159E+02  0.14446007476E+03  0.81738097943E+02 0.  0.
          5    1    5    5  501    0  0.23217134097E+02  0.35174781120E+02  0.20984320279E+02  0.47315243211E+02  0.47000000000E+01 0. -1.
        -11    1    6    6    0    0 -0.28773664897E+02  0.10170505284E+01 -0.56379916903E+02  0.63306028255E+02  0.00000000000E+00 0.  1.
         12    1    6    6    0    0  0.19748086531E+02 -0.65840894586E+02 -0.43138949256E+02  0.81154046507E+02  0.00000000000E+00 0. -1.
         -5    1    3    3    0  503  0.25489182330E+02 -0.19164360123E+01 -0.32740253622E+03  0.32843246165E+03  0.47000000000E+01 0.  1.
         13    1    4    4    0    0 -0.24792516781E+02  0.21880930062E+02 -0.12049132876E+03  0.12494640570E+03  0.00000000000E+00 0. -1.
        -14    1    4    4    0    0 -0.14888221280E+02  0.96845688874E+01  0.85017048226E+01  0.19690835237E+02  0.00000000000E+00 0.  1.
</event>
<event>
12    1  0.8563264E-002  0.2107515E+03  0.7818608E-02  0.1141199E+00
         21   -1    0    0  503  502  0.00000000000E+00  0.00000000000E+00  0.24192873652E+03  0.24192873652E+03  0.00000000000E+00 0. -1.
         21   -1    0    0  501  503 -0.00000000000E+00 -0.00000000000E+00 -0.23741024797E+03  0.23741024797E+03  0.00000000000E+00 0.  1.
          6    2    1    2  501    0 -0.12064284578E+03  0.15194855131E+02  0.11742623762E+03  0.24125738970E+03  0.17213549007E+03 0.  0.
         24    2    3    3    0    0 -0.10917831364E+03 -0.49464985649E+02  0.87809147772E+02  0.16906602929E+03  0.80660937588E+02 0.  0.
         -6    2    1    2    0  502  0.12064284578E+03 -0.15194855131E+02 -0.11290774907E+03  0.23808159479E+03  0.17073109300E+03 0.  0.
        -24    2    5    5    0    0  0.63532490812E+02  0.44914499319E+02 -0.10649717080E+03  0.15478746144E+03  0.81017412889E+02 0.  0.
          5    1    3    3  501    0 -0.11464532143E+02  0.64659840780E+02  0.29617089849E+02  0.72191360412E+02  0.47000000000E+01 0. -1.
        -11    1    4    4    0    0 -0.28549472777E+02  0.15801016658E+02 -0.79867855536E+00  0.32640196242E+02  0.00000000000E+00 0.  1.
         12    1    4    4    0    0 -0.80628840861E+02 -0.65266002307E+02  0.88607826327E+02  0.13642583305E+03  0.00000000000E+00 0. -1.
         -5    1    5    5    0  502  0.57110354968E+02 -0.60109354450E+02 -0.64105782701E+01  0.83294133351E+02  0.47000000000E+01 0.  1.
         13    1    6    6    0    0  0.25148465125E+02  0.35228841872E+02 -0.23245254234E+01  0.43346511004E+02  0.00000000000E+00 0. -1.
        -14    1    6    6    0    0  0.38384025687E+02  0.96856574470E+01 -0.10417264538E+03  0.11144095043E+03  0.00000000000E+00 0.  1.
</event>
<event>
12    1  0.8563264E-002  0.2022662E+03  0.7818608E-02  0.1148490E+00
         21   -1    0    0  503  502  0.00000000000E+00  0.00000000000E+00  0.14634847375E+03  0.14634847375E+03  0.00000000000E+00 0.  1.
         21   -1    0    0  501  503 -0.00000000000E+00 -0.00000000000E+00 -0.45480395300E+03  0.45480395300E+03  0.00000000000E+00 0.  1.
          6    2    1    2  501    0 -0.44090752665E+02 -0.90245592032E+02 -0.34234431770E+03  0.39606692787E+03  0.17199162229E+03 0.  0.
         24    2    3    3    0    0 -0.19565719439E+01  0.42371606295E+01 -0.70337403000E+02  0.10501344244E+03  0.77837594570E+02 0.  0.
         -6    2    1    2    0  502  0.44090752665E+02  0.90245592032E+02  0.33888838452E+02  0.20508549887E+03  0.17556579144E+03 0.  0.
        -24    2    5    5    0    0 -0.21016551846E+02 -0.72847007320E+01  0.44844630279E+00  0.83054892325E+02  0.80019695818E+02 0.  0.
          5    1    3    3  501    0 -0.42134180721E+02 -0.94482752661E+02 -0.27200691470E+03  0.29105348543E+03  0.47000000000E+01 0. -1.
        -13    1    4    4    0    0 -0.39633776514E+02 -0.15365279196E+01 -0.39591940255E+02  0.56042117126E+02  0.00000000000E+00 0.  1.
         14    1    4    4    0    0  0.37677204570E+02  0.57736885490E+01 -0.30745462746E+02  0.48971325315E+02  0.00000000000E+00 0. -1.
         -5    1    5    5    0  502  0.65107304511E+02  0.97530292764E+02  0.33440392149E+02  0.12203060655E+03  0.47000000000E+01 0.  1.
         13    1    6    6    0    0 -0.72792493071E+01 -0.43499699893E+02  0.32268878435E+01  0.44222439625E+02  0.00000000000E+00 0. -1.
        -14    1    6    6    0    0 -0.13737302539E+02  0.36214999161E+02 -0.27784415407E+01  0.38832452700E+02  0.00000000000E+00 0.  1.
</event>
<event>
12    1  0.8563264E-002  0.1928785E+03  0.7818608E-02  0.1155945E+00
         21   -1    0    0  501  502  0.00000000000E+00  0.00000000000E+00  0.72444573890E+03  0.72444573890E+03  0.00000000000E+00 0.  1.
         21   -1    0    0  502  503 -0.00000000000E+00 -0.00000000000E+00 -0.12423774322E+03  0.12423774322E+03  0.00000000000E+00 0.  1.
         -6    2    1    2    0  503 -0.71037347626E+02 -0.42235492127E+02 -0.24982532659E+02  0.19448970981E+03  0.17427558272E+03 0.  0.
        -24    2    3    3    0    0 -0.50493179444E+02 -0.30911978807E+02  0.53460617236E+02  0.11247932897E+03  0.79299749347E+02 0.  0.
          6    2    1    2  501    0  0.71037347626E+02  0.42235492127E+02  0.62519052834E+03  0.65419377230E+03  0.17400044093E+03 0.  0.
         24    2    5    5    0    0  0.40332987680E+02  0.90000981605E+02  0.33083444927E+03  0.35437400812E+03  0.80016112306E+02 0.  0.
          5    1    5    5  501    0  0.30704359947E+02 -0.47765489477E+02  0.29435607907E+03  0.29981976418E+03  0.47000000000E+01 0. -1.
        -11    1    6    6    0    0  0.61617266894E+02  0.75146795282E+02  0.21942922931E+03  0.23998523933E+03  0.00000000000E+00 0.  1.
         12    1    6    6    0    0 -0.21284279214E+02  0.14854186322E+02  0.11140521996E+03  0.11438876880E+03  0.00000000000E+00 0. -1.
         -5    1    3    3    0  503 -0.20544168183E+02 -0.11323513320E+02 -0.78443149896E+02  0.82010380842E+02  0.47000000000E+01 0.  1.
         13    1    4    4    0    0 -0.99040526560E+01  0.24741064320E+01  0.58775569304E+02  0.59655502752E+02  0.00000000000E+00 0. -1.
        -14    1    4    4    0    0 -0.40589126788E+02 -0.33386085239E+02 -0.53149520672E+01  0.52823826219E+02  0.00000000000E+00 0.  1.
</event>
<event>
12    1  0.8563264E-002  0.2094478E+03  0.7818608E-02  0.1142130E+00
         21   -1    0    0  503  502  0.00000000000E+00  0.00000000000E+00  0.39285403987E+03  0.39285403987E+03  0.00000000000E+00 0. -1.
         21   -1    0    0  501  503 -0.00000000000E+00 -0.00000000000E+00 -0.12961662150E+03  0.12961662150E+03  0.00000000000E+00 0. -1.
          6    2    1    2  501    0 -0.79293325581E+02  0.88441076705E+02  0.33324952799E+02  0.21145922882E+03  0.17174165902E+03 0.  0.
         24    2    3    3    0    0 -0.82324590974E+02 -0.10746835780E+01 -0.99901979718E+00  0.11542545870E+03  0.80892182878E+02 0.  0.
         -6    2    1    2    0  502  0.79293325581E+02 -0.88441076705E+02  0.22991246557E+03  0.31101143255E+03  0.17250830072E+03 0.  0.
        -24    2    5    5    0    0  0.86138949916E+02 -0.24036372924E+02  0.70584551125E+02  0.13895823506E+03  0.79558445928E+02 0.  0.
          5    1    3    3  501    0  0.30312653927E+01  0.89515760283E+02  0.34323972596E+02  0.96033770121E+02  0.47000000000E+01 0. -1.
        -13    1    4    4    0    0 -0.56093223365E+02 -0.12554683692E+01  0.38473682763E+02  0.68031244099E+02  0.00000000000E+00 0.  1.
         14    1    4    4    0    0 -0.26231367608E+02  0.18078479122E+00 -0.39472702561E+02  0.47394214596E+02  0.00000000000E+00 0. -1.
         -5    1    5    5    0  502 -0.68456243354E+01 -0.64404703780E+02  0.15932791445E+03  0.17205319748E+03  0.47000000000E+01 0.  1.
         13    1    6    6    0    0  0.71187996858E+02 -0.51881349827E+02  0.52438912063E+02  0.10251460801E+03  0.00000000000E+00 0. -1.
        -14    1    6    6    0    0  0.14950953058E+02  0.27844976903E+02  0.18145639062E+02  0.36443627056E+02  0.00000000000E+00 0.  1.
</event>
<event>
12    1  0.8563264E-002  0.2260618E+03  0.7818608E-02  0.1129588E+00
         21   -1    0    0  503  502  0.00000000000E+00  0.00000000000E+00  0.24420274909E+03  0.24420274909E+03  0.00000000000E+00 0.  1.
         21   -1    0    0  501  503 -0.00000000000E+00 -0.00000000000E+00 -0.41127407628E+03  0.41127407628E+03  0.00000000000E+00 0. -1.
          6    2    1    2  501    0  0.71725175021E+02 -0.12723962411E+03 -0.31372662787E+03  0.38668893843E+03  0.17253844614E+03 0.  0.
         24    2    3    3    0    0  0.82621457955E+02 -0.19648575190E+02 -0.15656927105E+03  0.19586156201E+03  0.81458228647E+02 0.  0.
         -6    2    1    2    0  502 -0.71725175021E+02  0.12723962411E+03  0.14665530068E+03  0.26878788694E+03  0.17147806937E+03 0.  0.
        -24    2    5    5    0    0 -0.64126210057E+02  0.15055653742E+03  0.15758477602E+03  0.24153048160E+03  0.82003476320E+02 0.  0.
          5    1    3    3  501    0 -0.10896282935E+02 -0.10759104892E+03 -0.15715735682E+03  0.19082737642E+03  0.47000000000E+01 0. -1.
        -13    1    4    4    0    0  0.78289257150E+02 -0.27060367766E+02 -0.68817529354E+02  0.10769087071E+03  0.00000000000E+00 0.  1.
         14    1    4    4    0    0  0.43322008049E+01  0.74117925755E+01 -0.87751741695E+02  0.88170691295E+02  0.00000000000E+00 0. -1.
         -5    1    5    5    0  502 -0.75989649635E+01 -0.23316913313E+02 -0.10929475343E+02  0.27257405347E+02  0.47000000000E+01 0.  1.
         13    1    6    6    0    0 -0.66785155654E+01  0.16308955490E+02 -0.91795920808E+01  0.19870820569E+02  0.00000000000E+00 0. -1.
        -14    1    6    6    0    0 -0.57447694492E+02  0.13424758193E+03  0.16676436810E+03  0.22165966103E+03  0.00000000000E+00 0.  1.
</event>
<event>
12    1  0.8563264E-002  0.1924720E+03  0.7818608E-02  0.1156366E+00
         21   -1    0    0  503  502  0.00000000000E+00  0.00000000000E+00  0.27097289421E+03  0.27097289421E+03  0.00000000000E+00 0. -1.
         21   -1    0    0  501  503 -0.00000000000E+00 -0.00000000000E+00 -0.15034159990E+03  0.15034159990E+03  0.00000000000E+00 0. -1.
          6    2    1    2  501    0 -0.18914765007E+02  0.84710129820E+02 -0.38909899375E+01  0.19251129578E+03  0.17179023480E+03 0.  0.
         24    2    3    3    0    0 -0.37788409717E+02  0.14299765398E+02  0.49038120654E+02  0.10230367620E+03  0.80180157693E+02 0.  0.
         -6    2    1    2    0  502  0.18914765007E+02 -0.84710129820E+02  0.12452228425E+03  0.22880319833E+03  0.17120610346E+03 0.  0.
        -24    2    5    5    0    0  0.75779222416E+02 -0.63956111275E+02  0.88232098723E+02  0.15806874160E+03  0.85836758489E+02 0.  0.
          5    1    3    3  501    0  0.18873644710E+02  0.70410364423E+02 -0.52929110592E+02  0.90207619583E+02  0.47000000000E+01 0. -1.
        -13    1    4    4    0    0 -0.54665095994E+02 -0.11891851763E+02  0.19156180362E+02  0.59132462357E+02  0.00000000000E+00 0.  1.
         14    1    4    4    0    0  0.16876686277E+02  0.26191617161E+02  0.29881940292E+02  0.43171213844E+02  0.00000000000E+00 0. -1.
         -5    1    5    5    0  502 -0.56864457409E+02 -0.20754018545E+02  0.36290185527E+02  0.70734456723E+02  0.47000000000E+01 0.  1.
         11    1    6    6    0    0  0.65220160655E+02 -0.29376795554E+02  0.10444751006E+02  0.72289406530E+02  0.00000000000E+00 0. -1.
        -12    1    6    6    0    0  0.10559061761E+02 -0.34579315721E+02  0.77787347717E+02  0.85779335075E+02  0.00000000000E+00 0.  1.
</event>
<event>
12    1  0.8563264E-002  0.2398489E+03  0.7818608E-02  0.1120245E+00
         21   -1    0    0  503  502  0.00000000000E+00  0.00000000000E+00  0.63524894359E+02  0.63524894359E+02  0.00000000000E+00 0. -1.
         21   -1    0    0  501  503 -0.00000000000E+00 -0.00000000000E+00 -0.89792652063E+03  0.89792652063E+03  0.00000000000E+00 0. -1.
          6    2    1    2  501    0  0.61855950328E+02 -0.15611325520E+03 -0.42333548424E+03  0.48552826163E+03  0.16830702180E+03 0.  0.
         24    2    3    3    0    0  0.60107071739E+02 -0.18362913912E+03 -0.37391093781E+03  0.42873866545E+03  0.81700263365E+02 0.  0.
         -6    2    1    2    0  502 -0.61855950328E+02  0.15611325520E+03 -0.41106614203E+03  0.47592315336E+03  0.17125994201E+03 0.  0.
        -24    2    5    5    0    0 -0.55863610325E+02  0.14204786318E+03 -0.42219767302E+03  0.45643612245E+03  0.82369414135E+02 0.  0.
          5    1    3    3  501    0  0.17488785899E+01  0.27515883924E+02 -0.49424546428E+02  0.56789596178E+02  0.47000000000E+01 0. -1.
        -13    1    4    4    0    0  0.53282960295E+00 -0.31358077307E+02 -0.13919340714E+03  0.14268292649E+03  0.00000000000E+00 0.  1.
         14    1    4    4    0    0  0.59574242136E+02 -0.15227106181E+03 -0.23471753067E+03  0.28605573897E+03  0.00000000000E+00 0. -1.
         -5    1    5    5    0  502 -0.59923400032E+01  0.14065392017E+02  0.11131530988E+02  0.19487030904E+02  0.47000000000E+01 0.  1.
         11    1    6    6    0    0 -0.69379055163E+02  0.64590512770E+02 -0.23468341902E+03  0.25310411849E+03  0.00000000000E+00 0. -1.
        -12    1    6    6    0    0  0.13515444838E+02  0.77457350409E+02 -0.18751425400E+03  0.20333200396E+03  0.00000000000E+00 0.  1.
</event>
<event>
12    1  0.8563264E-002  0.1792904E+03  0.7818608E-02  0.1168570E+00
         21   -1    0    0  503  502  0.00000000000E+00  0.00000000000E+00  0.15113683665E+03  0.15113683665E+03  0.00000000000E+00 0. -1.
         21   -1    0    0  501  503 -0.00000000000E+00 -0.00000000000E+00 -0.14385072402E+04  0.14385072402E+04  0.00000000000E+00 0. -1.
          6    2    1    2  501    0 -0.55774356550E+02 -0.20725788671E+01 -0.13774283034E+04  0.13890064445E+04  0.17004439880E+03 0.  0.
         24    2    3    3    0    0 -0.58695677124E+01  0.64872941012E+01 -0.30736833078E+03  0.31773888022E+03  0.80038543403E+02 0.  0.
         -6    2    1    2    0  502  0.55774356550E+02  0.20725788671E+01  0.90057899835E+02  0.20063763232E+03  0.17038180580E+03 0.  0.
        -24    2    5    5    0    0  0.18199044001E+01  0.54274879133E+02  0.21178948580E+02  0.98644676747E+02  0.79581089655E+02 0.  0.
          5    1    3    3  501    0 -0.49904788838E+02 -0.85598729684E+01 -0.10700599726E+04  0.10712675643E+04  0.47000000000E+01 0. -1.
        -11    1    4    4    0    0 -0.10378345994E+02  0.41770632028E+02 -0.13340569051E+03  0.14017693828E+03  0.00000000000E+00 0.  1.
         12    1    4    4    0    0  0.45087782812E+01 -0.35283337927E+02 -0.17396264027E+03  0.17756194194E+03  0.00000000000E+00 0. -1.
         -5    1    5    5    0  502  0.53954452150E+02 -0.52202300266E+02  0.68878951255E+02  0.10199295557E+03  0.47000000000E+01 0.  1.
         13    1    6    6    0    0 -0.34473215478E+02  0.31257397422E+02  0.29184538548E+02  0.54928724446E+02  0.00000000000E+00 0. -1.
        -14    1    6    6    0    0  0.36293119878E+02  0.23017481711E+02 -0.80055899684E+01  0.43715952301E+02  0.00000000000E+00 0.  1.
</event>
<event>
12    1  0.8563264E-002  0.1981471E+03  0.7818608E-02  0.1151390E+00
         21   -1    0    0  503  502  0.00000000000E+00  0.00000000000E+00  0.48166559918E+02  0.48166559918E+02  0.00000000000E+00 0. -1.
         21   -1    0    0  501  503 -0.00000000000E+00 -0.00000000000E+00 -0.82742758101E+03  0.82742758101E+03  0.00000000000E+00 0. -1.
          6    2    1    2  501    0  0.76854837465E+02 -0.61646032385E+02 -0.33274367135E+03  0.38708617931E+03  0.17149478138E+03 0.  0.
         24    2    3    3    0    0 -0.48976276812E+01 -0.19723506916E+01 -0.72645349612E+02  0.10794886397E+03  0.79672664624E+02 0.  0.
         -6    2    1    2    0  502 -0.76854837465E+02  0.61646032385E+02 -0.44651734974E+03  0.48850796161E+03  0.17191679846E+03 0.  0.
        -24    2    5    5    0    0 -0.96294589088E+02  0.96490959079E+02 -0.36721946526E+03  0.39961298233E+03  0.79102761693E+02 0.  0.
          5    1    3    3  501    0  0.81752465146E+02 -0.59673681693E+02 -0.26009832174E+03  0.27913731534E+03  0.47000000000E+01 0. -1.
        -11    1    4    4    0    0  0.24391778133E+02  0.25520789547E+02 -0.51814319248E+02  0.62697633279E+02  0.00000000000E+00 0.  1.
         12    1    4    4    0    0 -0.29289405815E+02 -0.27493140238E+02 -0.20831030364E+02  0.45251230692E+02  0.00000000000E+00 0. -1.
         -5    1    5    5    0  502  0.19439751623E+02 -0.34844926694E+02 -0.79297884472E+02  0.88894979280E+02  0.47000000000E+01 0.  1.
         13    1    6    6    0    0 -0.27225379010E+02  0.49620069530E+02 -0.65526830240E+02  0.86586015289E+02  0.00000000000E+00 0. -1.
        -14    1    6    6    0    0 -0.69069210079E+02  0.46870889549E+02 -0.30169263502E+03  0.31302696704E+03  0.00000000000E+00 0.  1.
</event>
<event>
12    1  0.8563264E-002  0.3024164E+03  0.7818608E-02  0.1084903E+00
         21   -1    0    0  501  502  0.00000000000E+00  0.00000000000E+00  0.34289088469E+02  0.34289088469E+02  0.00000000000E+00 0.  1.
         21   -1    0    0  502  503 -0.00000000000E+00 -0.00000000000E+00 -0.32416888442E+04  0.32416888442E+04  0.00000000000E+00 0. -1.
         -6    2    1    2    0  503  0.13049395312E+03 -0.21154888001E+03 -0.23435165422E+04  0.23629484721E+04  0.17226171243E+03 0.  0.
        -24    2    3    3    0    0  0.10659254442E+03 -0.23278729752E+03 -0.21619733547E+04  0.21785511656E+04  0.80028108121E+02 0.  0.
          6    2    1    2  501    0 -0.13049395312E+03  0.21154888001E+03 -0.86388321348E+03  0.91302946057E+03  0.15983425444E+03 0.  0.
         24    2    5    5    0    0 -0.15173008017E+03  0.20352056212E+03 -0.83242503473E+03  0.87395089880E+03  0.80100553193E+02 0.  0.
          5    1    5    5  501    0  0.21236127045E+02  0.80283178886E+01 -0.31458178750E+02  0.39078561773E+02  0.47000000000E+01 0. -1.
        -11    1    6    6    0    0 -0.61788027273E+02  0.88781045938E+02 -0.23043519082E+03  0.25455885685E+03  0.00000000000E+00 0.  1.
         12    1    6    6    0    0 -0.89942052896E+02  0.11473951618E+03 -0.60198984391E+03  0.61939204194E+03  0.00000000000E+00 0. -1.
         -5    1    3    3    0  503  0.23901408705E+02  0.21238417506E+02 -0.18154318750E+03  0.18439730650E+03  0.47000000000E+01 0.  1.
         13    1    4    4    0    0  0.55936617872E+02 -0.92450970251E+02 -0.12269543019E+04  0.12317032703E+04  0.00000000000E+00 0. -1.
        -14    1    4    4    0    0  0.50655926547E+02 -0.14033632727E+03 -0.93501905284E+03  0.94684789529E+03  0.00000000000E+00 0.  1.
</event>
<event>
12    1  0.8563264E-002  0.2296038E+03  0.7818608E-02  0.1127090E+00
         21   -1    0    0  503  502  0.00000000000E+00  0.00000000000E+00  0.30808405182E+03  0.30808405182E+03  0.00000000000E+00 0. -1.
         21   -1    0    0  501  503 -0.00000000000E+00 -0.00000000000E+00 -0.37766187804E+03  0.37766187804E+03  0.00000000000E+00 0. -1.
          6    2    1    2  501    0 -0.10758522583E+03 -0.10696107714E+03 -0.28883066484E+03  0.36897296581E+03  0.17234454940E+03 0.  0.
         24    2    3    3    0    0 -0.77708535301E+02 -0.14140341983E+03 -0.24506019472E+03  0.30559445477E+03  0.85439616989E+02 0.  0.
         -6    2    1    2    0  502  0.10758522583E+03  0.10696107714E+03  0.21925283862E+03  0.31677296405E+03  0.17104984850E+03 0.  0.
        -24    2    5    5    0    0  0.10229189863E+03  0.11188697893E+03  0.23923611663E+03  0.29500819385E+03  0.82544450799E+02 0.  0.
          5    1    3    3  501    0 -0.29876690533E+02  0.34442342696E+02 -0.43770470124E+02  0.63378511046E+02  0.47000000000E+01 0. -1.
        -11    1    4    4    0    0 -0.31859945798E+02 -0.10960848412E+03 -0.21190512119E+03  0.24069245174E+03  0.00000000000E+00 0.  1.
         12    1    4    4    0    0 -0.45848589503E+02 -0.31794935714E+02 -0.33155073522E+02  0.64902003025E+02  0.00000000000E+00 0. -1.
         -5    1    5    5    0  502  0.52933271999E+01 -0.49259017953E+01 -0.19983278017E+02  0.21764770195E+02  0.47000000000E+01 0.  1.
         13    1    6    6    0    0  0.23818093562E+02  0.86696134924E+02  0.13331790645E+03  0.16080169642E+03  0.00000000000E+00 0. -1.
        -14    1    6    6    0    0  0.78473805073E+02  0.25190844008E+02  0.10591821018E+03  0.13420649743E+03  0.00000000000E+00 0.  1.
</event>
<event>
12    1  0.8563264E-002  0.2333937E+03  0.7818608E-02  0.1124274E+00
         21   -1    0    0  503  502  0.00000000000E+00  0.00000000000E+00  0.83696282126E+03  0.83696282126E+03  0.00000000000E+00 0.  1.
         21   -1    0    0  501  503 -0.00000000000E+00 -0.00000000000E+00 -0.82056353440E+02  0.82056353440E+02  0.00000000000E+00 0.  1.
          6    2    1    2  501    0 -0.79314025001E+02 -0.13604908327E+03  0.58644141650E+03  0.63117707665E+03  0.17225242956E+03 0.  0.
         24    2    3    3    0    0 -0.59401271490E+02 -0.50130743319E+01  0.21712427807E+03  0.23876888086E+03  0.79460583751E+02 0.  0.
         -6    2    1    2    0  502  0.79314025001E+02  0.13604908327E+03  0.16846505132E+03  0.28784209805E+03  0.17225716899E+03 0.  0.
        -24    2    5    5    0    0 -0.30321106237E+02  0.48192202533E+02  0.74563059487E+02  0.11879072253E+03  0.72867880781E+02 0.  0.
          5    1    3    3  501    0 -0.19912753511E+02 -0.13103600894E+03  0.36931713843E+03  0.39240819579E+03  0.47000000000E+01 0. -1.
        -11    1    4    4    0    0 -0.60915598398E+02 -0.34067749257E+02  0.16316225180E+03  0.17746335419E+03  0.00000000000E+00 0.  1.
         12    1    4    4    0    0  0.15143269083E+01  0.29054674925E+02  0.53962026269E+02  0.61305526668E+02  0.00000000000E+00 0. -1.
         -5    1    5    5    0  502  0.10963513124E+03  0.87856880739E+02  0.93901991837E+02  0.16905137552E+03  0.47000000000E+01 0.  1.
         13    1    6    6    0    0  0.35309137311E+01  0.11389336397E+02 -0.13196067945E+02  0.17785402569E+02  0.00000000000E+00 0. -1.
        -14    1    6    6    0    0 -0.33852019968E+02  0.36802866136E+02  0.87759127432E+02  0.10100531996E+03  0.00000000000E+00 0.  1.
</event>
<event>
12    1  0.8563264E-002  0.3128887E+03  0.7818608E-02  0.1079230E+00
         21   -1    0    0  503  502  0.00000000000E+00  0.00000000000E+00  0.23044397468E+03  0.23044397468E+03  0.00000000000E+00 0. -1.
         21   -1    0    0  501  503 -0.00000000000E+00 -0.00000000000E+00 -0.67989239283E+03  0.67989239283E+03  0.00000000000E+00 0.  1.
          6    2    1    2  501    0  0.21698507088E+03 -0.14157796974E+03 -0.50464243971E+03  0.59261679431E+03  0.17147545142E+03 0.  0.
         24    2    3    3    0    0  0.16196458586E+03 -0.34250703862E+02 -0.36027135262E+03  0.40443736780E+03  0.79802876946E+02 0.  0.
         -6    2    1    2    0  502 -0.21698507088E+03  0.14157796974E+03  0.55194021567E+02  0.31771957320E+03  0.17542093568E+03 0.  0.
        -24    2    5    5    0    0 -0.13056843505E+03 -0.68075344314E+00  0.34787531258E+02  0.14995815297E+03  0.65028421885E+02 0.  0.
          5    1    3    3  501    0  0.55020485022E+02 -0.10732726588E+03 -0.14437108709E+03  0.18817942651E+03  0.47000000000E+01 0. -1.
        -13    1    4    4    0    0  0.76530403813E+02  0.15755357797E+00 -0.86033985596E+02  0.11514675075E+03  0.00000000000E+00 0.  1.
         14    1    4    4    0    0  0.85434182046E+02 -0.34408257440E+02 -0.27423736702E+03  0.28929061705E+03  0.00000000000E+00 0. -1.
         -5    1    5    5    0  502 -0.86416635829E+02  0.14225872319E+03  0.20406490309E+02  0.16776142023E+03  0.47000000000E+01 0.  1.
         13    1    6    6    0    0 -0.51966370768E+02 -0.27992843159E+02  0.30972344016E+02  0.66658750760E+02  0.00000000000E+00 0. -1.
        -14    1    6    6    0    0 -0.78602064283E+02  0.27312089716E+02  0.38151872421E+01  0.83299402207E+02  0.00000000000E+00 0.  1.
</event>
<event>
12    1  0.8563264E-002  0.2094439E+03  0.7818608E-02  0.1142667E+00
         21   -1    0    0  503  502  0.00000000000E+00  0.00000000000E+00  0.24165215289E+03  0.24165215289E+03  0.00000000000E+00 0. -1.
         21   -1    0    0  501  503 -0.00000000000E+00 -0.00000000000E+00 -0.20710576875E+03  0.20710576875E+03  0.00000000000E+00 0. -1.
          6    2    1    2  501    0 -0.71009388701E+02 -0.91036927428E+02 -0.65728470015E+02  0.21951528859E+03  0.17474745982E+03 0.  0.
         24    2    3    3    0    0 -0.67185269073E+02 -0.43996637141E+02 -0.10764815781E+03  0.15621629154E+03  0.79786210603E+02 0.  0.
         -6    2    1    2    0  502  0.71009388701E+02  0.91036927428E+02  0.10027485415E+03  0.22924263306E+03  0.17078373165E+03 0.  0.
        -24    2    5    5    0    0  0.52632552830E+02  0.33472701818E+01  0.50114715909E+01  0.98382455230E+02  0.82901162925E+02 0.  0.
          5    1    3    3  501    0 -0.38241196279E+01 -0.47040290288E+02  0.41919687800E+02  0.63298997042E+02  0.47000000000E+01 0. -1.
        -13    1    4    4    0    0 -0.44629459901E+02  0.16168195638E+02 -0.58411051933E+02  0.75266527947E+02  0.00000000000E+00 0.  1.
         14    1    4    4    0    0 -0.22555809172E+02 -0.60164832778E+02 -0.49237105882E+02  0.80949763597E+02  0.00000000000E+00 0. -1.
         -5    1    5    5    0  502  0.18376835871E+02  0.87689657246E+02  0.95263382556E+02  0.13086017783E+03  0.47000000000E+01 0.  1.
         11    1    6    6    0    0  0.40688461063E+02  0.29680621835E+02  0.31304785013E+02  0.59299913499E+02  0.00000000000E+00 0. -1.
        -12    1    6    6    0    0  0.11944091767E+02 -0.26333351653E+02 -0.26293313423E+02  0.39082541731E+02  0.00000000000E+00 0.  1.
</event>
<event>
12    1  0.8563264E-002  0.1907203E+03  0.7818608E-02  0.1158242E+00
         21   -1    0    0  501  502  0.00000000000E+00  0.00000000000E+00  0.18402723771E+03  0.18402723771E+03  0.00000000000E+00 0.  1.
         21   -1    0    0  502  503 -0.00000000000E+00 -0.00000000000E+00 -0.54112317190E+03  0.54112317190E+03  0.00000000000E+00 0.  1.
         -6    2    1    2    0  503  0.57428866396E+02  0.53381695461E+02 -0.46791158000E+03  0.50457312552E+03  0.17177052192E+03 0.  0.
        -24    2    3    3    0    0 -0.42526780212E+00  0.82733079540E+02 -0.21796107238E+03  0.24629817349E+03  0.79440656391E+02 0.  0.
          6    2    1    2  501    0 -0.57428866396E+02 -0.53381695461E+02  0.11081564580E+03  0.22057728408E+03  0.17385784651E+03 0.  0.
         24    2    5    5    0    0 -0.66698597405E+02 -0.57929999413E+02  0.87033497080E+01  0.11783670789E+03  0.77492926795E+02 0.  0.
          5    1    5    5  501    0  0.92697310089E+01  0.45483039517E+01  0.10211229609E+03  0.10274057619E+03  0.47000000000E+01 0. -1.
        -13    1    6    6    0    0 -0.19713660848E+02 -0.36383584572E+02  0.39882163278E+02  0.57471563387E+02  0.00000000000E+00 0.  1.
         14    1    6    6    0    0 -0.46984936557E+02 -0.21546414841E+02 -0.31178813570E+02  0.60365144507E+02  0.00000000000E+00 0. -1.
         -5    1    3    3    0  503  0.57854134199E+02 -0.29351384078E+02 -0.24995050762E+03  0.25827495204E+03  0.47000000000E+01 0.  1.
         11    1    4    4    0    0 -0.38214885756E+02  0.57573017291E+02 -0.12438904858E+03  0.14229429089E+03  0.00000000000E+00 0. -1.
        -12    1    4    4    0    0  0.37789617954E+02  0.25160062248E+02 -0.93572023798E+02  0.10400388260E+03  0.00000000000E+00 0.  1.
</event>
<event>
12    1  0.8563264E-002  0.1939782E+03  0.7818608E-02  0.1155448E+00
         21   -1    0    0  501  502  0.00000000000E+00  0.00000000000E+00  0.55471885733E+03  0.55471885733E+03  0.00000000000E+00 0. -1.
         21   -1    0    0  502  503 -0.00000000000E+00 -0.00000000000E+00 -0.91711377227E+02  0.91711377227E+02  0.00000000000E+00 0. -1.
         -6    2    1    2    0  503 -0.32180408108E+02  0.80677460504E+02  0.64779309746E+02  0.20450895518E+03  0.17344486870E+03 0.  0.
        -24    2    3    3    0    0 -0.28078852218E+02 -0.15963905147E+02 -0.25240593008E+01  0.86575881786E+02  0.80285392334E+02 0.  0.
          6    2    1    2  501    0  0.32180408108E+02 -0.80677460504E+02  0.39822817035E+03  0.44192127937E+03  0.17077561360E+03 0.  0.
         24    2    5    5    0    0  0.55168996687E+02 -0.10043266887E+03  0.21829020258E+03  0.25938770517E+03  0.80628964280E+02 0.  0.
          5    1    5    5  501    0 -0.22988588580E+02  0.19755208370E+02  0.17993796777E+03  0.18253357420E+03  0.47000000000E+01 0. -1.
        -11    1    6    6    0    0  0.28603296973E+02 -0.10587413167E+03  0.19461971590E+03  0.22339273527E+03  0.00000000000E+00 0.  1.
         12    1    6    6    0    0  0.26565699714E+02  0.54414627967E+01  0.23670486676E+02  0.35994969900E+02  0.00000000000E+00 0. -1.
         -5    1    3    3    0  503 -0.41015558894E+01  0.96641365651E+02  0.67303369047E+02  0.11793307340E+03  0.47000000000E+01 0.  1.
         13    1    4    4    0    0 -0.11279173892E+02  0.27777233181E+02 -0.20576912333E+02  0.36362119961E+02  0.00000000000E+00 0. -1.
        -14    1    4    4    0    0 -0.16799678326E+02 -0.43741138327E+02  0.18052853033E+02  0.50213761825E+02  0.00000000000E+00 0.  1.
</event>
<event>
12    1  0.8563264E-002  0.2008615E+03  0.7818608E-02  0.1149094E+00
         21   -1    0    0  503  502  0.00000000000E+00  0.00000000000E+00  0.16370843770E+04  0.16370843770E+04  0.00000000000E+00 0.  1.
         21   -1    0    0  501  503 -0.00000000000E+00 -0.00000000000E+00 -0.35913584304E+02  0.35913584304E+02  0.00000000000E+00 0. -1.
          6    2    1    2  501    0 -0.21724375117E+02  0.10026951900E+03  0.33052665019E+03  0.38657584216E+03  0.17224137232E+03 0.  0.
         24    2    3    3    0    0  0.47968923172E+02  0.77252083210E+02  0.15778827692E+03  0.19883241677E+03  0.79801551830E+02 0.  0.
         -6    2    1    2    0  502  0.21724375117E+02 -0.10026951900E+03  0.12706441425E+04  0.12864221192E+04  0.17268296623E+03 0.  0.
        -24    2    5    5    0    0  0.54691953361E+02 -0.85265457082E+02  0.12001485091E+04  0.12070262288E+04  0.79337664151E+02 0.  0.
          5    1    3    3  501    0 -0.69693298289E+02  0.23017435792E+02  0.17273837326E+03  0.18774342538E+03  0.47000000000E+01 0. -1.
        -11    1    4    4    0    0  0.60254937242E+02  0.63037097591E+02  0.15751418500E+03  0.18004180517E+03  0.00000000000E+00 0.  1.
         12    1    4    4    0    0 -0.12286014071E+02  0.14214985620E+02  0.27409192733E+00  0.18790611600E+02  0.00000000000E+00 0. -1.
         -5    1    5    5    0  502 -0.32967578243E+02 -0.15004061920E+02  0.70495633394E+02  0.79395890429E+02  0.47000000000E+01 0.  1.
         11    1    6    6    0    0  0.20465587762E+02 -0.83120279866E+01  0.62946768823E+02  0.66710012719E+02  0.00000000000E+00 0. -1.
        -12    1    6    6    0    0  0.34226365599E+02 -0.76953429095E+02  0.11372017403E+04  0.11403162160E+04  0.00000000000E+00 0.  1.
</event>
<event>
12    1  0.8563264E-002  0.2075050E+03  0.7818608E-02  0.1143737E+00
         21   -1    0    0  503  502  0.00000000000E+00  0.00000000000E+00  0.18436912444E+03  0.18436912444E+03  0.00000000000E+00 0. -1.
         21   -1    0    0  501  503 -0.00000000000E+00 -0.00000000000E+00 -0.30328645602E+03  0.30328645602E+03  0.00000000000E+00 0. -1.
          6    2    1    2  501    0  0.99095882537E+02  0.60052559327E+02 -0.17731809402E+03  0.27294694558E+03  0.17213955042E+03 0.  0.
         24    2    3    3    0    0  0.75771799104E+02  0.93468054875E+02 -0.95902032169E+02  0.18178076031E+03  0.96795672536E+02 0.  0.
         -6    2    1    2    0  502 -0.99095882537E+02 -0.60052559327E+02  0.58400762446E+02  0.21470863488E+03  0.17106386240E+03 0.  0.
        -24    2    5    5    0    0 -0.11252219948E+03 -0.37168277744E+02 -0.83311146713E+01  0.14274204712E+03  0.79140118126E+02 0.  0.
          5    1    3    3  501    0  0.23324083433E+02 -0.33415495547E+02 -0.81416061851E+02  0.91166185277E+02  0.47000000000E+01 0. -1.
        -13    1    4    4    0    0  0.73315231032E+02  0.91029836414E+02 -0.11404961807E+03  0.16330606112E+03  0.00000000000E+00 0.  1.
         14    1    4    4    0    0  0.24565680719E+01  0.24382184606E+01  0.18147585897E+02  0.18474699182E+02  0.00000000000E+00 0. -1.
         -5    1    5    5    0  502  0.13426316942E+02 -0.22884281583E+02  0.66731877117E+02  0.71966587760E+02  0.47000000000E+01 0.  1.
         11    1    6    6    0    0 -0.10380264088E+02  0.18851497924E+02 -0.14717452952E+02  0.26071675779E+02  0.00000000000E+00 0. -1.
        -12    1    6    6    0    0 -0.10214193539E+03 -0.56019775668E+02  0.63863382805E+01  0.11667037134E+03  0.00000000000E+00 0.  1.
</event>
<event>
12    1  0.8563264E-002  0.2658142E+03  0.7818608E-02  0.1104366E+00
         21   -1    0    0  501  502  0.00000000000E+00  0.00000000000E+00  0.61583663052E+03  0.61583663052E+03  0.00000000000E+00 0.  1.
         21   -1    0    0  502  503 -0.00000000000E+00 -0.00000000000E+00 -0.25277135782E+03  0.25277135782E+03  0.00000000000E+00 0. -1.
         -6    2    1    2    0  503 -0.13723415372E+03  0.14037426319E+03 -0.14235346966E+03  0.29755169097E+03  0.17243651516E+03 0.  0.
        -24    2    3    3    0    0 -0.66627921927E+02  0.15553488598E+03 -0.11434356169E+03  0.21995188816E+03  0.81694566954E+02 0.  0.
          6    2    1    2  501    0  0.13723415372E+03 -0.14037426319E+03  0.50541874237E+03  0.57105629737E+03  0.17921786439E+03 0.  0.
         24    2    5    5    0    0  0.15128916046E+03 -0.81274511352E+02  0.45262647371E+03  0.49043720836E+03  0.78510982537E+02 0.  0.
          5    1    5    5  501    0 -0.14055006743E+02 -0.59099751839E+02  0.52792268660E+02  0.80619089007E+02  0.47000000000E+01 0. -1.
        -11    1    6    6    0    0  0.68529581145E+02  0.42406558750E+01  0.19259972748E+03  0.20447234942E+03  0.00000000000E+00 0.  1.
         12    1    6    6    0    0  0.82759579315E+02 -0.85515167227E+02  0.26002674623E+03  0.28596485894E+03  0.00000000000E+00 0. -1.
         -5    1    3    3    0  503 -0.70606231789E+02 -0.15160622787E+02 -0.28009907978E+02  0.77599802807E+02  0.47000000000E+01 0.  1.
         11    1    4    4    0    0 -0.79233042661E+02  0.91513954248E+02 -0.87665309201E+02  0.14945864080E+03  0.00000000000E+00 0. -1.
        -12    1    4    4    0    0  0.12605120733E+02  0.64020931730E+02 -0.26678252486E+02  0.70493247365E+02  0.00000000000E+00 0.  1.
</event>
<event>
12    1  0.8563264E-002  0.2545030E+03  0.7818608E-02  0.1110564E+00
         21   -1    0    0  503  502  0.00000000000E+00  0.00000000000E+00  0.78476172074E+02  0.78476172074E+02  0.00000000000E+00 0.  1.
         21   -1    0    0  501  503 -0.00000000000E+00 -0.00000000000E+00 -0.10413416294E+04  0.10413416294E+04  0.00000000000E+00 0. -1.
          6    2    1    2  501    0  0.18057208417E+03  0.48641132895E+02 -0.73765994430E+03  0.78032941072E+03  0.17262548603E+03 0.  0.
         24    2    3    3    0    0  0.14944350354E+03 -0.28360549973E+02 -0.49753333656E+03  0.52620124337E+03  0.78807651880E+02 0.  0.
         -6    2    1    2    0  502 -0.18057208417E+03 -0.48641132895E+02 -0.22520551304E+03  0.33948839076E+03  0.17193779971E+03 0.  0.
        -24    2    5    5    0    0 -0.10509011092E+03 -0.46372426076E+01 -0.21404254122E+03  0.25128083675E+03  0.79135415806E+02 0.  0.
          5    1    3    3  501    0  0.31128580627E+02  0.77001682868E+02 -0.24012660774E+03  0.25412816735E+03  0.47000000000E+01 0. -1.
        -13    1    4    4    0    0  0.12002958756E+03  0.12749736138E+02 -0.35692409212E+03  0.37678172089E+03  0.00000000000E+00 0.  1.
         14    1    4    4    0    0  0.29413915982E+02 -0.41110286110E+02 -0.14060924444E+03  0.14941952248E+03  0.00000000000E+00 0. -1.
         -5    1    5    5    0  502 -0.75481973242E+02 -0.44003890287E+02 -0.11162971824E+02  0.88207554012E+02  0.47000000000E+01 0.  1.
         11    1    6    6    0    0 -0.34731948671E+02  0.35134117933E+02 -0.63937672546E+02  0.80800621730E+02  0.00000000000E+00 0. -1.
        -12    1    6    6    0    0 -0.70358162253E+02 -0.39771360541E+02 -0.15010486867E+03  0.17048021502E+03  0.00000000000E+00 0.  1.
</event>
<event>
12    1  0.8563264E-002  0.1866227E+03  0.7818608E-02  0.1161575E+00
         21   -1    0    0  501  502  0.00000000000E+00  0.00000000000E+00  0.61983906384E+03  0.61983906384E+03  0.00000000000E+00 0.  1.
         21   -1    0    0  502  503 -0.00000000000E+00 -0.00000000000E+00 -0.12336467580E+03  0.12336467580E+03  0.00000000000E+00 0.  1.
         -6    2    1    2    0  503 -0.66981670378E+02  0.28223106567E+02 -0.26102970716E+02  0.18830273679E+03  0.17173662304E+03 0.  0.
        -24    2    3    3    0    0 -0.66992976169E+02  0.45724521947E+02  0.38661504813E+02  0.12105077059E+03  0.81115882182E+02 0.  0.
          6    2    1    2  501    0  0.66981670378E+02 -0.28223106567E+02  0.52257735876E+03  0.55490100285E+03  0.17188641355E+03 0.  0.
         24    2    5    5    0    0  0.18693463060E+02 -0.43363882572E+02  0.13590518023E+03  0.16490298015E+03  0.80578551577E+02 0.  0.
          5    1    5    5  501    0  0.48288207317E+02  0.15140776004E+02  0.38667217853E+03  0.38999802270E+03  0.47000000000E+01 0. -1.
        -13    1    6    6    0    0  0.32722356568E+02 -0.31897278343E+02  0.13918067186E+03  0.14649043793E+03  0.00000000000E+00 0.  1.
         14    1    6    6    0    0 -0.14028893507E+02 -0.11466604229E+02 -0.32754916260E+01  0.18412542219E+02  0.00000000000E+00 0. -1.
         -5    1    3    3    0  503  0.11305791643E-01 -0.17501415380E+02 -0.64764475529E+02  0.67251966207E+02  0.47000000000E+01 0.  1.
         11    1    4    4    0    0  0.18720050301E+02  0.12199475857E+02  0.39741326471E+01  0.22694960338E+02  0.00000000000E+00 0. -1.
        -12    1    4    4    0    0 -0.85713026470E+02  0.33525046090E+02  0.34687372166E+02  0.98355810249E+02  0.00000000000E+00 0.  1.
</event>
<event>
12    1  0.8563264E-002  0.2205237E+03  0.7818608E-02  0.1133592E+00
         21   -1    0    0  503  502  0.00000000000E+00  0.00000000000E+00  0.39147369235E+03  0.39147369235E+03  0.00000000000E+00 0. -1.
         21   -1    0    0  501  503 -0.00000000000E+00 -0.00000000000E+00 -0.23338915833E+03  0.23338915833E+03  0.00000000000E+00 0.  1.
          6    2    1    2  501    0 -0.57226049320E+01  0.13736488148E+03 -0.13487445919E+03  0.25849915104E+03  0.17242051060E+03 0.  0.
         24    2    3    3    0    0 -0.42272982816E+02  0.91328133845E+02 -0.15019802060E+03  0.19757121171E+03  0.79668721580E+02 0.  0.
         -6    2    1    2    0  502  0.57226049320E+01 -0.13736488148E+03  0.29295899321E+03  0.36636369964E+03  0.17174262674E+03 0.  0.
        -24    2    5    5    0    0  0.47963909973E+01  0.72543134738E+01  0.12696521694E+03  0.14615563170E+03  0.71872609083E+02 0.  0.
          5    1    3    3  501    0  0.36550377884E+02  0.46036747638E+02  0.15323561410E+02  0.60927939329E+02  0.47000000000E+01 0. -1.
        -13    1    4    4    0    0 -0.91103188877E+01  0.94363644745E+02 -0.10559203380E+03  0.14190550716E+03  0.00000000000E+00 0.  1.
         14    1    4    4    0    0 -0.33162663929E+02 -0.30355109003E+01 -0.44605986799E+02  0.55665704555E+02  0.00000000000E+00 0. -1.
         -5    1    5    5    0  502  0.92621393470E+00 -0.14461919496E+03  0.16599377627E+03  0.22020806793E+03  0.47000000000E+01 0.  1.
         11    1    6    6    0    0  0.22996754559E+02 -0.21310480837E+02  0.93190798627E+02  0.98323508189E+02  0.00000000000E+00 0. -1.
        -12    1    6    6    0    0 -0.18200363562E+02  0.28564794311E+02  0.33774418310E+02  0.47832123516E+02  0.00000000000E+00 0.  1.
</event>
<event>
12    1  0.8563264E-002  0.1985498E+03  0.7818608E-02  0.1151021E+00
         21   -1    0    0  501  502  0.00000000000E+00  0.00000000000E+00  0.51791395546E+03  0.51791395546E+03  0.00000000000E+00 0.  1.
         21   -1    0    0  502  503 -0.00000000000E+00 -0.00000000000E+00 -0.93743977403E+02  0.93743977403E+02  0.00000000000E+00 0.  1.
         -6    2    1    2    0  503  0.99376434773E+02  0.69082310224E+01  0.79222104187E+02  0.21377132215E+03  0.17175167230E+03 0.  0.
        -24    2    3    3    0    0  0.11673936165E+03  0.44219547404E+02  0.86909774028E+02  0.17164299644E+03  0.79527117847E+02 0.  0.
          6    2    1    2  501    0 -0.99376434773E+02 -0.69082310224E+01  0.34494787387E+03  0.39788661071E+03  0.17146813072E+03 0.  0.
         24    2    5    5    0    0 -0.10482442939E+03 -0.13431036970E+01  0.13654281871E+03  0.18928313925E+03  0.78703243518E+02 0.  0.
          5    1    5    5  501    0  0.54479946198E+01 -0.55651273254E+01  0.20840505516E+03  0.20860347145E+03  0.47000000000E+01 0. -1.
        -13    1    6    6    0    0 -0.62787744025E+02  0.21894230704E+02  0.12225925120E+03  0.13917249241E+03  0.00000000000E+00 0.  1.
         14    1    6    6    0    0 -0.42036685368E+02 -0.23237334401E+02  0.14283567503E+02  0.50110646846E+02  0.00000000000E+00 0. -1.
         -5    1    3    3    0  503 -0.17362926877E+02 -0.37311316382E+02 -0.76876698407E+01  0.42128325714E+02  0.47000000000E+01 0.  1.
         13    1    4    4    0    0  0.50514266323E+02 -0.21075388786E+02  0.27162354962E+02  0.61103654897E+02  0.00000000000E+00 0. -1.
        -14    1    4    4    0    0  0.66225095327E+02  0.65294936190E+02  0.59747419065E+02  0.11053934154E+03  0.00000000000E+00 0.  1.
</event>
<event>
12    1  0.8563264E-002  0.1784002E+03  0.7818608E-02  0.1169835E+00
         21   -1    0    0  501  502  0.00000000000E+00  0.00000000000E+00  0.15174898366E+03  0.15174898366E+03  0.00000000000E+00 0.  1.
         21   -1    0    0  502  503 -0.00000000000E+00 -0.00000000000E+00 -0.21280680842E+03  0.21280680842E+03  0.00000000000E+00 0.  1.
         -6    2    1    2    0  503  0.34909258791E+02 -0.18510604638E+02 -0.59548376323E+02  0.18807613823E+03  0.17396932436E+03 0.  0.
        -24    2    3    3    0    0 -0.16077699734E+02  0.47247490583E+02 -0.28345341570E+02  0.99084473430E+02  0.80767918700E+02 0.  0.
          6    2    1    2  501    0 -0.34909258791E+02  0.18510604638E+02 -0.15094484369E+01  0.17647965384E+03  0.17199270610E+03 0.  0.
         24    2    5    5    0    0 -0.68690932264E+02  0.49224471589E+02 -0.33255389190E+02  0.12067250520E+03  0.79463449597E+02 0.  0.
          5    1    5    5  501    0  0.33781673473E+02 -0.30713866951E+02  0.31745940753E+02  0.55807148646E+02  0.47000000000E+01 0. -1.
        -11    1    6    6    0    0 -0.57827271503E+01  0.18919620196E+02  0.23478799934E+02  0.30702540742E+02  0.00000000000E+00 0.  1.
         12    1    6    6    0    0 -0.62908205113E+02  0.30304851392E+02 -0.56734189124E+02  0.89969964455E+02  0.00000000000E+00 0. -1.
         -5    1    3    3    0  503  0.50986958525E+02 -0.65758095221E+02 -0.31203034754E+02  0.88991664804E+02  0.47000000000E+01 0.  1.
         13    1    4    4    0    0 -0.31231576280E+02  0.82518817551E+01 -0.43852864465E+02  0.54466307303E+02  0.00000000000E+00 0. -1.
        -14    1    4    4    0    0  0.15153876546E+02  0.38995608828E+02  0.15507522895E+02  0.44618166128E+02  0.00000000000E+00 0.  1.
</event>
<event>
12    1  0.8563264E-002  0.2523104E+03  0.7818608E-02  0.1112102E+00
         21   -1    0    0  503  502  0.00000000000E+00  0.00000000000E+00  0.53854104241E+03  0.53854104241E+03  0.00000000000E+00 0.  1.
         21   -1    0    0  501  503 -0.00000000000E+00 -0.00000000000E+00 -0.39141642774E+03  0.39141642774E+03  0.00000000000E+00 0.  1.
          6    2    1    2  501    0 -0.17148116594E+03 -0.65912787439E+02 -0.31550693936E+03  0.40299592475E+03  0.17061887574E+03 0.  0.
         24    2    3    3    0    0 -0.49662542557E+02 -0.43221085285E+01 -0.55795435343E+02  0.10955880363E+03  0.80030944593E+02 0.  0.
         -6    2    1    2    0  502  0.17148116594E+03  0.65912787439E+02  0.46263155403E+03  0.52696154540E+03  0.17294574213E+03 0.  0.
        -24    2    5    5    0    0  0.15225824866E+03  0.51197750764E+02  0.46848673374E+03  0.50161542178E+03  0.79589118041E+02 0.  0.
          5    1    3    3  501    0 -0.12181862339E+03 -0.61590678910E+02 -0.25971150402E+03  0.29343712112E+03  0.47000000000E+01 0. -1.
        -11    1    4    4    0    0  0.21982835756E+01 -0.33406506892E+02 -0.11446525923E+02  0.35381493879E+02  0.00000000000E+00 0.  1.
         12    1    4    4    0    0 -0.51860826133E+02  0.29084398363E+02 -0.44348909420E+02  0.74177309752E+02  0.00000000000E+00 0. -1.
         -5    1    5    5    0  502  0.19222917280E+02  0.14715036675E+02 -0.58551797042E+01  0.25346123618E+02  0.47000000000E+01 0.  1.
         11    1    6    6    0    0  0.64443370773E+02 -0.17457807179E+02  0.15007951720E+03  0.16426072126E+03  0.00000000000E+00 0. -1.
        -12    1    6    6    0    0  0.87814877891E+02  0.68655557943E+02  0.31840721654E+03  0.33735470052E+03  0.00000000000E+00 0.  1.
</event>
<event>
12    1  0.8563264E-002  0.1767742E+03  0.7818608E-02  0.1171211E+00
         21   -1    0    0  501  502  0.00000000000E+00  0.00000000000E+00  0.56478502233E+03  0.56478502233E+03  0.00000000000E+00 0. -1.
         21   -1    0    0  502  503 -0.00000000000E+00 -0.00000000000E+00 -0.42343646486E+03  0.42343646486E+03  0.00000000000E+00 0. -1.
         -6    2    1    2    0  503  0.12517282378E+02  0.36164329405E+02 -0.39019467916E+03  0.42837017681E+03  0.17258209539E+03 0.  0.
        -24    2    3    3    0    0 -0.41543577136E+02 -0.23437568459E+02 -0.17562405967E+03  0.19915934915E+03  0.80903940609E+02 0.  0.
          6    2    1    2  501    0 -0.12517282378E+02 -0.36164329405E+02  0.53154323664E+03  0.55985131038E+03  0.17155388727E+03 0.  0.
         24    2    5    5    0    0 -0.58323706986E+02  0.13529996298E+02  0.39313683296E+03  0.40575336385E+03  0.80588505731E+02 0.  0.
          5    1    5    5  501    0  0.45806424608E+02 -0.49694325703E+02  0.13840640369E+03  0.15409794653E+03  0.47000000000E+01 0. -1.
        -11    1    6    6    0    0 -0.36301444174E+02 -0.21998648000E+02  0.87289632503E+02  0.97062945069E+02  0.00000000000E+00 0.  1.
         12    1    6    6    0    0 -0.22022262812E+02  0.35528644298E+02  0.30584720045E+03  0.30869041879E+03  0.00000000000E+00 0. -1.
         -5    1    3    3    0  503  0.54060859514E+02  0.59601897864E+02 -0.21457061950E+03  0.22921082765E+03  0.47000000000E+01 0.  1.
         11    1    4    4    0    0  0.78998665740E+01  0.19123207312E+02 -0.85084696250E+02  0.87564321991E+02  0.00000000000E+00 0. -1.
        -12    1    4    4    0    0 -0.49443443710E+02 -0.42560775771E+02 -0.90539363415E+02  0.11159502716E+03  0.00000000000E+00 0.  1.
</event>
<event>
12    1  0.8563264E-002  0.2378373E+03  0.7818608E-02  0.1121248E+00
         21   -1    0    0  503  502  0.00000000000E+00  0.00000000000E+00  0.17762472290E+04  0.17762472290E+04  0.00000000000E+00 0.  1.
         21   -1    0    0  501  503 -0.00000000000E+00 -0.00000000000E+00 -0.35986663195E+02  0.35986663195E+02  0.00000000000E+00 0.  1.
          6    2    1    2  501    0  0.46454671816E+02 -0.15724886969E+03  0.56252225983E+03  0.61072062955E+03  0.17222993641E+03 0.  0.
         24    2    3    3    0    0  0.67251095608E+02 -0.30887170874E+02  0.27565893993E+03  0.29653529495E+03  0.80427624631E+02 0.  0.
         -6    2    1    2    0  502 -0.46454671816E+02  0.15724886969E+03  0.11777383060E+04  0.12015132627E+04  0.17228278906E+03 0.  0.
        -24    2    5    5    0    0 -0.84634306968E+02  0.13867298349E+03  0.76259878365E+03  0.78418166657E+03  0.83611118247E+02 0.  0.
          5    1    3    3  501    0 -0.20796423792E+02 -0.12636169882E+03  0.28686331990E+03  0.31418533459E+03  0.47000000000E+01 0. -1.
        -11    1    4    4    0    0  0.14890088160E+02 -0.32260772435E+02  0.20778286275E+03  0.21079893314E+03  0.00000000000E+00 0.  1.
         12    1    4    4    0    0  0.52361007449E+02  0.13736015611E+01  0.67876077186E+02  0.85736361810E+02  0.00000000000E+00 0. -1.
         -5    1    5    5    0  502  0.38179635152E+02  0.18575886197E+02  0.41513952237E+03  0.41733159612E+03  0.47000000000E+01 0.  1.
         13    1    6    6    0    0  0.85129355354E+01  0.32429685938E+02  0.74074844928E+02  0.81309515142E+02  0.00000000000E+00 0. -1.
        -14    1    6    6    0    0 -0.93147242503E+02  0.10624329755E+03  0.68852393872E+03  0.70287215143E+03  0.00000000000E+00 0.  1.
</event>
<event>
12    1  0.8563264E-002  0.1791715E+03  0.7818608E-02  0.1168678E+00
         21   -1    0    0  501  502  0.00000000000E+00  0.00000000000E+00  0.41586852536E+02  0.41586852536E+02  0.00000000000E+00 0.  1.
         21   -1    0    0  502  503 -0.00000000000E+00 -0.00000000000E+00 -0.77068854082E+03  0.77068854082E+03  0.00000000000E+00 0.  1.
         -6    2    1    2    0  503 -0.11848123685E+02 -0.47987540690E+02 -0.36597232136E+03  0.40747779346E+03  0.17221855320E+03 0.  0.
        -24    2    3    3    0    0  0.25869945543E+02  0.21829340080E+02 -0.11869192055E+03  0.14773419641E+03  0.81190187915E+02 0.  0.
          6    2    1    2  501    0  0.11848123685E+02  0.47987540690E+02 -0.36312936693E+03  0.40479759990E+03  0.17191561203E+03 0.  0.
         24    2    5    5    0    0 -0.26855139334E+02  0.47934492950E+01 -0.32401083905E+03  0.33468325526E+03  0.79282292280E+02 0.  0.
          5    1    5    5  501    0  0.38703263018E+02  0.43194091395E+02 -0.39118527879E+02  0.70114344631E+02  0.47000000000E+01 0. -1.
        -13    1    6    6    0    0 -0.43766217603E+02  0.12326283090E+02 -0.99344173478E+02  0.10925513197E+03  0.00000000000E+00 0.  1.
         14    1    6    6    0    0  0.16911078269E+02 -0.75328337949E+01 -0.22466666557E+03  0.22542812329E+03  0.00000000000E+00 0. -1.
         -5    1    3    3    0  503 -0.37718069227E+02 -0.69816880769E+02 -0.24728040081E+03  0.25974359705E+03  0.47000000000E+01 0.  1.
         13    1    4    4    0    0 -0.28919111411E+02  0.35338130092E+01 -0.51108616295E+02  0.58829359156E+02  0.00000000000E+00 0. -1.
        -14    1    4    4    0    0  0.54789056954E+02  0.18295527071E+02 -0.67583304259E+02  0.88904837255E+02  0.00000000000E+00 0.  1.
</event>
<event>
12    1  0.8563264E-002  0.1801756E+03  0.7818608E-02  0.1167724E+00
         21   -1    0    0  503  502  0.00000000000E+00  0.00000000000E+00  0.18406780150E+03  0.18406780150E+03  0.00000000000E+00 0.  1.
         21   -1    0    0  501  503 -0.00000000000E+00 -0.00000000000E+00 -0.17658072774E+03  0.17658072774E+03  0.00000000000E+00 0. -1.
          6    2    1    2  501    0  0.52969547416E+02  0.94743219741E+01  0.14099900479E+02  0.18072650482E+03  0.17195268716E+03 0.  0.
         24    2    3    3    0    0  0.86756110252E+02 -0.26943334089E+02  0.36204148911E+02  0.12615118714E+03  0.79692005250E+02 0.  0.
         -6    2    1    2    0  502 -0.52969547416E+02 -0.94743219741E+01 -0.66128267237E+01  0.17992202442E+03  0.17155952222E+03 0.  0.
        -24    2    5    5    0    0 -0.60493818834E+02 -0.12541528395E+02 -0.65339574374E+02  0.12044981826E+03  0.80138047695E+02 0.  0.
          5    1    3    3  501    0 -0.33786562836E+02  0.36417656063E+02 -0.22104248432E+02  0.54575317682E+02  0.47000000000E+01 0. -1.
        -11    1    4    4    0    0  0.24196804922E+02 -0.30595193949E+02  0.48552044458E+02  0.62280432579E+02  0.00000000000E+00 0.  1.
         12    1    4    4    0    0  0.62559305330E+02  0.36518598608E+01 -0.12347895547E+02  0.63870754561E+02  0.00000000000E+00 0. -1.
         -5    1    5    5    0  502  0.75242714188E+01  0.30672064210E+01  0.58726747650E+02  0.59472206157E+02  0.47000000000E+01 0.  1.
         11    1    6    6    0    0 -0.52193568660E+02  0.28342723030E+02 -0.36065421868E+02  0.69485201394E+02  0.00000000000E+00 0. -1.
        -12    1    6    6    0    0 -0.83002501745E+01 -0.40884251426E+02 -0.29274152505E+02  0.50964616868E+02  0.00000000000E+00 0.  1.
</event>
<event>
12    1  0.8563264E-002  0.1815691E+03  0.7818608E-02  0.1166810E+00
         21   -1    0    0  503  502  0.00000000000E+00  0.00000000000E+00  0.27518114646E+02  0.27518114646E+02  0.00000000000E+00 0. -1.
         21   -1    0    0  501  503 -0.00000000000E+00 -0.00000000000E+00 -0.16989330684E+04  0.16989330684E+04  0.00000000000E+00 0. -1.
          6    2    1    2  501    0 -0.50617883449E+02  0.11392973443E+01 -0.13075239192E+04  0.13197768165E+04  0.17212953797E+03 0.  0.
         24    2    3    3    0    0  0.29292326427E+02 -0.15027126268E+02 -0.91440425411E+03  0.91826448044E+03  0.77399361629E+02 0.  0.
         -6    2    1    2    0  502  0.50617883449E+02 -0.11392973443E+01 -0.36389103455E+03  0.40667436659E+03  0.17436710496E+03 0.  0.
        -24    2    5    5    0    0  0.86970108333E+02 -0.20830137141E+02 -0.34566006025E+03  0.36124671147E+03  0.54960121357E+02 0.  0.
          5    1    3    3  501    0 -0.79910209875E+02  0.16166423613E+02 -0.39311966509E+03  0.40151233602E+03  0.47000000000E+01 0. -1.
        -13    1    4    4    0    0  0.37538691734E+02  0.19074121703E+02 -0.31050787415E+03  0.31334982911E+03  0.00000000000E+00 0.  1.
         14    1    4    4    0    0 -0.82463653079E+01 -0.34101247971E+02 -0.60389637996E+03  0.60491465133E+03  0.00000000000E+00 0. -1.
         -5    1    5    5    0  502 -0.36352224885E+02  0.19690839796E+02 -0.18230974305E+02  0.45427655124E+02  0.47000000000E+01 0.  1.
         11    1    6    6    0    0  0.67548156710E+02 -0.11082555330E+02 -0.15614701826E+03  0.17049184092E+03  0.00000000000E+00 0. -1.
        -12    1    6    6    0    0  0.19421951624E+02 -0.97475818102E+01 -0.18951304199E+03  0.19075487055E+03  0.00000000000E+00 0.  1.
</event>
<event>
12    1  0.8563264E-002  0.1868332E+03  0.7818608E-02  0.1161943E+00
         21   -1    0    0  503  502  0.00000000000E+00  0.00000000000E+00  0.35497652137E+03  0.35497652137E+03  0.00000000000E+00 0.  1.
         21   -1    0    0  501  503 -0.00000000000E+00 -0.00000000000E+00 -0.11418324180E+03  0.11418324180E+03  0.00000000000E+00 0.  1.
          6    2    1    2  501    0 -0.64187680213E+02 -0.12868315877E+02  0.30083647300E+02  0.18923971217E+03  0.17498854529E+03 0.  0.
         24    2    3    3    0    0  0.43556359658E+02  0.10991020787E+02 -0.94964505123E+01  0.71908044588E+02  0.55340991133E+02 0.  0.
         -6    2    1    2    0  502  0.64187680213E+02  0.12868315877E+02  0.21070963227E+03  0.27992005100E+03  0.17225281994E+03 0.  0.
        -24    2    5    5    0    0 -0.12784926281E+01 -0.43714161300E+02  0.73663347534E+02  0.11777452788E+03  0.80820716433E+02 0.  0.
          5    1    3    3  501    0 -0.10774403987E+03 -0.23859336663E+02  0.39580097812E+02  0.11733166758E+03  0.47000000000E+01 0. -1.
        -13    1    4    4    0    0  0.38416938912E+02 -0.10163064536E+02 -0.23362896392E+02  0.46097440318E+02  0.00000000000E+00 0.  1.
         14    1    4    4    0    0  0.51394207468E+01  0.21154085323E+02  0.13866445879E+02  0.25810604270E+02  0.00000000000E+00 0. -1.
         -5    1    5    5    0  502  0.65466172841E+02  0.56582477177E+02  0.13704628474E+03  0.16214552313E+03  0.47000000000E+01 0.  1.
         13    1    6    6    0    0  0.20881590687E+02  0.11424987976E+02  0.46912188152E+02  0.52605366429E+02  0.00000000000E+00 0. -1.
        -14    1    6    6    0    0 -0.22160083315E+02 -0.55139149275E+02  0.26751159382E+02  0.65169161446E+02  0.00000000000E+00 0.  1.
</event>
<event>
12    1  0.8563264E-002  0.1804974E+03  0.7818608E-02  0.1167465E+00
         21   -1    0    0  503  502  0.00000000000E+00  0.00000000000E+00  0.80682088042E+02  0.80682088042E+02  0.00000000000E+00 0.  1.
         21   -1    0    0  501  503 -0.00000000000E+00 -0.00000000000E+00 -0.13236221610E+04  0.13236221610E+04  0.00000000000E+00 0. -1.
          6    2    1    2  501    0 -0.48668276799E+02 -0.21308196828E+02 -0.12069105150E+04  0.12202459908E+04  0.17188556244E+03 0.  0.
         24    2    3    3    0    0 -0.94577710122E+02 -0.21679424409E+02 -0.72007770349E+03  0.73123056141E+03  0.82287873847E+02 0.  0.
         -6    2    1    2    0  502  0.48668276799E+02  0.21308196828E+02 -0.36029558023E+02  0.18405825824E+03  0.17250122596E+03 0.  0.
        -24    2    5    5    0    0 -0.41797377224E+02  0.53965853257E+00 -0.15674423975E+02  0.88917372066E+02  0.76897981209E+02 0.  0.
          5    1    3    3  501    0  0.45909433323E+02  0.37122758092E+00 -0.48683281149E+03  0.48901542943E+03  0.47000000000E+01 0. -1.
        -13    1    4    4    0    0 -0.90644117409E+02 -0.26901975959E+01 -0.68643314948E+03  0.69239732949E+03  0.00000000000E+00 0.  1.
         14    1    4    4    0    0 -0.39335927129E+01 -0.18989226813E+02 -0.33644554007E+02  0.38833231915E+02  0.00000000000E+00 0. -1.
         -5    1    5    5    0  502  0.90465654023E+02  0.20768538295E+02 -0.20355134048E+02  0.95140886179E+02  0.47000000000E+01 0.  1.
         11    1    6    6    0    0 -0.17095997694E+01  0.33983791095E+02 -0.13676554704E+02  0.36672454746E+02  0.00000000000E+00 0. -1.
        -12    1    6    6    0    0 -0.40087777455E+02 -0.33444132562E+02 -0.19978692708E+01  0.52244917320E+02  0.00000000000E+00 0.  1.
</event>
<event>
12    1  0.8563264E-002  0.2160950E+03  0.7818608E-02  0.1139035E+00
         21   -1    0    0  501  502  0.00000000000E+00  0.00000000000E+00  0.37991890696E+02  0.37991890696E+02  0.00000000000E+00 0.  1.
         21   -1    0    0  502  503 -0.00000000000E+00 -0.00000000000E+00 -0.11697899597E+04  0.11697899597E+04  0.00000000000E+00 0.  1.
         -6    2    1    2    0  503 -0.82339366009E+01 -0.13044585745E+03 -0.51655796433E+03  0.55569486792E+03  0.15773628712E+03 0.  0.
        -24    2    3    3    0    0 -0.30480392693E+02 -0.54193556509E+02 -0.21684327967E+03  0.24559762444E+03  0.97114310420E+02 0.  0.
          6    2    1    2  501    0  0.82339366009E+01  0.13044585745E+03 -0.61524010471E+03  0.65208698252E+03  0.17208465036E+03 0.  0.
         24    2    5    5    0    0 -0.39042755560E+02  0.96935660355E+02 -0.55031687188E+03  0.56493691028E+03  0.73377067972E+02 0.  0.
          5    1    5    5  501    0  0.47276692161E+02  0.33510197093E+02 -0.64923232828E+02  0.87150072242E+02  0.47000000000E+01 0. -1.
        -11    1    6    6    0    0  0.86178635501E+01  0.74356985737E+02 -0.31187161598E+03  0.32072906597E+03  0.00000000000E+00 0.  1.
         12    1    6    6    0    0 -0.47660619110E+02  0.22578674618E+02 -0.23844525590E+03  0.24420784431E+03  0.00000000000E+00 0. -1.
         -5    1    3    3    0  503  0.22246456092E+02 -0.76252300940E+02 -0.29971468466E+03  0.31009724347E+03  0.47000000000E+01 0.  1.
         13    1    4    4    0    0 -0.58358201193E+02 -0.71187710724E+01 -0.13387074809E+03  0.14621126407E+03  0.00000000000E+00 0. -1.
        -14    1    4    4    0    0  0.27877808500E+02 -0.47074785436E+02 -0.82972531581E+02  0.99386360370E+02  0.00000000000E+00 0.  1.
</event>
<event>
12    1  0.8563264E-002  0.2626266E+03  0.7818608E-02  0.1106412E+00
         21   -1    0    0  501  502  0.00000000000E+00  0.00000000000E+00  0.14732329619E+03  0.14732329619E+03  0.00000000000E+00 0. -1.
         21   -1    0    0  502  503 -0.00000000000E+00 -0.00000000000E+00 -0.46335447249E+03  0.46335447249E+03  0.00000000000E+00 0.  1.
         -6    2    1    2    0  503  0.19507822309E+03  0.89658966879E+01 -0.19162438418E+03  0.32510404658E+03  0.17560420286E+03 0.  0.
        -24    2    3    3    0    0  0.14515903613E+03 -0.55713163414E+02 -0.10752357270E+03  0.20775694378E+03  0.86177297801E+02 0.  0.
          6    2    1    2  501    0 -0.19507822309E+03 -0.89658966879E+01 -0.12440679212E+03  0.28557372211E+03  0.16715083130E+03 0.  0.
         24    2    5    5    0    0 -0.12513908863E+03  0.54436851870E+02 -0.50702706808E+02  0.16571641843E+03  0.79170730161E+02 0.  0.
          5    1    5    5  501    0 -0.69939134459E+02 -0.63402748558E+02 -0.73704085313E+02  0.11985730368E+03  0.47000000000E+01 0. -1.
        -13    1    6    6    0    0 -0.60219924744E+02  0.12621315402E+02 -0.62379174614E+02  0.87617911206E+02  0.00000000000E+00 0.  1.
         14    1    6    6    0    0 -0.64919163885E+02  0.41815536468E+02  0.11676467806E+02  0.78098507221E+02  0.00000000000E+00 0. -1.
         -5    1    3    3    0  503  0.49919186960E+02  0.64679060102E+02 -0.84100811480E+02  0.11734710279E+03  0.47000000000E+01 0.  1.
         11    1    4    4    0    0  0.44282615170E+02  0.50630027906E+00  0.73238469402E+01  0.44887025745E+02  0.00000000000E+00 0. -1.
        -12    1    4    4    0    0  0.10087642096E+03 -0.56219463693E+02 -0.11484741964E+03  0.16286991804E+03  0.00000000000E+00 0.  1.
</event>
<event>
12    1  0.8563264E-002  0.2136808E+03  0.7818608E-02  0.1139006E+00
         21   -1    0    0  503  502  0.00000000000E+00  0.00000000000E+00  0.75811773524E+03  0.75811773524E+03  0.00000000000E+00 0.  1.
         21   -1    0    0  501  503 -0.00000000000E+00 -0.00000000000E+00 -0.95960574348E+02  0.95960574348E+02  0.00000000000E+00 0.  1.
          6    2    1    2  501    0  0.24095221188E+02  0.12137818017E+03  0.67993034456E+02  0.22265887502E+03  0.17216468739E+03 0.  0.
         24    2    3    3    0    0  0.53680104012E+02  0.71448821320E+02 -0.15693562386E+02  0.12070916850E+03  0.79611103660E+02 0.  0.
         -6    2    1    2    0  502 -0.24095221188E+02 -0.12137818017E+03  0.59416412644E+03  0.63141943457E+03  0.17420175344E+03 0.  0.
        -24    2    5    5    0    0 -0.15068630606E+02 -0.15027271119E+03  0.38331715417E+03  0.41835862406E+03  0.72683879166E+02 0.  0.
          5    1    3    3  501    0 -0.29584882824E+02  0.49929358854E+02  0.83686596842E+02  0.10194970651E+03  0.47000000000E+01 0. -1.
        -11    1    4    4    0    0  0.51601426175E+01  0.31381706478E+02 -0.41851187255E+02  0.52563870177E+02  0.00000000000E+00 0.  1.
         12    1    4    4    0    0  0.48519961394E+02  0.40067114842E+02  0.26157624868E+02  0.68145298328E+02  0.00000000000E+00 0. -1.
         -5    1    5    5    0  502 -0.90265905820E+01  0.28894531012E+02  0.21084697227E+03  0.21306081051E+03  0.47000000000E+01 0.  1.
         13    1    6    6    0    0  0.24136604921E+02 -0.83503149166E+02  0.24326776539E+03  0.25833032593E+03  0.00000000000E+00 0. -1.
        -14    1    6    6    0    0 -0.39205235527E+02 -0.66769562020E+02  0.14004938878E+03  0.16002829813E+03  0.00000000000E+00 0.  1.
</event>
<event>
12    1  0.8563264E-002  0.1739599E+03  0.7818608E-02  0.1174062E+00
         21   -1    0    0  503  502  0.00000000000E+00  0.00000000000E+00  0.30465442991E+03  0.30465442991E+03  0.00000000000E+00 0. -1.
         21   -1    0    0  501  503 -0.00000000000E+00 -0.00000000000E+00 -0.91550921598E+03  0.91550921598E+03  0.00000000000E+00 0. -1.
          6    2    1    2  501    0  0.86433087831E+01  0.22316358456E+02 -0.88157978573E+03  0.89836547244E+03  0.17118667248E+03 0.  0.
         24    2    3    3    0    0 -0.58864328821E+02  0.27600806346E+01 -0.55095958693E+03  0.56032474266E+03  0.83274987599E+02 0.  0.
         -6    2    1    2    0  502 -0.86433087831E+01 -0.22316358456E+02  0.27072499965E+03  0.32179817344E+03  0.17230586859E+03 0.  0.
        -24    2    5    5    0    0  0.46886074080E+02  0.30265169667E+02  0.14716632730E+03  0.17641191214E+03  0.79680301310E+02 0.  0.
          5    1    3    3  501    0  0.67507637604E+02  0.19556277821E+02 -0.33062019880E+03  0.33804072978E+03  0.47000000000E+01 0. -1.
        -11    1    4    4    0    0 -0.12664534180E+02 -0.12772187917E+02 -0.19098386494E+02  0.26234854238E+02  0.00000000000E+00 0.  1.
         12    1    4    4    0    0 -0.46199794640E+02  0.15532268551E+02 -0.53186120043E+03  0.53408988843E+03  0.00000000000E+00 0. -1.
         -5    1    5    5    0  502 -0.55529382863E+02 -0.52581528123E+02  0.12355867236E+03  0.14538626130E+03  0.47000000000E+01 0.  1.
         11    1    6    6    0    0  0.35815643294E+02  0.30723817391E+02  0.15552922901E+03  0.16253016439E+03  0.00000000000E+00 0. -1.
        -12    1    6    6    0    0  0.11070430786E+02 -0.45864772470E+00 -0.83629017136E+01  0.13881747750E+02  0.00000000000E+00 0.  1.
</event>
<event>
12    1  0.8563264E-002  0.1885364E+03  0.7818608E-02  0.1159900E+00
         21   -1    0    0  501  502  0.00000000000E+00  0.00000000000E+00  0.13021834723E+03  0.13021834723E+03  0.00000000000E+00 0. -1.
         21   -1    0    0  502  503 -0.00000000000E+00 -0.00000000000E+00 -0.73880106815E+03  0.73880106815E+03  0.00000000000E+00 0. -1.
         -6    2    1    2    0  503  0.44979793144E+02  0.61200962504E+02 -0.64943128815E+03  0.67610859833E+03  0.17202644887E+03 0.  0.
        -24    2    3    3    0    0  0.96256506921E+02  0.40414443528E+02 -0.42777858994E+03  0.44760610520E+03  0.80362062107E+02 0.  0.
          6    2    1    2  501    0 -0.44979793144E+02 -0.61200962504E+02  0.40848567228E+02  0.19291081704E+03  0.17256082488E+03 0.  0.
         24    2    5    5    0    0 -0.17350059452E+02 -0.36085806877E+02  0.92290393302E+02  0.12917287939E+03  0.81024107856E+02 0.  0.
          5    1    5    5  501    0 -0.27629733692E+02 -0.25115155627E+02 -0.51441826073E+02  0.63737937649E+02  0.47000000000E+01 0. -1.
        -13    1    6    6    0    0 -0.20488156988E+02 -0.12061035862E+02 -0.87002157069E+01  0.25316534443E+02  0.00000000000E+00 0.  1.
         14    1    6    6    0    0  0.31380975360E+01 -0.24024771015E+02  0.10099060901E+03  0.10385634495E+03  0.00000000000E+00 0. -1.
         -5    1    3    3    0  503 -0.51276713777E+02  0.20786518976E+02 -0.22165269821E+03  0.22850249314E+03  0.47000000000E+01 0.  1.
         11    1    4    4    0    0  0.36203405249E+01 -0.19426214053E+02 -0.94868414935E+02  0.96904596435E+02  0.00000000000E+00 0. -1.
        -12    1    4    4    0    0  0.92636166396E+02  0.59840657581E+02 -0.33291017501E+03  0.35070150876E+03  0.00000000000E+00 0.  1.
</event>
<event>
12    1  0.8563264E-002  0.1999071E+03  0.7818608E-02  0.1150596E+00
         21   -1    0    0  501  502  0.00000000000E+00  0.00000000000E+00  0.56553280225E+03  0.56553280225E+03  0.00000000000E+00 0.  1.
         21   -1    0    0  502  503 -0.00000000000E+00 -0.00000000000E+00 -0.11938557282E+03  0.11938557282E+03  0.00000000000E+00 0. -1.
         -6    2    1    2    0  503  0.34082615682E+02 -0.81495717535E+02  0.26354552217E+01  0.19992449461E+03  0.17933120546E+03 0.  0.
        -24    2    3    3    0    0 -0.41583602625E+02 -0.71197818813E+02 -0.29050108907E+02  0.11711454179E+03  0.77933187156E+02 0.  0.
          6    2    1    2  501    0 -0.34082615682E+02  0.81495717535E+02  0.44351177421E+03  0.48499388047E+03  0.17525180044E+03 0.  0.
         24    2    5    5    0    0 -0.33478015512E+02  0.45617806776E+02  0.43923963171E+03  0.44855308982E+03  0.71180464319E+02 0.  0.
          5    1    5    5  501    0 -0.60460017035E+00  0.35877910759E+02  0.42721425046E+01  0.36440790652E+02  0.47000000000E+01 0. -1.
        -13    1    6    6    0    0  0.45110952949E+01  0.34164194417E+02  0.33898601422E+03  0.34073312137E+03  0.00000000000E+00 0.  1.
         14    1    6    6    0    0 -0.37989110807E+02  0.11453612359E+02  0.10025361749E+03  0.10781996844E+03  0.00000000000E+00 0. -1.
         -5    1    3    3    0  503  0.75666218308E+02 -0.10297898722E+02  0.31685564129E+02  0.82809952815E+02  0.47000000000E+01 0.  1.
         13    1    4    4    0    0 -0.12516058298E+02 -0.66194147104E+02 -0.47405166026E+02  0.82374550633E+02  0.00000000000E+00 0. -1.
        -14    1    4    4    0    0 -0.29067544327E+02 -0.50036717090E+01  0.18355057118E+02  0.34739991157E+02  0.00000000000E+00 0.  1.
</event>
<event>
12    1  0.8563264E-002  0.1809551E+03  0.7818608E-02  0.1167176E+00
         21   -1    0    0  503  502  0.00000000000E+00  0.00000000000E+00  0.23250937850E+03  0.23250937850E+03  0.00000000000E+00 0.  1.
         21   -1    0    0  501  503 -0.00000000000E+00 -0.00000000000E+00 -0.17431661421E+03  0.17431661421E+03  0.00000000000E+00 0.  1.
          6    2    1    2  501    0 -0.55427516981E+02 -0.36781665726E+01 -0.61230328811E+02  0.19103374982E+03  0.17221789063E+03 0.  0.
         24    2    3    3    0    0 -0.64792379805E+02  0.18643258493E+02  0.20259845166E+02  0.10589453953E+03  0.79104795106E+02 0.  0.
         -6    2    1    2    0  502  0.55427516981E+02  0.36781665726E+01  0.11942309310E+03  0.21579224290E+03  0.17093471965E+03 0.  0.
        -24    2    5    5    0    0  0.21662204999E+02 -0.63044068966E+02  0.46931223300E+02  0.11153719892E+03  0.76119650978E+02 0.  0.
          5    1    3    3  501    0  0.93648628239E+01 -0.22321425066E+02 -0.81490173977E+02  0.85139210282E+02  0.47000000000E+01 0. -1.
        -11    1    4    4    0    0 -0.43546078959E+01  0.37565042862E+02 -0.41050796524E+01  0.38038753056E+02  0.00000000000E+00 0.  1.
         12    1    4    4    0    0 -0.60437771909E+02 -0.18921784368E+02  0.24364924818E+02  0.67855786477E+02  0.00000000000E+00 0. -1.
         -5    1    5    5    0  502  0.33765311982E+02  0.66722235538E+02  0.72491869801E+02  0.10425504398E+03  0.47000000000E+01 0.  1.
         13    1    6    6    0    0 -0.20665752567E+02  0.29090114133E+01  0.14308173497E+01  0.20918482614E+02  0.00000000000E+00 0. -1.
        -14    1    6    6    0    0  0.42327957566E+02 -0.65953080379E+02  0.45500405950E+02  0.90618716305E+02  0.00000000000E+00 0.  1.
</event>
<event>
12    1  0.8563264E-002  0.1764034E+03  0.7818608E-02  0.1174229E+00
         21   -1    0    0  501  502  0.00000000000E+00  0.00000000000E+00  0.47551967995E+03  0.47551967995E+03  0.00000000000E+00 0.  1.
         21   -1    0    0  502  503 -0.00000000000E+00 -0.00000000000E+00 -0.75296822322E+02  0.75296822322E+02  0.00000000000E+00 0.  1.
         -6    2    1    2    0  503  0.30090023455E+02 -0.25816241153E+02  0.76163592803E+02  0.18185503362E+03  0.16030743141E+03 0.  0.
        -24    2    3    3    0    0  0.80123325910E+02 -0.11398222624E+02  0.76998224132E+02  0.12956739433E+03  0.65645383087E+02 0.  0.
          6    2    1    2  501    0 -0.30090023455E+02  0.25816241153E+02  0.32405926483E+03  0.36896146865E+03  0.17189028598E+03 0.  0.
         24    2    5    5    0    0 -0.83316147704E+02  0.67185234343E+01  0.24125113770E+03  0.26857711209E+03  0.83335674664E+02 0.  0.
          5    1    5    5  501    0  0.53226124250E+02  0.19097717719E+02  0.82808127125E+02  0.10038435656E+03  0.47000000000E+01 0. -1.
        -11    1    6    6    0    0  0.15525885558E+01 -0.88598617948E+00  0.12199351801E+03  0.12200661432E+03  0.00000000000E+00 0.  1.
         12    1    6    6    0    0 -0.84868736260E+02  0.76045096137E+01  0.11925761969E+03  0.14657049777E+03  0.00000000000E+00 0. -1.
         -5    1    3    3    0  503 -0.50033302455E+02 -0.14418018529E+02 -0.83463132851E+00  0.52287639288E+02  0.47000000000E+01 0.  1.
         13    1    4    4    0    0  0.75059983687E+02  0.14912277352E+02  0.49308255794E+02  0.91036702798E+02  0.00000000000E+00 0. -1.
        -14    1    4    4    0    0  0.50633422224E+01 -0.26310499976E+02  0.27689968338E+02  0.38530691533E+02  0.00000000000E+00 0.  1.
</event>
<event>
12    1  0.8563264E-002  0.1970872E+03  0.7818608E-02  0.1152268E+00
         21   -1    0    0  503  502  0.00000000000E+00  0.00000000000E+00  0.41278540170E+03  0.41278540170E+03  0.00000000000E+00 0. -1.
         21   -1    0    0  501  503 -0.00000000000E+00 -0.00000000000E+00 -0.94091120890E+02  0.94091120890E+02  0.00000000000E+00 0. -1.
          6    2    1    2  501    0  0.59807038747E+02  0.76161540318E+02  0.16741374336E+03  0.25842297648E+03  0.17139898249E+03 0.  0.
         24    2    3    3    0    0  0.96964565583E+02  0.24010536628E+02  0.83609746387E+02  0.15285021060E+03  0.79962268233E+02 0.  0.
         -6    2    1    2    0  502 -0.59807038747E+02 -0.76161540318E+02  0.15128053745E+03  0.24845354611E+03  0.17165634698E+03 0.  0.
        -24    2    5    5    0    0 -0.21463783866E+02 -0.11101597845E+03  0.13283900660E+03  0.19325194186E+03  0.83155696557E+02 0.  0.
          5    1    3    3  501    0 -0.37157526836E+02  0.52151003690E+02  0.83803996974E+02  0.10557276588E+03  0.47000000000E+01 0. -1.
        -13    1    4    4    0    0  0.10996028494E+02 -0.18361844575E+02 -0.53746149133E+01  0.22067090074E+02  0.00000000000E+00 0.  1.
         14    1    4    4    0    0  0.85968537088E+02  0.42372381203E+02  0.88984361301E+02  0.13078312052E+03  0.00000000000E+00 0. -1.
         -5    1    5    5    0  502 -0.38343254881E+02  0.34854438129E+02  0.18441530851E+02  0.55201604255E+02  0.47000000000E+01 0.  1.
         13    1    6    6    0    0  0.24206819634E+02 -0.77261871137E+02  0.59406653441E+02  0.10042169746E+03  0.00000000000E+00 0. -1.
        -14    1    6    6    0    0 -0.45670603500E+02 -0.33754107310E+02  0.73432353154E+02  0.92830244393E+02  0.00000000000E+00 0.  1.
</event>
<event>
12    1  0.8563264E-002  0.1954211E+03  0.7818608E-02  0.1153686E+00
         21   -1    0    0  503  502  0.00000000000E+00  0.00000000000E+00  0.10995113539E+03  0.10995113539E+03  0.00000000000E+00 0. -1.
         21   -1    0    0  501  503 -0.00000000000E+00 -0.00000000000E+00 -0.34712978412E+03  0.34712978412E+03  0.00000000000E+00 0. -1.
          6    2    1    2  501    0 -0.74657263516E+02 -0.59980315333E+02 -0.11783713612E+03  0.22819950347E+03  0.17034693280E+03 0.  0.
         24    2    3    3    0    0 -0.10837490466E+03 -0.11739994253E+02 -0.94818861518E+02  0.16482806773E+03  0.79339321832E+02 0.  0.
         -6    2    1    2    0  502  0.74657263516E+02  0.59980315333E+02 -0.11934151260E+03  0.22888141604E+03  0.17021445519E+03 0.  0.
        -24    2    5    5    0    0  0.44901094102E+02  0.75326370595E+02 -0.14428367581E+03  0.18686793564E+03  0.80072941151E+02 0.  0.
          5    1    3    3  501    0  0.33717641142E+02 -0.48240321080E+02 -0.23018274604E+02  0.63371435741E+02  0.47000000000E+01 0. -1.
        -13    1    4    4    0    0 -0.26469820341E+02 -0.19582304561E+02 -0.72420743032E+02  0.79554271175E+02  0.00000000000E+00 0.  1.
         14    1    4    4    0    0 -0.81905084317E+02  0.78423103084E+01 -0.22398118486E+02  0.85273796559E+02  0.00000000000E+00 0. -1.
         -5    1    5    5    0  502  0.29756169413E+02 -0.15346055262E+02  0.24942163206E+02  0.42013480404E+02  0.47000000000E+01 0.  1.
         13    1    6    6    0    0 -0.23139066205E+02  0.18336956791E+02 -0.29079070976E+02  0.41439748287E+02  0.00000000000E+00 0. -1.
        -14    1    6    6    0    0  0.68040160308E+02  0.56989413805E+02 -0.11520460483E+03  0.14542818735E+03  0.00000000000E+00 0.  1.
</event>
<event>
12    1  0.8563264E-002  0.1984535E+03  0.7818608E-02  0.1151533E+00
         21   -1    0    0  503  502  0.00000000000E+00  0.00000000000E+00  0.13617543782E+03  0.13617543782E+03  0.00000000000E+00 0. -1.
         21   -1    0    0  501  503 -0.00000000000E+00 -0.00000000000E+00 -0.55142913752E+03  0.55142913752E+03  0.00000000000E+00 0.  1.
          6    2    1    2  501    0 -0.26598137445E+02 -0.94355683210E+02 -0.44679314483E+03  0.48888434613E+03  0.17254951101E+03 0.  0.
         24    2    3    3    0    0 -0.19429187390E+02 -0.12277575826E+03 -0.43057458036E+03  0.45505793124E+03  0.78942202856E+02 0.  0.
         -6    2    1    2    0  502  0.26598137445E+02  0.94355683210E+02  0.31539445130E+02  0.19872022922E+03  0.16995451460E+03 0.  0.
        -24    2    5    5    0    0  0.69721080546E+02  0.84578680051E+02 -0.12021943158E+02  0.13647183517E+03  0.80408037440E+02 0.  0.
          5    1    3    3  501    0 -0.71689500553E+01  0.28420075049E+02 -0.16218564471E+02  0.33826414888E+02  0.47000000000E+01 0. -1.
        -11    1    4    4    0    0  0.19037290244E+02 -0.70276594541E+02 -0.14615068824E+03  0.16328270524E+03  0.00000000000E+00 0.  1.
         12    1    4    4    0    0 -0.38466477633E+02 -0.52499163718E+02 -0.28442389212E+03  0.29177522599E+03  0.00000000000E+00 0. -1.
         -5    1    5    5    0  502 -0.43122943101E+02  0.97770031592E+01  0.43561388288E+02  0.62248394052E+02  0.47000000000E+01 0.  1.
         11    1    6    6    0    0  0.72112043380E+02  0.31367843991E+02 -0.23316787636E+02  0.82022929859E+02  0.00000000000E+00 0. -1.
        -12    1    6    6    0    0 -0.23909628339E+01  0.53210836060E+02  0.11294844478E+02  0.54448905308E+02  0.00000000000E+00 0.  1.
</event>
<event>
12    1  0.8563264E-002  0.2942559E+03  0.7818608E-02  0.1088211E+00
         21   -1    0    0  501  502  0.00000000000E+00  0.00000000000E+00  0.58467109630E+03  0.58467109630E+03  0.00000000000E+00 0. -1.
         21   -1    0    0  502  503 -0.00000000000E+00 -0.00000000000E+00 -0.14946344362E+03  0.14946344362E+03  0.00000000000E+00 0. -1.
         -6    2    1    2    0  503  0.19320111455E+03  0.13820643569E+03  0.25597670956E+03  0.39001359007E+03  0.17366299280E+03 0.  0.
        -24    2    3    3    0    0  0.19706419729E+03  0.10638295791E+03  0.15505759798E+03  0.28402107039E+03  0.80457927784E+02 0.  0.
          6    2    1    2  501    0 -0.19320111455E+03 -0.13820643569E+03  0.17923094311E+03  0.34412094985E+03  0.17282305294E+03 0.  0.
         24    2    5    5    0    0 -0.87945758971E+02 -0.10566087607E+03  0.33853292383E+02  0.16165272067E+03  0.78018455769E+02 0.  0.
          5    1    5    5  501    0 -0.10525535558E+03 -0.32545559616E+02  0.14537765073E+03  0.18246822918E+03  0.47000000000E+01 0. -1.
        -11    1    6    6    0    0 -0.25409305269E+02 -0.30505415698E+02 -0.25585725271E+02  0.47231795634E+02  0.00000000000E+00 0.  1.
         12    1    6    6    0    0 -0.62536453702E+02 -0.75155460373E+02  0.59439017654E+02  0.11442092503E+03  0.00000000000E+00 0. -1.
         -5    1    3    3    0  503 -0.38630827405E+01  0.31823477774E+02  0.10091911158E+03  0.10599251968E+03  0.47000000000E+01 0.  1.
         11    1    4    4    0    0  0.10449284522E+03  0.81455573915E+02  0.12843456027E+03  0.18452425720E+03  0.00000000000E+00 0. -1.
        -12    1    4    4    0    0  0.92571352069E+02  0.24927383998E+02  0.26623037714E+02  0.99496813185E+02  0.00000000000E+00 0.  1.
</event>
<event>
12    1  0.8563264E-002  0.2110663E+03  0.7818608E-02  0.1140835E+00
         21   -1    0    0  503  502  0.00000000000E+00  0.00000000000E+00  0.24709381090E+03  0.24709381090E+03  0.00000000000E+00 0. -1.
         21   -1    0    0  501  503 -0.00000000000E+00 -0.00000000000E+00 -0.18077380936E+03  0.18077380936E+03  0.00000000000E+00 0.  1.
          6    2    1    2  501    0  0.11931650685E+03  0.11538557733E+02  0.17598188047E+02  0.21179869726E+03  0.17372226344E+03 0.  0.
         24    2    3    3    0    0  0.87111252573E+02  0.65501500388E+02  0.65083002409E+01  0.14781234563E+03  0.99635910548E+02 0.  0.
         -6    2    1    2    0  502 -0.11931650685E+03 -0.11538557733E+02  0.48721813489E+02  0.21606892301E+03  0.17303871606E+03 0.  0.
        -24    2    5    5    0    0 -0.75229044596E+01 -0.41523805634E+02  0.43538168192E+02  0.10011253117E+03  0.79662577681E+02 0.  0.
          5    1    3    3  501    0  0.32205254281E+02 -0.53962942655E+02  0.11089887806E+02  0.63986351630E+02  0.47000000000E+01 0. -1.
        -11    1    4    4    0    0  0.21864579097E+02  0.30609716764E+01 -0.40405423525E+02  0.46043757632E+02  0.00000000000E+00 0.  1.
         12    1    4    4    0    0  0.65246673476E+02  0.62440528712E+02  0.46913723766E+02  0.10176858800E+03  0.00000000000E+00 0. -1.
         -5    1    5    5    0  502 -0.11179360239E+03  0.29985247901E+02  0.51836452967E+01  0.11595639183E+03  0.47000000000E+01 0.  1.
         13    1    6    6    0    0 -0.16923098116E+02 -0.44489441256E+02  0.62606909639E+02  0.78646848428E+02  0.00000000000E+00 0. -1.
        -14    1    6    6    0    0  0.94001936560E+01  0.29656356228E+01 -0.19068741447E+02  0.21465682747E+02  0.00000000000E+00 0.  1.
</event>
<event>
12    1  0.8563264E-002  0.2083145E+03  0.7818608E-02  0.1143014E+00
         21   -1    0    0  501  502  0.00000000000E+00  0.00000000000E+00  0.10592867216E+03  0.10592867216E+03  0.00000000000E+00 0. -1.
         21   -1    0    0  502  503 -0.00000000000E+00 -0.00000000000E+00 -0.44906250508E+03  0.44906250508E+03  0.00000000000E+00 0. -1.
         -6    2    1    2    0  503 -0.78527441635E+02 -0.85960975800E+02 -0.25464775648E+03  0.32866241058E+03  0.17209779719E+03 0.  0.
        -24    2    3    3    0    0 -0.98125946632E+02 -0.21193516882E+02 -0.22625962632E+03  0.25513077748E+03  0.61809615369E+02 0.  0.
          6    2    1    2  501    0  0.78527441635E+02  0.85960975800E+02 -0.88486076435E+02  0.22632876665E+03  0.17273990981E+03 0.  0.
         24    2    5    5    0    0  0.10117203844E+03  0.42522052179E+02 -0.10186712324E+02  0.13384850784E+03  0.75945688885E+02 0.  0.
          5    1    5    5  501    0 -0.22644596804E+02  0.43438923620E+02 -0.78299364111E+02  0.92480258812E+02  0.47000000000E+01 0. -1.
        -13    1    6    6    0    0  0.22558970975E+02 -0.22050842080E+02 -0.53820589819E+01  0.32001771307E+02  0.00000000000E+00 0.  1.
         14    1    6    6    0    0  0.78613067464E+02  0.64572894259E+02 -0.48046533422E+01  0.10184673654E+03  0.00000000000E+00 0. -1.
         -5    1    3    3    0  503  0.19598504997E+02 -0.64767458918E+02 -0.28388130160E+02  0.73531633103E+02  0.47000000000E+01 0.  1.
         11    1    4    4    0    0 -0.49663156046E+02 -0.42035535936E+02 -0.12936532497E+03  0.14480608638E+03  0.00000000000E+00 0. -1.
        -12    1    4    4    0    0 -0.48462790586E+02  0.20842019055E+02 -0.96894301356E+02  0.11032469109E+03  0.00000000000E+00 0.  1.
</event>
<event>
12    1  0.8563264E-002  0.1914956E+03  0.7818608E-02  0.1157896E+00
         21   -1    0    0  501  502  0.00000000000E+00  0.00000000000E+00  0.45328456385E+03  0.45328456385E+03  0.00000000000E+00 0.  1.
         21   -1    0    0  502  503 -0.00000000000E+00 -0.00000000000E+00 -0.12295750435E+03  0.12295750435E+03  0.00000000000E+00 0.  1.
         -6    2    1    2    0  503  0.46689372979E+02  0.61456084702E+02 -0.71875646420E+01  0.18818703990E+03  0.17148164043E+03 0.  0.
        -24    2    3    3    0    0  0.71036410380E+02 -0.14663297176E+02 -0.15929679865E+02  0.10765472896E+03  0.77939733657E+02 0.  0.
          6    2    1    2  501    0 -0.46689372979E+02 -0.61456084702E+02  0.33751462413E+03  0.38805502830E+03  0.17525363217E+03 0.  0.
         24    2    5    5    0    0 -0.14435415639E+02 -0.21530428320E+02  0.32431660234E+03  0.33485114140E+03  0.79196513655E+02 0.  0.
          5    1    5    5  501    0 -0.32253957340E+02 -0.39925656382E+02  0.13198021791E+02  0.53203886896E+02  0.47000000000E+01 0. -1.
        -13    1    6    6    0    0 -0.17167592188E+02 -0.49523142426E+02  0.16673973065E+03  0.17478388265E+03  0.00000000000E+00 0.  1.
         14    1    6    6    0    0  0.27321765494E+01  0.27992714106E+02  0.15757687170E+03  0.16006725876E+03  0.00000000000E+00 0. -1.
         -5    1    3    3    0  503 -0.24347037401E+02  0.76119381878E+02  0.87421152228E+01  0.80532310946E+02  0.47000000000E+01 0.  1.
         11    1    4    4    0    0  0.24780041656E+02  0.17819794857E+02  0.23683506113E+02  0.38632939508E+02  0.00000000000E+00 0. -1.
        -12    1    4    4    0    0  0.46256368724E+02 -0.32483092034E+02 -0.39613185977E+02  0.69021789450E+02  0.00000000000E+00 0.  1.
</event>
<event>
12    1  0.8563264E-002  0.2099165E+03  0.7818608E-02  0.1141865E+00
         21   -1    0    0  501  502  0.00000000000E+00  0.00000000000E+00  0.42573828281E+03  0.42573828281E+03  0.00000000000E+00 0.  1.
         21   -1    0    0  502  503 -0.00000000000E+00 -0.00000000000E+00 -0.18539308811E+03  0.18539308811E+03  0.00000000000E+00 0.  1.
         -6    2    1    2    0  503 -0.81406022958E+02  0.87549826490E+02 -0.83437825145E+02  0.22589117234E+03  0.17254865512E+03 0.  0.
        -24    2    3    3    0    0  0.10276079817E+02  0.69305699089E+02 -0.79004774788E+02  0.13218846112E+03  0.79518281364E+02 0.  0.
          6    2    1    2  501    0  0.81406022958E+02 -0.87549826490E+02  0.32378301985E+03  0.38524019859E+03  0.17112175191E+03 0.  0.
         24    2    5    5    0    0  0.11234519538E+03 -0.10255750553E+03  0.27106285763E+03  0.32212151416E+03  0.84544143669E+02 0.  0.
          5    1    5    5  501    0 -0.30939172427E+02  0.15007679044E+02  0.52720162215E+02  0.63118684434E+02  0.47000000000E+01 0. -1.
        -13    1    6    6    0    0  0.70081471295E+02 -0.89600485767E+02  0.12271693876E+03  0.16732933612E+03  0.00000000000E+00 0.  1.
         14    1    6    6    0    0  0.42263724089E+02 -0.12957019767E+02  0.14834591887E+03  0.15479217804E+03  0.00000000000E+00 0. -1.
         -5    1    3    3    0  503 -0.91682102775E+02  0.18244127401E+02 -0.44330503568E+01  0.93702711217E+02  0.47000000000E+01 0.  1.
         13    1    4    4    0    0 -0.37741606457E+01 -0.14611641990E+02  0.13568239850E+01  0.15152073836E+02  0.00000000000E+00 0. -1.
        -14    1    4    4    0    0  0.14050240463E+02  0.83917341079E+02 -0.80361598773E+02  0.11703638728E+03  0.00000000000E+00 0.  1.
</event>
<event>
12    1  0.8563264E-002  0.1823168E+03  0.7818608E-02  0.1169437E+00
         21   -1    0    0  501  502  0.00000000000E+00  0.00000000000E+00  0.19964060642E+03  0.19964060642E+03  0.00000000000E+00 0. -1.
         21   -1    0    0  502  503 -0.00000000000E+00 -0.00000000000E+00 -0.21299713895E+03  0.21299713895E+03  0.00000000000E+00 0. -1.
         -6    2    1    2    0  503 -0.29319833791E+02 -0.29767561341E+02 -0.11618581520E+03  0.20332151243E+03  0.16153864367E+03 0.  0.
        -24    2    3    3    0    0 -0.51856018072E+02  0.23761878751E+02 -0.34419434349E+02  0.10291677352E+03  0.78444192378E+02 0.  0.
          6    2    1    2  501    0  0.29319833791E+02  0.29767561341E+02  0.10282928267E+03  0.20931623293E+03  0.17746454190E+03 0.  0.
         24    2    5    5    0    0  0.60141608835E+02  0.43985207643E+02  0.12262728780E+02  0.11248383150E+03  0.83369816048E+02 0.  0.
          5    1    5    5  501    0 -0.30821775044E+02 -0.14217646302E+02  0.90566553890E+02  0.96832401431E+02  0.47000000000E+01 0. -1.
        -11    1    6    6    0    0  0.28338203121E+02  0.38656351767E+02 -0.32065253563E+02  0.57667562581E+02  0.00000000000E+00 0.  1.
         12    1    6    6    0    0  0.31803405715E+02  0.53288558762E+01  0.44327982342E+02  0.54816268922E+02  0.00000000000E+00 0. -1.
         -5    1    3    3    0  503  0.22536184281E+02 -0.53529440092E+02 -0.81766380851E+02  0.10040473891E+03  0.47000000000E+01 0.  1.
         13    1    4    4    0    0  0.20042590371E+02  0.28085408381E+01 -0.15989937500E+02  0.25792856214E+02  0.00000000000E+00 0. -1.
        -14    1    4    4    0    0 -0.71898608443E+02  0.20953337913E+02 -0.18429496849E+02  0.77123917301E+02  0.00000000000E+00 0.  1.
</event>
<event>
12    1  0.8563264E-002  0.2984844E+03  0.7818608E-02  0.1086050E+00
         21   -1    0    0  503  502  0.00000000000E+00  0.00000000000E+00  0.29756499004E+03  0.29756499004E+03  0.00000000000E+00 0. -1.
         21   -1    0    0  501  503 -0.00000000000E+00 -0.00000000000E+00 -0.33030138271E+03  0.33030138271E+03  0.00000000000E+00 0.  1.
          6    2    1    2  501    0 -0.13325564190E+03  0.20327861491E+03  0.80245580554E+02  0.30908293890E+03  0.17324447623E+03 0.  0.
         24    2    3    3    0    0 -0.43966874081E+02  0.65220740427E+02  0.90574195487E+02  0.14427629143E+03  0.80156923480E+02 0.  0.
         -6    2    1    2    0  502  0.13325564190E+03 -0.20327861491E+03 -0.11298197322E+03  0.31878343386E+03  0.17256503138E+03 0.  0.
        -24    2    5    5    0    0  0.47301545650E+02 -0.33121529606E+02 -0.48794628791E+01  0.99580826480E+02  0.80981849202E+02 0.  0.
          5    1    3    3  501    0 -0.89288767814E+02  0.13805787448E+03 -0.10328614933E+02  0.16480664747E+03  0.47000000000E+01 0. -1.
        -11    1    4    4    0    0 -0.25322163157E+02  0.14253273329E+02 -0.93839256633E+01  0.30535648157E+02  0.00000000000E+00 0.  1.
         12    1    4    4    0    0 -0.18644710925E+02  0.50967467098E+02  0.99958121151E+02  0.11374064327E+03  0.00000000000E+00 0. -1.
         -5    1    5    5    0  502  0.85954096245E+02 -0.17015708530E+03 -0.10810251034E+03  0.21920260738E+03  0.47000000000E+01 0.  1.
         11    1    6    6    0    0  0.60941955891E+01 -0.51363206693E+02 -0.14039121983E+02  0.53594917368E+02  0.00000000000E+00 0. -1.
        -12    1    6    6    0    0  0.41207350061E+02  0.18241677086E+02  0.91596591035E+01  0.45985909112E+02  0.00000000000E+00 0.  1.
</event>
<event>
12    1  0.8563264E-002  0.2104244E+03  0.7818608E-02  0.1141463E+00
         21   -1    0    0  501  502  0.00000000000E+00  0.00000000000E+00  0.67143104350E+03  0.67143104350E+03  0.00000000000E+00 0.  1.
         21   -1    0    0  502  503 -0.00000000000E+00 -0.00000000000E+00 -0.72310568595E+02  0.72310568595E+02  0.00000000000E+00 0.  1.
         -6    2    1    2    0  503 -0.11253180933E+03 -0.40401618231E+02  0.18686006285E+03  0.28141626796E+03  0.17315523069E+03 0.  0.
        -24    2    3    3    0    0 -0.24337942685E+02  0.22112021384E+01  0.15943297659E+03  0.17959119426E+03  0.78974034733E+02 0.  0.
          6    2    1    2  501    0  0.11253180933E+03  0.40401618231E+02  0.41226041205E+03  0.46232534414E+03  0.17172762626E+03 0.  0.
         24    2    5    5    0    0  0.30123592906E+02 -0.33247804957E+02  0.21125448191E+03  0.23288945849E+03  0.87156160799E+02 0.  0.
          5    1    5    5  501    0  0.82408216423E+02  0.73649423188E+02  0.20100593014E+03  0.22943588564E+03  0.47000000000E+01 0. -1.
        -11    1    6    6    0    0  0.49235739504E+02 -0.12986620706E+02  0.19296040270E+03  0.19956584721E+03  0.00000000000E+00 0.  1.
         12    1    6    6    0    0 -0.19112146598E+02 -0.20261184251E+02  0.18294079212E+02  0.33323611285E+02  0.00000000000E+00 0. -1.
         -5    1    3    3    0  503 -0.88193866644E+02 -0.42612820369E+02  0.27427086268E+02  0.10182507370E+03  0.47000000000E+01 0.  1.
         11    1    4    4    0    0 -0.16240524271E+02 -0.26466318166E+02  0.14138123669E+03  0.14475107845E+03  0.00000000000E+00 0. -1.
        -12    1    4    4    0    0 -0.80974184138E+01  0.28677520304E+02  0.18051739897E+02  0.34840115801E+02  0.00000000000E+00 0.  1.
</event>
<event>
12    1  0.8563264E-002  0.1747230E+03  0.7818608E-02  0.1173571E+00
         21   -1    0    0  503  502  0.00000000000E+00  0.00000000000E+00  0.10248584798E+03  0.10248584798E+03  0.00000000000E+00 0. -1.
         21   -1    0    0  501  503 -0.00000000000E+00 -0.00000000000E+00 -0.34162876264E+03  0.34162876264E+03  0.00000000000E+00 0. -1.
          6    2    1    2  501    0 -0.15157945402E+02 -0.18065822215E+01 -0.20303946251E+03  0.26786779507E+03  0.17405489148E+03 0.  0.
         24    2    3    3    0    0 -0.84766353948E+01  0.57892050000E+02 -0.17512574761E+03  0.20146122858E+03  0.80586948982E+02 0.  0.
         -6    2    1    2    0  502  0.15157945402E+02  0.18065822215E+01 -0.36103452137E+02  0.17624681555E+03  0.17183263278E+03 0.  0.
        -24    2    5    5    0    0 -0.28019596071E+02  0.11519228734E+02  0.34131744998E+02  0.93098102353E+02  0.81144871991E+02 0.  0.
          5    1    3    3  501    0 -0.66813100071E+01 -0.59698632222E+02 -0.27913714905E+02  0.66406566485E+02  0.47000000000E+01 0. -1.
        -13    1    4    4    0    0  0.26239605382E+02  0.18491789359E+02 -0.20320851169E+02  0.37992106503E+02  0.00000000000E+00 0.  1.
         14    1    4    4    0    0 -0.34716240777E+02  0.39400260642E+02 -0.15480489644E+03  0.16346912208E+03  0.00000000000E+00 0. -1.
         -5    1    5    5    0  502  0.43177541473E+02 -0.97126465126E+01 -0.70235197135E+02  0.83148713198E+02  0.47000000000E+01 0.  1.
         13    1    6    6    0    0 -0.17118517437E+02  0.32381988381E+02 -0.14243133418E+02  0.39300173795E+02  0.00000000000E+00 0. -1.
        -14    1    6    6    0    0 -0.10901078634E+02 -0.20862759647E+02  0.48374878415E+02  0.53797928558E+02  0.00000000000E+00 0.  1.
</event>
<event>
12    1  0.8563264E-002  0.2174635E+03  0.7818608E-02  0.1136217E+00
         21   -1    0    0  503  502  0.00000000000E+00  0.00000000000E+00  0.20252268034E+03  0.20252268034E+03  0.00000000000E+00 0.  1.
         21   -1    0    0  501  503 -0.00000000000E+00 -0.00000000000E+00 -0.43399515824E+03  0.43399515824E+03  0.00000000000E+00 0.  1.
          6    2    1    2  501    0  0.12904284838E+03  0.97617702344E+01 -0.33302551248E+03  0.39651077938E+03  0.17195190409E+03 0.  0.
         24    2    3    3    0    0  0.11163048282E+03 -0.46076852860E+02 -0.28752358973E+03  0.32225677425E+03  0.81210669442E+02 0.  0.
         -6    2    1    2    0  502 -0.12904284838E+03 -0.97617702344E+01  0.10155303458E+03  0.24000705920E+03  0.17476561663E+03 0.  0.
        -24    2    5    5    0    0 -0.18907324582E+02  0.24486403903E+02  0.90422320891E+02  0.12403829693E+03  0.79071057233E+02 0.  0.
          5    1    3    3  501    0  0.17412365566E+02  0.55838623095E+02 -0.45501922749E+02  0.74254005128E+02  0.47000000000E+01 0. -1.
        -11    1    4    4    0    0  0.51915437020E+02 -0.31604743982E+02 -0.23067728844E+03  0.23854996090E+03  0.00000000000E+00 0.  1.
         12    1    4    4    0    0  0.59715045798E+02 -0.14472108878E+02 -0.56846301294E+02  0.83706813348E+02  0.00000000000E+00 0. -1.
         -5    1    5    5    0  502 -0.11013552380E+03 -0.34248174137E+02  0.11130713692E+02  0.11596876227E+03  0.47000000000E+01 0.  1.
         13    1    6    6    0    0  0.31188833173E+02  0.10192027002E+02  0.35030718483E+02  0.47997624592E+02  0.00000000000E+00 0. -1.
        -14    1    6    6    0    0 -0.50096157755E+02  0.14294376901E+02  0.55391602408E+02  0.76040672342E+02  0.00000000000E+00 0.  1.
</event>
<event>
12    1  0.8563264E-002  0.1846676E+03  0.7818608E-02  0.1163569E+00
         21   -1    0    0  503  502  0.00000000000E+00  0.00000000000E+00  0.92447861020E+03  0.92447861020E+03  0.00000000000E+00 0.  1.
         21   -1    0    0  501  503 -0.00000000000E+00 -0.00000000000E+00 -0.57708091793E+02  0.57708091793E+02  0.00000000000E+00 0.  1.
          6    2    1    2  501    0  0.54463820589E+02  0.42479832686E+02  0.13649387454E+03  0.22892305964E+03  0.17030662204E+03 0.  0.
         24    2    3    3    0    0  0.68445139186E+02  0.60811348823E+02  0.15605264222E+03  0.19832637442E+03  0.81229098385E+02 0.  0.
         -6    2    1    2    0  502 -0.54463820589E+02 -0.42479832686E+02  0.73027664387E+03  0.75326364235E+03  0.17126381512E+03 0.  0.
        -24    2    5    5    0    0 -0.24716185641E+02 -0.32663973184E+00  0.16107349837E+03  0.18170776205E+03  0.80386829679E+02 0.  0.
          5    1    3    3  501    0 -0.13981318597E+02 -0.18331516137E+02 -0.19558767676E+02  0.30596685222E+02  0.47000000000E+01 0. -1.
        -13    1    4    4    0    0  0.51386612542E+02 -0.73017829540E+01  0.72970911243E+02  0.89546936689E+02  0.00000000000E+00 0.  1.
         14    1    4    4    0    0  0.17058526645E+02  0.68113131777E+02  0.83081730972E+02  0.10877943773E+03  0.00000000000E+00 0. -1.
         -5    1    5    5    0  502 -0.29747634948E+02 -0.42153192954E+02  0.56920314550E+03  0.57155588030E+03  0.47000000000E+01 0.  1.
         11    1    6    6    0    0 -0.28427300264E+02 -0.37277573222E+02  0.93904051476E+02  0.10495570375E+03  0.00000000000E+00 0. -1.
        -12    1    6    6    0    0  0.37111146235E+01  0.36950933490E+02  0.67169446894E+02  0.76752058302E+02  0.00000000000E+00 0.  1.
</event>
<event>
12    1  0.8563264E-002  0.1789414E+03  0.7818608E-02  0.1169243E+00
         21   -1    0    0  501  502  0.00000000000E+00  0.00000000000E+00  0.47312222142E+03  0.47312222142E+03  0.00000000000E+00 0. -1.
         21   -1    0    0  502  503 -0.00000000000E+00 -0.00000000000E+00 -0.12352468786E+03  0.12352468786E+03  0.00000000000E+00 0.  1.
         -6    2    1    2    0  503  0.21382233346E+02  0.40729298717E+02 -0.27371334011E+02  0.17936335160E+03  0.17118979612E+03 0.  0.
        -24    2    3    3    0    0  0.45810358265E+02 -0.34894660758E+02 -0.32079611302E+02  0.99613903900E+02  0.74683345634E+02 0.  0.
          6    2    1    2  501    0 -0.21382233346E+02 -0.40729298717E+02  0.37696886757E+03  0.41728355768E+03  0.17292762856E+03 0.  0.
         24    2    5    5    0    0  0.36098398606E+02 -0.14763304208E+02  0.32163889891E+03  0.33324933042E+03  0.77990290405E+02 0.  0.
          5    1    5    5  501    0 -0.57480631951E+02 -0.25965994509E+02  0.55329968659E+02  0.84034227266E+02  0.47000000000E+01 0. -1.
        -11    1    6    6    0    0  0.17031773292E+02  0.31952972742E+02  0.15283396435E+03  0.15706461863E+03  0.00000000000E+00 0.  1.
         12    1    6    6    0    0  0.19066625314E+02 -0.46716276950E+02  0.16880493457E+03  0.17618471178E+03  0.00000000000E+00 0. -1.
         -5    1    3    3    0  503 -0.24428124919E+02  0.75623959475E+02  0.47082772915E+01  0.79749447703E+02  0.47000000000E+01 0.  1.
         13    1    4    4    0    0 -0.16509702476E+02 -0.17400165417E+02  0.57165175990E+01  0.24657952183E+02  0.00000000000E+00 0. -1.
        -14    1    4    4    0    0  0.62320060741E+02 -0.17494495341E+02 -0.37796128901E+02  0.74955951718E+02  0.00000000000E+00 0.  1.
</event>
<event>
12    1  0.8563264E-002  0.2030332E+03  0.7818608E-02  0.1147442E+00
         21   -1    0    0  501  502  0.00000000000E+00  0.00000000000E+00  0.14428905741E+04  0.14428905741E+04  0.00000000000E+00 0. -1.
         21   -1    0    0  502  503 -0.00000000000E+00 -0.00000000000E+00 -0.40263323551E+02  0.40263323551E+02  0.00000000000E+00 0. -1.
         -6    2    1    2    0  503  0.18238630941E+02 -0.10616781706E+03  0.29752804970E+03  0.35955844724E+03  0.17074859760E+03 0.  0.
        -24    2    3    3    0    0  0.57696042776E+02 -0.10325731630E+03  0.28331456649E+03  0.31725630228E+03  0.79959433628E+02 0.  0.
          6    2    1    2  501    0 -0.18238630941E+02  0.10616781706E+03  0.11050992008E+04  0.11235954504E+04  0.17209950448E+03 0.  0.
         24    2    5    5    0    0  0.81250873766E+01  0.31108896973E+02  0.89081411555E+03  0.89497114088E+03  0.79936062154E+02 0.  0.
          5    1    5    5  501    0 -0.26363718318E+02  0.75058920082E+02  0.21428508526E+03  0.22862430950E+03  0.47000000000E+01 0. -1.
        -11    1    6    6    0    0  0.11451642584E+02 -0.19316925509E+02  0.54721874177E+03  0.54767931774E+03  0.00000000000E+00 0.  1.
         12    1    6    6    0    0 -0.33265552075E+01  0.50425822482E+02  0.34359537377E+03  0.34729182314E+03  0.00000000000E+00 0. -1.
         -5    1    3    3    0  503 -0.39457411835E+02 -0.29105007542E+01  0.14213483212E+02  0.42302144962E+02  0.47000000000E+01 0.  1.
         13    1    4    4    0    0  0.18110711923E+02 -0.41117148648E+02  0.31466049016E+02  0.54851891854E+02  0.00000000000E+00 0. -1.
        -14    1    4    4    0    0  0.39585330853E+02 -0.62140167654E+02  0.25184851747E+03  0.26240441042E+03  0.00000000000E+00 0.  1.
</event>
<event>
12    1  0.8563264E-002  0.2147083E+03  0.7818608E-02  0.1138997E+00
         21   -1    0    0  501  502  0.00000000000E+00  0.00000000000E+00  0.55470763800E+02  0.55470763800E+02  0.00000000000E+00 0.  1.
         21   -1    0    0  502  503 -0.00000000000E+00 -0.00000000000E+00 -0.81146781361E+03  0.81146781361E+03  0.00000000000E+00 0. -1.
         -6    2    1    2    0  503  0.10555483125E+03  0.59127744695E+02 -0.40565641774E+03  0.45897363651E+03  0.17737462378E+03 0.  0.
        -24    2    3    3    0    0  0.10542228833E+03  0.95641459391E+02 -0.38222883472E+03  0.41533637519E+03  0.78385424910E+02 0.  0.
          6    2    1    2  501    0 -0.10555483125E+03 -0.59127744695E+02 -0.35034063207E+03  0.40796494091E+03  0.17046677663E+03 0.  0.
         24    2    5    5    0    0 -0.10637236007E+03 -0.91886179670E+02 -0.21775197315E+03  0.27130614723E+03  0.80205702488E+02 0.  0.
          5    1    5    5  501    0  0.81752882050E+00  0.32758434976E+02 -0.13258865892E+03  0.13665879368E+03  0.47000000000E+01 0. -1.
        -13    1    6    6    0    0 -0.64105817323E+02 -0.81909080603E+02 -0.19787184464E+03  0.22354400060E+03  0.00000000000E+00 0.  1.
         14    1    6    6    0    0 -0.42266542744E+02 -0.99770990674E+01 -0.19880128506E+02  0.47762146630E+02  0.00000000000E+00 0. -1.
         -5    1    3    3    0  503  0.13254291812E+00 -0.36513714696E+02 -0.23427583024E+02  0.43637261313E+02  0.47000000000E+01 0.  1.
         11    1    4    4    0    0  0.38268436686E+02  0.27731040079E+02 -0.23597222730E+03  0.24065821384E+03  0.00000000000E+00 0. -1.
        -12    1    4    4    0    0  0.67153851643E+02  0.67910419313E+02 -0.14625660742E+03  0.17467816136E+03  0.00000000000E+00 0.  1.
</event>
<event>
12    1  0.8563264E-002  0.2572427E+03  0.7818608E-02  0.1110894E+00
         21   -1    0    0  503  502  0.00000000000E+00  0.00000000000E+00  0.26875208460E+03  0.26875208460E+03  0.00000000000E+00 0.  1.
         21   -1    0    0  501  503 -0.00000000000E+00 -0.00000000000E+00 -0.55674396209E+03  0.55674396209E+03  0.00000000000E+00 0. -1.
          6    2    1    2  501    0 -0.11654256225E+03 -0.12842012501E+03 -0.45676628288E+03  0.51782965820E+03  0.17157569878E+03 0.  0.
         24    2    3    3    0    0  0.64590975596E+01 -0.53017657098E+02 -0.13543900651E+03  0.16556803806E+03  0.78844523192E+02 0.  0.
         -6    2    1    2    0  502  0.11654256225E+03  0.12842012501E+03  0.16877440539E+03  0.30766638849E+03  0.18999976150E+03 0.  0.
        -24    2    5    5    0    0 -0.12099362481E+02  0.95856258454E+02  0.74928796945E+02  0.14506799235E+03  0.78074201477E+02 0.  0.
          5    1    3    3  501    0 -0.12300165981E+03 -0.75402467908E+02 -0.32132727637E+03  0.35226162014E+03  0.47000000000E+01 0. -1.
        -13    1    4    4    0    0 -0.76331638508E+00 -0.57414516551E+02 -0.14307992819E+03  0.15417157719E+03  0.00000000000E+00 0.  1.
         14    1    4    4    0    0  0.72224139447E+01  0.43968594528E+01  0.76409216800E+01  0.11396460870E+02  0.00000000000E+00 0. -1.
         -5    1    5    5    0  502  0.12864192473E+03  0.32563866552E+02  0.93845608442E+02  0.16259839614E+03  0.47000000000E+01 0.  1.
         13    1    6    6    0    0 -0.48385397525E+01 -0.88218587287E+01 -0.67325276310E+01  0.12106344893E+02  0.00000000000E+00 0. -1.
        -14    1    6    6    0    0 -0.72608227283E+01  0.10467811718E+03  0.81661324576E+02  0.13296164746E+03  0.00000000000E+00 0.  1.
</event>
<event>
12    1  0.8563264E-002  0.1846501E+03  0.7818608E-02  0.1164111E+00
         21   -1    0    0  503  502  0.00000000000E+00  0.00000000000E+00  0.96842622191E+03  0.96842622191E+03  0.00000000000E+00 0.  1.
         21   -1    0    0  501  503 -0.00000000000E+00 -0.00000000000E+00 -0.74710648509E+02  0.74710648509E+02  0.00000000000E+00 0.  1.
          6    2    1    2  501    0  0.59905406178E+02 -0.52104222216E+01  0.63023124785E+02  0.19216940938E+03  0.17129320318E+03 0.  0.
         24    2    3    3    0    0  0.11165257876E+02 -0.44342795019E+02  0.85209355647E+02  0.12567682711E+03  0.80268824138E+02 0.  0.
         -6    2    1    2    0  502 -0.59905406178E+02  0.52104222216E+01  0.83069244862E+03  0.85096746104E+03  0.17458484863E+03 0.  0.
        -24    2    5    5    0    0  0.10099518238E+02 -0.24030825779E+02  0.64697388520E+03  0.65214507656E+03  0.77707862475E+02 0.  0.
          5    1    3    3  501    0  0.48740148302E+02  0.39132372798E+02 -0.22186230862E+02  0.66492582272E+02  0.47000000000E+01 0. -1.
        -11    1    4    4    0    0 -0.35505450848E+01 -0.19269686194E+02 -0.12827905115E+02  0.23419699529E+02  0.00000000000E+00 0.  1.
         12    1    4    4    0    0  0.14715802961E+02 -0.25073108826E+02  0.98037260762E+02  0.10225712758E+03  0.00000000000E+00 0. -1.
         -5    1    5    5    0  502 -0.70004924416E+02  0.29241248001E+02  0.18371856341E+03  0.19882238448E+03  0.47000000000E+01 0.  1.
         11    1    6    6    0    0  0.23383245790E+02  0.15654181482E+02  0.10997510862E+03  0.11351807828E+03  0.00000000000E+00 0. -1.
        -12    1    6    6    0    0 -0.13283727552E+02 -0.39685007261E+02  0.53699877659E+03  0.53862699828E+03  0.00000000000E+00 0.  1.
</event>
<event>
12    1  0.8563264E-002  0.1989774E+03  0.7818608E-02  0.1151946E+00
         21   -1    0    0  503  502  0.00000000000E+00  0.00000000000E+00  0.14386252452E+03  0.14386252452E+03  0.00000000000E+00 0.  1.
         21   -1    0    0  501  503 -0.00000000000E+00 -0.00000000000E+00 -0.28155554897E+03  0.28155554897E+03  0.00000000000E+00 0.  1.
          6    2    1    2  501    0  0.92639277922E+02  0.34669806887E+02 -0.11875852530E+03  0.23172305765E+03  0.17264980970E+03 0.  0.
         24    2    3    3    0    0  0.66856200329E+02 -0.82717601813E+01 -0.14209025320E+03  0.17626852854E+03  0.79641575571E+02 0.  0.
         -6    2    1    2    0  502 -0.92639277922E+02 -0.34669806887E+02 -0.18934499154E+02  0.19369501584E+03  0.16545456349E+03 0.  0.
        -24    2    5    5    0    0 -0.62683231573E+02 -0.28719450728E+02 -0.75451278989E+02  0.12928222322E+03  0.79164407203E+02 0.  0.
          5    1    3    3  501    0  0.25783077594E+02  0.42941567069E+02  0.23331727896E+02  0.55454529113E+02  0.47000000000E+01 0. -1.
        -11    1    4    4    0    0  0.70465551201E+02  0.21987567328E+02 -0.10219306585E+03  0.12606454589E+03  0.00000000000E+00 0.  1.
         12    1    4    4    0    0 -0.36093508722E+01 -0.30259327509E+02 -0.39897187352E+02  0.50203982647E+02  0.00000000000E+00 0. -1.
         -5    1    5    5    0  502 -0.29956046349E+02 -0.59503561597E+01  0.56516779836E+02  0.64412792629E+02  0.47000000000E+01 0.  1.
         13    1    6    6    0    0 -0.54067665396E+01 -0.44591625839E+02 -0.25549602748E+02  0.51676188133E+02  0.00000000000E+00 0. -1.
        -14    1    6    6    0    0 -0.57276465034E+02  0.15872175111E+02 -0.49901676241E+02  0.77606035082E+02  0.00000000000E+00 0.  1.
</event>
<event>
12    1  0.8563264E-002  0.1951723E+03  0.7818608E-02  0.1153963E+00
         21   -1    0    0  501  502  0.00000000000E+00  0.00000000000E+00  0.19433212529E+02  0.19433212529E+02  0.00000000000E+00 0. -1.
         21   -1    0    0  502  503 -0.00000000000E+00 -0.00000000000E+00 -0.21543149580E+04  0.21543149580E+04  0.00000000000E+00 0. -1.
         -6    2    1    2    0  503 -0.78933884821E+02  0.47135272580E+02 -0.13979830981E+04  0.14115413516E+04  0.17216257610E+03 0.  0.
        -24    2    3    3    0    0  0.81400282339E+01 -0.16245549047E+02 -0.43334777284E+03  0.44090115275E+03  0.79204522261E+02 0.  0.
          6    2    1    2  501    0  0.78933884821E+02 -0.47135272580E+02 -0.73689864734E+03  0.76220681890E+03  0.17171874163E+03 0.  0.
         24    2    5    5    0    0  0.65239096118E+01  0.31001282724E+02 -0.37985379328E+03  0.38957879580E+03  0.80492812991E+02 0.  0.
          5    1    5    5  501    0  0.72409975210E+02 -0.78136555304E+02 -0.35704485406E+03  0.37262802310E+03  0.47000000000E+01 0. -1.
        -11    1    6    6    0    0  0.34706677821E+02  0.20241038630E+02 -0.32040130317E+03  0.32291058856E+03  0.00000000000E+00 0.  1.
         12    1    6    6    0    0 -0.28182768209E+02  0.10760244094E+02 -0.59452490105E+02  0.66668207240E+02  0.00000000000E+00 0. -1.
         -5    1    3    3    0  503 -0.87073913055E+02  0.63380821627E+02 -0.96463532527E+03  0.97064019886E+03  0.47000000000E+01 0.  1.
         11    1    4    4    0    0  0.32459538544E+02 -0.97634820927E+01 -0.38411900066E+03  0.38561166203E+03  0.00000000000E+00 0. -1.
        -12    1    4    4    0    0 -0.24319510310E+02 -0.64820669544E+01 -0.49228772183E+02  0.55289490723E+02  0.00000000000E+00 0.  1.
</event>
<event>
12    1  0.8563264E-002  0.1869593E+03  0.7818608E-02  0.1161563E+00
         21   -1    0    0  503  502  0.00000000000E+00  0.00000000000E+00  0.82485915711E+03  0.82485915711E+03  0.00000000000E+00 0. -1.
         21   -1    0    0  501  503 -0.00000000000E+00 -0.00000000000E+00 -0.11273671163E+03  0.11273671163E+03  0.00000000000E+00 0. -1.
          6    2    1    2  501    0  0.26941668618E+02  0.69895593060E+02 -0.15651602701E+02  0.18619128526E+03  0.16973795863E+03 0.  0.
         24    2    3    3    0    0 -0.12896079221E+02  0.52911993928E+02  0.48555324173E+02  0.10860192870E+03  0.80441105482E+02 0.  0.
         -6    2    1    2    0  502 -0.26941668618E+02 -0.69895593060E+02  0.72777404819E+03  0.75140458349E+03  0.17129662996E+03 0.  0.
        -24    2    5    5    0    0 -0.83269484148E+02 -0.36523916672E+02  0.49891414350E+03  0.51331754570E+03  0.79446690702E+02 0.  0.
          5    1    3    3  501    0  0.39837747838E+02  0.16983599132E+02 -0.64206926874E+02  0.77589356557E+02  0.47000000000E+01 0. -1.
        -11    1    4    4    0    0 -0.96376612685E+01 -0.20109865731E+02  0.20554010001E+02  0.30327521191E+02  0.00000000000E+00 0.  1.
         12    1    4    4    0    0 -0.32584179520E+01  0.73021859659E+02  0.28001314171E+02  0.78274407509E+02  0.00000000000E+00 0. -1.
         -5    1    5    5    0  502  0.56327815530E+02 -0.33371676388E+02  0.22885990469E+03  0.23808703779E+03  0.47000000000E+01 0.  1.
         13    1    6    6    0    0 -0.78696618150E+02 -0.61147374472E+01  0.24148356846E+03  0.25405680774E+03  0.00000000000E+00 0. -1.
        -14    1    6    6    0    0 -0.45728659979E+01 -0.30409179225E+02  0.25743057504E+03  0.25926073796E+03  0.00000000000E+00 0.  1.
</event>
<event>
12    1  0.8563264E-002  0.1753071E+03  0.7818608E-02  0.1172793E+00
         21   -1    0    0  501  502  0.00000000000E+00  0.00000000000E+00  0.44181375610E+02  0.44181375610E+02  0.00000000000E+00 0. -1.
         21   -1    0    0  502  503 -0.00000000000E+00 -0.00000000000E+00 -0.11541539649E+04  0.11541539649E+04  0.00000000000E+00 0. -1.
         -6    2    1    2    0  503  0.33770816228E+02  0.20276192834E+01 -0.93364591621E+03  0.94969167604E+03  0.17051393904E+03 0.  0.
        -24    2    3    3    0    0  0.16974023693E+02  0.28442014861E+02 -0.89695122417E+03  0.90123093980E+03  0.81232029475E+02 0.  0.
          6    2    1    2  501    0 -0.33770816228E+02 -0.20276192834E+01 -0.17632667309E+03  0.24864366449E+03  0.17201161873E+03 0.  0.
         24    2    5    5    0    0 -0.15511966566E+02  0.55673521325E+02 -0.33453846072E+02  0.93409834671E+02  0.65315199707E+02 0.  0.
          5    1    5    5  501    0 -0.18258849662E+02 -0.57701140608E+02 -0.14287282702E+03  0.15523382982E+03  0.47000000000E+01 0. -1.
        -13    1    6    6    0    0 -0.30741679706E+02  0.21570354481E+02 -0.40684031478E+02  0.55367151642E+02  0.00000000000E+00 0.  1.
         14    1    6    6    0    0  0.15229713140E+02  0.34103166843E+02  0.72301854057E+01  0.38042683029E+02  0.00000000000E+00 0. -1.
         -5    1    3    3    0  503  0.16796792535E+02 -0.26414395577E+02 -0.36694692039E+02  0.48460736241E+02  0.47000000000E+01 0.  1.
         11    1    4    4    0    0  0.22121285093E+02 -0.23829382031E+02 -0.24156728875E+03  0.24374565780E+03  0.00000000000E+00 0. -1.
        -12    1    4    4    0    0 -0.51472613999E+01  0.52271396892E+02 -0.65538393542E+03  0.65748528200E+03  0.00000000000E+00 0.  1.
</event>
<event>
12    1  0.8563264E-002  0.1822043E+03  0.7818608E-02  0.1166184E+00
         21   -1    0    0  501  502  0.00000000000E+00  0.00000000000E+00  0.83377895164E+02  0.83377895164E+02  0.00000000000E+00 0. -1.
         21   -1    0    0  502  503 -0.00000000000E+00 -0.00000000000E+00 -0.39745059521E+03  0.39745059521E+03  0.00000000000E+00 0. -1.
         -6    2    1    2    0  503  0.56255373245E+02  0.11130470872E+02 -0.18145025215E+03  0.25714315261E+03  0.17294465163E+03 0.  0.
        -24    2    3    3    0    0  0.56140585100E+02 -0.57120879229E+02 -0.12064198182E+03  0.16561176069E+03  0.80362972577E+02 0.  0.
          6    2    1    2  501    0 -0.56255373245E+02 -0.11130470872E+02 -0.13262244790E+03  0.22368533776E+03  0.17075673411E+03 0.  0.
         24    2    5    5    0    0 -0.79334808825E+02 -0.32850868978E+02 -0.14770275477E+03  0.18827429858E+03  0.79106992459E+02 0.  0.
          5    1    5    5  501    0  0.23079435580E+02  0.21720398106E+02  0.15080306872E+02  0.35411039182E+02  0.47000000000E+01 0. -1.
        -11    1    6    6    0    0 -0.29775110518E+02 -0.52605781878E+02 -0.57227681018E+02  0.83240212446E+02  0.00000000000E+00 0.  1.
         12    1    6    6    0    0 -0.49559698307E+02  0.19754912900E+02 -0.90475073752E+02  0.10503408614E+03  0.00000000000E+00 0. -1.
         -5    1    3    3    0  503  0.11478814490E+00  0.68251350101E+02 -0.60808270331E+02  0.91531391925E+02  0.47000000000E+01 0.  1.
         13    1    4    4    0    0  0.67064217960E+02 -0.33307830089E+02 -0.11735238934E+03  0.13920705499E+03  0.00000000000E+00 0. -1.
        -14    1    4    4    0    0 -0.10923632860E+02 -0.23813049141E+02 -0.32895924812E+01  0.26404705697E+02  0.00000000000E+00 0.  1.
</event>
<event>
12    1  0.8563264E-002  0.1776519E+03  0.7818608E-02  0.1170136E+00
         21   -1    0    0  501  502  0.00000000000E+00  0.00000000000E+00  0.56226989374E+03  0.56226989374E+03  0.00000000000E+00 0. -1.
         21   -1    0    0  502  503 -0.00000000000E+00 -0.00000000000E+00 -0.56081849145E+02  0.56081849145E+02  0.00000000000E+00 0.  1.
         -6    2    1    2    0  503  0.44384522664E+02  0.26398576606E+01  0.25595869923E+03  0.31156869144E+03  0.17199778798E+03 0.  0.
        -24    2    3    3    0    0  0.34651580575E+02  0.64855701876E+02  0.12105291897E+03  0.16261500407E+03  0.79892654567E+02 0.  0.
          6    2    1    2  501    0 -0.44384522664E+02 -0.26398576606E+01  0.25022934536E+03  0.30678305145E+03  0.17182596042E+03 0.  0.
         24    2    5    5    0    0 -0.52375346495E+02  0.41793736841E+02  0.23767656464E+03  0.25968889162E+03  0.80363410171E+02 0.  0.
          5    1    5    5  501    0  0.79908238310E+01 -0.44433594502E+02  0.12552780725E+02  0.47094159827E+02  0.47000000000E+01 0. -1.
        -13    1    6    6    0    0 -0.61182012460E+02  0.42528401055E+02  0.11714577039E+03  0.13883456005E+03  0.00000000000E+00 0.  1.
         14    1    6    6    0    0  0.88066659644E+01 -0.73466421376E+00  0.12053079425E+03  0.12085433157E+03  0.00000000000E+00 0. -1.
         -5    1    3    3    0  503  0.97329420895E+01 -0.62215844215E+02  0.13490578026E+03  0.14895368737E+03  0.47000000000E+01 0.  1.
         11    1    4    4    0    0 -0.16022155150E+00  0.60951409618E+02  0.11021583211E+03  0.12594693189E+03  0.00000000000E+00 0. -1.
        -12    1    4    4    0    0  0.34811802126E+02  0.39042922584E+01  0.10837086861E+02  0.36668072174E+02  0.00000000000E+00 0.  1.
</event>
<event>
12    1  0.8563264E-002  0.2738602E+03  0.7818608E-02  0.1099130E+00
         21   -1    0    0  503  502  0.00000000000E+00  0.00000000000E+00  0.27127142200E+03  0.27127142200E+03  0.00000000000E+00 0.  1.
         21   -1    0    0  501  503 -0.00000000000E+00 -0.00000000000E+00 -0.36247507787E+03  0.36247507787E+03  0.00000000000E+00 0. -1.
          6    2    1    2  501    0  0.19922273132E+03  0.75071928206E+02 -0.20022012491E+03  0.33924549873E+03  0.17226119386E+03 0.  0.
         24    2    3    3    0    0  0.86878436240E+02  0.71284134580E+01 -0.16559399027E+03  0.20338299090E+03  0.79652962349E+02 0.  0.
         -6    2    1    2    0  502 -0.19922273132E+03 -0.75071928206E+02  0.10901646904E+03  0.29450100114E+03  0.17181605883E+03 0.  0.
        -24    2    5    5    0    0 -0.13825088700E+03 -0.69961011089E+02  0.13944826959E+03  0.22600376209E+03  0.87315690217E+02 0.  0.
          5    1    3    3  501    0  0.11234429508E+03  0.67943514748E+02 -0.34626134638E+02  0.13586250783E+03  0.47000000000E+01 0. -1.
        -13    1    4    4    0    0  0.72762570560E+01  0.27977573249E+02 -0.17027995976E+02  0.33550576278E+02  0.00000000000E+00 0.  1.
         14    1    4    4    0    0  0.79602179184E+02 -0.20849159791E+02 -0.14856599430E+03  0.16983241462E+03  0.00000000000E+00 0. -1.
         -5    1    5    5    0  502 -0.60971844322E+02 -0.51109171179E+01 -0.30431800543E+02  0.68497239054E+02  0.47000000000E+01 0.  1.
         11    1    6    6    0    0 -0.40272855897E+02 -0.38467431985E+02  0.39216792674E+01  0.55830330591E+02  0.00000000000E+00 0. -1.
        -12    1    6    6    0    0 -0.97978031103E+02 -0.31493579104E+02  0.13552659032E+03  0.17017343150E+03  0.00000000000E+00 0.  1.
</event>
<event>
12    1  0.8563264E-002  0.2736911E+03  0.7818608E-02  0.1099221E+00
         21   -1    0    0  501  502  0.00000000000E+00  0.00000000000E+00  0.10627286353E+04  0.10627286353E+04  0.00000000000E+00 0.  1.
         21   -1    0    0  502  503 -0.00000000000E+00 -0.00000000000E+00 -0.25943851949E+03  0.25943851949E+03  0.00000000000E+00 0.  1.
         -6    2    1    2    0  503 -0.15415361790E+03  0.14598180302E+03 -0.16257929659E+03  0.31833762303E+03  0.17272171211E+03 0.  0.
        -24    2    3    3    0    0 -0.13234075631E+02  0.22248602544E+02 -0.37158885346E+02  0.92681708310E+02  0.80863930292E+02 0.  0.
          6    2    1    2  501    0  0.15415361790E+03 -0.14598180302E+03  0.96586941238E+03  0.10038295317E+04  0.17232522251E+03 0.  0.
         24    2    5    5    0    0  0.15098836279E+03 -0.17440627475E+03  0.86853514074E+03  0.90227156864E+03  0.80781548132E+02 0.  0.
          5    1    5    5  501    0  0.31652551153E+01  0.28424471735E+02  0.97334271643E+02  0.10155796310E+03  0.47000000000E+01 0. -1.
        -13    1    6    6    0    0  0.42152739339E+02 -0.10879165791E+03  0.44897085230E+03  0.46388285642E+03  0.00000000000E+00 0.  1.
         14    1    6    6    0    0  0.10883562345E+03 -0.65614616839E+02  0.41956428844E+03  0.43838871223E+03  0.00000000000E+00 0. -1.
         -5    1    3    3    0  503 -0.14091954227E+03  0.12373320047E+03 -0.12542041124E+03  0.22565591472E+03  0.47000000000E+01 0.  1.
         13    1    4    4    0    0 -0.64670184752E+01  0.35756041919E+02  0.14301621828E+02  0.39049369375E+02  0.00000000000E+00 0. -1.
        -14    1    4    4    0    0 -0.67670571563E+01 -0.13507439375E+02 -0.51460507175E+02  0.53632338935E+02  0.00000000000E+00 0.  1.
</event>
<event>
12    1  0.8563264E-002  0.2225313E+03  0.7818608E-02  0.1132111E+00
         21   -1    0    0  503  502  0.00000000000E+00  0.00000000000E+00  0.83832761169E+02  0.83832761169E+02  0.00000000000E+00 0. -1.
         21   -1    0    0  501  503 -0.00000000000E+00 -0.00000000000E+00 -0.61902827064E+03  0.61902827064E+03  0.00000000000E+00 0.  1.
          6    2    1    2  501    0  0.13322797496E+03  0.48138390114E+02 -0.34499065645E+03  0.41053469135E+03  0.17161929334E+03 0.  0.
         24    2    3    3    0    0  0.69502947501E+02 -0.24606405065E+02 -0.25973114030E+03  0.28152322114E+03  0.79742861249E+02 0.  0.
         -6    2    1    2    0  502 -0.13322797496E+03 -0.48138390114E+02 -0.19020485302E+03  0.29232634046E+03  0.17090876309E+03 0.  0.
        -24    2    5    5    0    0 -0.17111317342E+02  0.22820751323E+02 -0.75468434700E+02  0.11426788484E+03  0.80920213778E+02 0.  0.
          5    1    3    3  501    0  0.63725027456E+02  0.72744795178E+02 -0.85259516155E+02  0.12901147021E+03  0.47000000000E+01 0. -1.
        -11    1    4    4    0    0  0.59545242014E+02 -0.17372646033E+02 -0.26179557862E+03  0.26904343453E+03  0.00000000000E+00 0.  1.
         12    1    4    4    0    0  0.99577054872E+01 -0.72337590318E+01  0.20644383254E+01  0.12479786613E+02  0.00000000000E+00 0. -1.
         -5    1    5    5    0  502 -0.11611665761E+03 -0.70959141437E+02 -0.11473641832E+03  0.17805845562E+03  0.47000000000E+01 0.  1.
         13    1    6    6    0    0 -0.20407541670E+02  0.52283217922E+02 -0.50787688364E+02  0.75692746830E+02  0.00000000000E+00 0. -1.
        -14    1    6    6    0    0  0.32962243280E+01 -0.29462466599E+02 -0.24680746336E+02  0.38575138011E+02  0.00000000000E+00 0.  1.
</event>
<event>
12    1  0.8563264E-002  0.2203021E+03  0.7818608E-02  0.1133964E+00
         21   -1    0    0  501  502  0.00000000000E+00  0.00000000000E+00  0.98787732300E+02  0.98787732300E+02  0.00000000000E+00 0.  1.
         21   -1    0    0  502  503 -0.00000000000E+00 -0.00000000000E+00 -0.53496989821E+03  0.53496989821E+03  0.00000000000E+00 0. -1.
         -6    2    1    2    0  503  0.63304236375E+02  0.12018312167E+03 -0.31308231638E+03  0.38282312313E+03  0.17344047306E+03 0.  0.
        -24    2    3    3    0    0  0.57589907499E+02  0.15353719561E+03 -0.23653193305E+03  0.29899473300E+03  0.80995229048E+02 0.  0.
          6    2    1    2  501    0 -0.63304236375E+02 -0.12018312167E+03 -0.12309984953E+03  0.25093450738E+03  0.17135677682E+03 0.  0.
         24    2    5    5    0    0  0.30000551499E+02 -0.70158577710E+02 -0.48299680187E+02  0.12122177180E+03  0.80867791705E+02 0.  0.
          5    1    5    5  501    0 -0.93304787875E+02 -0.50024543957E+02 -0.74800169343E+02  0.12971273558E+03  0.47000000000E+01 0. -1.
        -13    1    6    6    0    0  0.67706372357E+01 -0.10018858148E+01  0.20090464726E+02  0.21224327472E+02  0.00000000000E+00 0.  1.
         14    1    6    6    0    0  0.23229914264E+02 -0.69156691895E+02 -0.68390144913E+02  0.99997444326E+02  0.00000000000E+00 0. -1.
         -5    1    3    3    0  503  0.57143288766E+01 -0.33354073945E+02 -0.76550383333E+02  0.83828390129E+02  0.47000000000E+01 0.  1.
         11    1    4    4    0    0  0.52467119068E+02  0.32664352557E+02 -0.84910731507E+02  0.10502185885E+03  0.00000000000E+00 0. -1.
        -12    1    4    4    0    0  0.51227884307E+01  0.12087284305E+03 -0.15162120154E+03  0.19397287415E+03  0.00000000000E+00 0.  1.
</event>
<event>
12    1  0.8563264E-002  0.1860602E+03  0.7818608E-02  0.1162347E+00
         21   -1    0    0  501  502  0.00000000000E+00  0.00000000000E+00  0.32964456553E+03  0.32964456553E+03  0.00000000000E+00 0. -1.
         21   -1    0    0  502  503 -0.00000000000E+00 -0.00000000000E+00 -0.10453848731E+03  0.10453848731E+03  0.00000000000E+00 0. -1.
         -6    2    1    2    0  503  0.59014683804E+02 -0.37498745391E+02  0.12185880903E+03  0.22139584384E+03  0.17110716384E+03 0.  0.
        -24    2    3    3    0    0  0.27129832893E+02  0.24248393990E+02  0.12618456813E+03  0.15160934707E+03  0.75755108350E+02 0.  0.
          6    2    1    2  501    0 -0.59014683804E+02  0.37498745391E+02  0.10324726918E+03  0.21278720901E+03  0.17242247218E+03 0.  0.
         24    2    5    5    0    0  0.44754357638E+01  0.32387817515E+02 -0.52527350619E+01  0.86884636407E+02  0.80326512244E+02 0.  0.
          5    1    5    5  501    0 -0.63490119568E+02  0.51109278763E+01  0.10850000425E+03  0.12590257260E+03  0.47000000000E+01 0. -1.
        -11    1    6    6    0    0  0.14750278175E+02  0.54425574619E+02  0.11247033374E+02  0.57499649029E+02  0.00000000000E+00 0.  1.
         12    1    6    6    0    0 -0.10274842411E+02 -0.22037757104E+02 -0.16499768436E+02  0.29384987377E+02  0.00000000000E+00 0. -1.
         -5    1    3    3    0  503  0.31884850912E+02 -0.61747139382E+02 -0.43257590919E+01  0.69786496768E+02  0.47000000000E+01 0.  1.
         13    1    4    4    0    0  0.88090387096E+01 -0.24434084446E+02  0.71803646151E+02  0.76356972480E+02  0.00000000000E+00 0. -1.
        -14    1    4    4    0    0  0.18320794183E+02  0.48682478437E+02  0.54380921975E+02  0.75252374588E+02  0.00000000000E+00 0.  1.
</event>
<event>
12    1  0.8563264E-002  0.2236801E+03  0.7818608E-02  0.1131318E+00
         21   -1    0    0  501  502  0.00000000000E+00  0.00000000000E+00  0.16313666980E+03  0.16313666980E+03  0.00000000000E+00 0.  1.
         21   -1    0    0  502  503 -0.00000000000E+00 -0.00000000000E+00 -0.35303167472E+03  0.35303167472E+03  0.00000000000E+00 0. -1.
         -6    2    1    2    0  503 -0.11899025191E+03 -0.78787574998E+02 -0.18972330508E+03  0.29330478799E+03  0.17223996093E+03 0.  0.
        -24    2    3    3    0    0 -0.13752354558E+03 -0.94598290507E+02 -0.19115900536E+03  0.26845296844E+03  0.87542382749E+02 0.  0.
          6    2    1    2  501    0  0.11899025191E+03  0.78787574998E+02 -0.17169984707E+00  0.22286355654E+03  0.17117819174E+03 0.  0.
         24    2    5    5    0    0 -0.20821563046E+01  0.30508182578E+02  0.28905825381E+02  0.89233394383E+02  0.78689054849E+02 0.  0.
          5    1    5    5  501    0  0.12107240822E+03  0.48279392420E+02 -0.29077525228E+02  0.13363016215E+03  0.47000000000E+01 0. -1.
        -11    1    6    6    0    0  0.29492115499E+02  0.36104161280E+02  0.85036537806E+00  0.46626370860E+02  0.00000000000E+00 0.  1.
         12    1    6    6    0    0 -0.31574271803E+02 -0.55959787015E+01  0.28055460003E+02  0.42607023523E+02  0.00000000000E+00 0. -1.
         -5    1    3    3    0  503  0.18533293674E+02  0.15810715508E+02  0.14357002830E+01  0.24851819543E+02  0.47000000000E+01 0.  1.
         13    1    4    4    0    0 -0.74683933620E+01  0.12251140782E+01 -0.59704041580E+02  0.60181811080E+02  0.00000000000E+00 0. -1.
        -14    1    4    4    0    0 -0.13005515222E+03 -0.95823404585E+02 -0.13145496378E+03  0.20827115736E+03  0.00000000000E+00 0.  1.
</event>
<event>
12    1  0.8563264E-002  0.2096888E+03  0.7818608E-02  0.1141935E+00
         21   -1    0    0  503  502  0.00000000000E+00  0.00000000000E+00  0.20737389742E+03  0.20737389742E+03  0.00000000000E+00 0. -1.
         21   -1    0    0  501  503 -0.00000000000E+00 -0.00000000000E+00 -0.45262729068E+03  0.45262729068E+03  0.00000000000E+00 0.  1.
          6    2    1    2  501    0  0.11928363970E+03 -0.12933316135E+02 -0.36361810577E+03  0.41974696694E+03  0.17196956719E+03 0.  0.
         24    2    3    3    0    0  0.12226448266E+03 -0.34579099812E+02 -0.36752182905E+03  0.39705876667E+03  0.80243700684E+02 0.  0.
         -6    2    1    2    0  502 -0.11928363970E+03  0.12933316135E+02  0.11836471252E+03  0.24025422117E+03  0.17121924031E+03 0.  0.
        -24    2    5    5    0    0 -0.70589919747E+01 -0.28449797605E+02  0.76580694320E+02  0.11346728242E+03  0.78428318138E+02 0.  0.
          5    1    3    3  501    0 -0.29808429590E+01  0.21645783677E+02  0.39037232760E+01  0.22688200263E+02  0.47000000000E+01 0. -1.
        -13    1    4    4    0    0  0.48415102450E+02  0.25643841672E+02 -0.12446911819E+03  0.13599334595E+03  0.00000000000E+00 0.  1.
         14    1    4    4    0    0  0.73849380212E+02 -0.60222941484E+02 -0.24305271086E+03  0.26106542072E+03  0.00000000000E+00 0. -1.
         -5    1    5    5    0  502 -0.11222464773E+03  0.41383113740E+02  0.41784018197E+02  0.12678693875E+03  0.47000000000E+01 0.  1.
         13    1    6    6    0    0 -0.88320903419E+00  0.23594398455E+02  0.48657242525E+02  0.54083296375E+02  0.00000000000E+00 0. -1.
        -14    1    6    6    0    0 -0.61757829405E+01 -0.52044196061E+02  0.27923451795E+02  0.59383986046E+02  0.00000000000E+00 0.  1.
</event>
<event>
12    1  0.8563264E-002  0.2608289E+03  0.7818608E-02  0.1106699E+00
         21   -1    0    0  501  502  0.00000000000E+00  0.00000000000E+00  0.40673655905E+03  0.40673655905E+03  0.00000000000E+00 0.  1.
         21   -1    0    0  502  503 -0.00000000000E+00 -0.00000000000E+00 -0.20969664488E+03  0.20969664488E+03  0.00000000000E+00 0. -1.
         -6    2    1    2    0  503  0.16588349863E+03 -0.10378355067E+03 -0.40442574154E+02  0.26394565030E+03  0.17246258724E+03 0.  0.
        -24    2    3    3    0    0  0.56790374752E+02  0.14247242415E+02  0.11280070109E+02  0.95037688013E+02  0.74005348322E+02 0.  0.
          6    2    1    2  501    0 -0.16588349863E+03  0.10378355067E+03  0.23748248833E+03  0.35248755363E+03  0.17193365783E+03 0.  0.
         24    2    5    5    0    0 -0.17486296268E+03  0.99971401637E+02  0.15740180633E+03  0.27167809327E+03  0.91990873820E+02 0.  0.
          5    1    5    5  501    0  0.89794640452E+01  0.38121490304E+01  0.80080681994E+02  0.80809460358E+02  0.47000000000E+01 0. -1.
        -13    1    6    6    0    0 -0.12232668150E+03  0.43936165046E+02  0.14350801411E+03  0.19362012736E+03  0.00000000000E+00 0.  1.
         14    1    6    6    0    0 -0.52536281177E+02  0.56035236591E+02  0.13893792222E+02  0.78057965910E+02  0.00000000000E+00 0. -1.
         -5    1    3    3    0  503  0.10909312388E+03 -0.11803079308E+03 -0.51722644262E+02  0.16890796228E+03  0.47000000000E+01 0.  1.
         11    1    4    4    0    0  0.76989741415E+01  0.16338842043E+02 -0.27183818350E+02  0.32637278413E+02  0.00000000000E+00 0. -1.
        -12    1    4    4    0    0  0.49091400611E+02 -0.20915996284E+01  0.38463888458E+02  0.62400409600E+02  0.00000000000E+00 0.  1.
</event>
<event>
12    1  0.8563264E-002  0.2022903E+03  0.7818608E-02  0.1150289E+00
         21   -1    0    0  501  502  0.00000000000E+00  0.00000000000E+00  0.21114369294E+03  0.21114369294E+03  0.00000000000E+00 0.  1.
         21   -1    0    0  502  503 -0.00000000000E+00 -0.00000000000E+00 -0.26820748518E+03  0.26820748518E+03  0.00000000000E+00 0.  1.
         -6    2    1    2    0  503 -0.81732006248E+02 -0.52488932511E+01 -0.16420370188E+03  0.26054603652E+03  0.18496948318E+03 0.  0.
        -24    2    3    3    0    0 -0.95540929255E+01  0.62506044195E+02 -0.73533325718E+02  0.12621960638E+03  0.80783369522E+02 0.  0.
          6    2    1    2  501    0  0.81732006248E+02  0.52488932511E+01  0.10713990963E+03  0.21880514160E+03  0.17230513059E+03 0.  0.
         24    2    5    5    0    0 -0.64479958209E+01  0.44279653184E+02  0.24332855074E+02  0.91611544000E+02  0.76146719049E+02 0.  0.
          5    1    5    5  501    0  0.88180002069E+02 -0.39030759933E+02  0.82807054560E+02  0.12719359760E+03  0.47000000000E+01 0. -1.
        -13    1    6    6    0    0 -0.15706863874E+02  0.21908331508E+02  0.49702839412E+02  0.56542486749E+02  0.00000000000E+00 0.  1.
         14    1    6    6    0    0  0.92588680530E+01  0.22371321676E+02 -0.25369984338E+02  0.35069057251E+02  0.00000000000E+00 0. -1.
         -5    1    3    3    0  503 -0.72177913323E+02 -0.67754937446E+02 -0.90670376162E+02  0.13432643014E+03  0.47000000000E+01 0.  1.
         13    1    4    4    0    0  0.34119054999E+02  0.27798334307E+02 -0.18132259959E+02  0.47598699094E+02  0.00000000000E+00 0. -1.
        -14    1    4    4    0    0 -0.43673147925E+02  0.34707709888E+02 -0.55401065759E+02  0.78620907287E+02  0.00000000000E+00 0.  1.
</event>
<event>
12    1  0.8563264E-002  0.2288339E+03  0.7818608E-02  0.1127600E+00
         21   -1    0    0  501  502  0.00000000000E+00  0.00000000000E+00  0.20973686063E+03  0.20973686063E+03  0.00000000000E+00 0.  1.
         21   -1    0    0  502  503 -0.00000000000E+00 -0.00000000000E+00 -0.27214871666E+03  0.27214871666E+03  0.00000000000E+00 0.  1.
         -6    2    1    2    0  503  0.20565729418E+02  0.14701674721E+03  0.39276055945E+02  0.23218002917E+03  0.17414960289E+03 0.  0.
        -24    2    3    3    0    0 -0.30443013517E+02  0.95129289387E+02 -0.30041436282E+02  0.13157583013E+03  0.80208181690E+02 0.  0.
          6    2    1    2  501    0 -0.20565729418E+02 -0.14701674721E+03 -0.10168791198E+03  0.24970554813E+03  0.17313450303E+03 0.  0.
         24    2    5    5    0    0 -0.49154665651E+02 -0.14374189004E+03 -0.12412877588E+03  0.21291241919E+03  0.82739550026E+02 0.  0.
          5    1    5    5  501    0  0.28588936234E+02 -0.32748571720E+01  0.22440863902E+02  0.36793128939E+02  0.47000000000E+01 0. -1.
        -13    1    6    6    0    0  0.11667114446E+02 -0.51689207781E+02 -0.95400935921E+01  0.53841518796E+02  0.00000000000E+00 0.  1.
         14    1    6    6    0    0 -0.60821780097E+02 -0.92052682255E+02 -0.11458868229E+03  0.15907090039E+03  0.00000000000E+00 0. -1.
         -5    1    3    3    0  503  0.51008742935E+02  0.51887457820E+02  0.69317492227E+02  0.10060419903E+03  0.47000000000E+01 0.  1.
         11    1    4    4    0    0  0.33949827182E+01 -0.13174721551E+02  0.18051258804E+01  0.13724346070E+02  0.00000000000E+00 0. -1.
        -12    1    4    4    0    0 -0.33837996236E+02  0.10830401094E+03 -0.31846562162E+02  0.11785148406E+03  0.00000000000E+00 0.  1.
</event>
<event>
12    1  0.8563264E-002  0.2301325E+03  0.7818608E-02  0.1127383E+00
         21   -1    0    0  503  502  0.00000000000E+00  0.00000000000E+00  0.22477082959E+03  0.22477082959E+03  0.00000000000E+00 0. -1.
         21   -1    0    0  501  503 -0.00000000000E+00 -0.00000000000E+00 -0.23318630214E+03  0.23318630214E+03  0.00000000000E+00 0.  1.
          6    2    1    2  501    0 -0.15188674873E+03  0.13252293568E+02  0.18759200938E+02  0.23089578389E+03  0.17238256198E+03 0.  0.
         24    2    3    3    0    0 -0.71467426228E+02 -0.21033225009E+02 -0.46077502423E+02  0.12195243935E+03  0.84848521902E+02 0.  0.
         -6    2    1    2    0  502  0.15188674873E+03 -0.13252293568E+02 -0.27174673480E+02  0.22706134784E+03  0.16605175423E+03 0.  0.
        -24    2    5    5    0    0  0.38131307343E+02 -0.18067773525E+02 -0.59095097994E+02  0.10872076819E+03  0.80916832543E+02 0.  0.
          5    1    3    3  501    0 -0.80419322499E+02  0.34285518578E+02  0.64836703362E+02  0.10894334453E+03  0.47000000000E+01 0. -1.
        -13    1    4    4    0    0 -0.71002842638E+02  0.15322556167E+02 -0.45260631603E+02  0.85584514740E+02  0.00000000000E+00 0.  1.
         14    1    4    4    0    0 -0.46458358987E+00 -0.36355781176E+02 -0.81687082057E+00  0.36367924615E+02  0.00000000000E+00 0. -1.
         -5    1    5    5    0  502  0.11375544138E+03  0.48154799568E+01  0.31920424514E+02  0.11834057965E+03  0.47000000000E+01 0.  1.
         11    1    6    6    0    0  0.23586066838E+02  0.15057608251E+02  0.10818494393E+02  0.30001232242E+02  0.00000000000E+00 0. -1.
        -12    1    6    6    0    0  0.14545240505E+02 -0.33125381776E+02 -0.69913592386E+02  0.78719535946E+02  0.00000000000E+00 0.  1.
</event>
<event>
12    1  0.8563264E-002  0.1939581E+03  0.7818608E-02  0.1155064E+00
         21   -1    0    0  501  502  0.00000000000E+00  0.00000000000E+00  0.17852197525E+04  0.17852197525E+04  0.00000000000E+00 0. -1.
         21   -1    0    0  502  503 -0.00000000000E+00 -0.00000000000E+00 -0.21220202048E+02  0.21220202048E+02  0.00000000000E+00 0. -1.
         -6    2    1    2    0  503  0.63940169209E+02 -0.63195861871E+02  0.97288523626E+03  0.99203096404E+03  0.17186532079E+03 0.  0.
        -24    2    3    3    0    0  0.10430522897E+03 -0.19569673048E+02  0.60647251483E+03  0.62079929133E+03  0.79500289142E+02 0.  0.
          6    2    1    2  501    0 -0.63940169209E+02  0.63195861871E+02  0.79111431415E+03  0.81440899046E+03  0.17122524201E+03 0.  0.
         24    2    5    5    0    0  0.20792934350E+02 -0.34011349762E+01  0.42319505266E+03  0.43100120259E+03  0.78892776600E+02 0.  0.
          5    1    5    5  501    0 -0.84733103559E+02  0.66596996847E+02  0.36791926149E+03  0.38340778787E+03  0.47000000000E+01 0. -1.
        -13    1    6    6    0    0  0.43360872018E+02  0.20482092581E+02  0.28067547956E+03  0.28474270169E+03  0.00000000000E+00 0.  1.
         14    1    6    6    0    0 -0.22567937668E+02 -0.23883227558E+02  0.14251957310E+03  0.14625850090E+03  0.00000000000E+00 0. -1.
         -5    1    3    3    0  503 -0.40365059764E+02 -0.43626188822E+02  0.36641272142E+03  0.37123167271E+03  0.47000000000E+01 0.  1.
         11    1    4    4    0    0  0.64946154392E+02 -0.49464625490E+02  0.42176362001E+03  0.42959201960E+03  0.00000000000E+00 0. -1.
        -12    1    4    4    0    0  0.39359074581E+02  0.29894952442E+02  0.18470889483E+03  0.19120727173E+03  0.00000000000E+00 0.  1.
</event>
<event>
12    1  0.8563264E-002  0.1782074E+03  0.7818608E-02  0.1171054E+00
         21   -1    0    0  501  502  0.00000000000E+00  0.00000000000E+00  0.33365688853E+03  0.33365688853E+03  0.00000000000E+00 0. -1.
         21   -1    0    0  502  503 -0.00000000000E+00 -0.00000000000E+00 -0.51241827997E+03  0.51241827997E+03  0.00000000000E+00 0. -1.
         -6    2    1    2    0  503  0.99210390201E+01 -0.44848614120E+02 -0.47283529966E+03  0.50530299041E+03  0.17218613854E+03 0.  0.
        -24    2    3    3    0    0  0.37742112867E+02 -0.88205835547E+02 -0.35379591426E+03  0.37550959274E+03  0.81431988735E+02 0.  0.
          6    2    1    2  501    0 -0.99210390201E+01  0.44848614120E+02  0.29407390823E+03  0.34077217810E+03  0.16594091919E+03 0.  0.
         24    2    5    5    0    0 -0.69178224049E+02  0.35366295958E+02  0.20382218553E+03  0.23228811574E+03  0.79861654304E+02 0.  0.
          5    1    5    5  501    0  0.59257185029E+02  0.94823181617E+01  0.90251722696E+02  0.10848406235E+03  0.47000000000E+01 0. -1.
        -11    1    6    6    0    0 -0.40524779846E+02 -0.18497978169E+02  0.50878500402E+02  0.67624365291E+02  0.00000000000E+00 0.  1.
         12    1    6    6    0    0 -0.28653444203E+02  0.53864274127E+02  0.15294368513E+03  0.16466375045E+03  0.00000000000E+00 0. -1.
         -5    1    3    3    0  503 -0.27821073847E+02  0.43357221427E+02 -0.11903938540E+03  0.12979339766E+03  0.47000000000E+01 0.  1.
         13    1    4    4    0    0  0.57630729164E+02 -0.31348153523E+02 -0.18428689180E+03  0.19561611938E+03  0.00000000000E+00 0. -1.
        -14    1    4    4    0    0 -0.19888616297E+02 -0.56857682024E+02 -0.16950902246E+03  0.17989347336E+03  0.00000000000E+00 0.  1.
</event>
<event>
12    1  0.8563264E-002  0.1814883E+03  0.7818608E-02  0.1168665E+00
         21   -1    0    0  503  502  0.00000000000E+00  0.00000000000E+00  0.11501303480E+03  0.11501303480E+03  0.00000000000E+00 0. -1.
         21   -1    0    0  501  503 -0.00000000000E+00 -0.00000000000E+00 -0.28627998805E+03  0.28627998805E+03  0.00000000000E+00 0. -1.
          6    2    1    2  501    0 -0.52825305170E+02 -0.21200269251E+02 -0.38487469520E+02  0.17641884438E+03  0.16248802744E+03 0.  0.
         24    2    3    3    0    0 -0.81283115776E+02  0.24544787739E+02 -0.36925965029E+02  0.12231722223E+03  0.79928620942E+02 0.  0.
         -6    2    1    2    0  502  0.52825305170E+02  0.21200269251E+02 -0.13277948373E+03  0.22487417847E+03  0.17233119439E+03 0.  0.
        -24    2    5    5    0    0  0.33047211272E+02 -0.52106265026E+02 -0.49736984918E+02  0.11225460834E+03  0.79499360990E+02 0.  0.
          5    1    3    3  501    0  0.28457810605E+02 -0.45745056989E+02 -0.15615044907E+01  0.54101622154E+02  0.47000000000E+01 0. -1.
        -11    1    4    4    0    0  0.59758501445E+01  0.10000807508E+02 -0.31617231547E+02  0.33695344878E+02  0.00000000000E+00 0.  1.
         12    1    4    4    0    0 -0.87258965920E+02  0.14543980230E+02 -0.53087334821E+01  0.88621877353E+02  0.00000000000E+00 0. -1.
         -5    1    5    5    0  502  0.19778093899E+02  0.73306534277E+02 -0.83042498815E+02  0.11261957013E+03  0.47000000000E+01 0.  1.
         13    1    6    6    0    0  0.12813724578E+02  0.12664138489E+02  0.11064686849E+02  0.21142356451E+02  0.00000000000E+00 0. -1.
        -14    1    6    6    0    0  0.20233486693E+02 -0.64770403515E+02 -0.60801671767E+02  0.91112251892E+02  0.00000000000E+00 0.  1.
</event>
<event>
12    1  0.8563264E-002  0.1881205E+03  0.7818608E-02  0.1160405E+00
         21   -1    0    0  501  502  0.00000000000E+00  0.00000000000E+00  0.54678477079E+03  0.54678477079E+03  0.00000000000E+00 0. -1.
         21   -1    0    0  502  503 -0.00000000000E+00 -0.00000000000E+00 -0.98951988975E+02  0.98951988975E+02  0.00000000000E+00 0. -1.
         -6    2    1    2    0  503  0.74406879759E+02 -0.97060254040E+01  0.41439266209E+03  0.45466726447E+03  0.17137809750E+03 0.  0.
        -24    2    3    3    0    0  0.71738286255E+02  0.52929893869E+02  0.31454357514E+03  0.33667442596E+03  0.80399334918E+02 0.  0.
          6    2    1    2  501    0 -0.74406879759E+02  0.97060254040E+01  0.33440119729E+02  0.19106949530E+03  0.17250715852E+03 0.  0.
         24    2    5    5    0    0  0.19422244077E+01 -0.46563592931E+02  0.28478801725E+02  0.95979220658E+02  0.78924192920E+02 0.  0.
          5    1    5    5  501    0 -0.76349104167E+02  0.56269618335E+02  0.49613180037E+01  0.95090274640E+02  0.47000000000E+01 0. -1.
        -13    1    6    6    0    0  0.20718391676E+02 -0.57850549880E+02  0.18225788474E+01  0.61475683556E+02  0.00000000000E+00 0.  1.
         14    1    6    6    0    0 -0.18776167268E+02  0.11286956948E+02  0.26656222878E+02  0.34503537102E+02  0.00000000000E+00 0. -1.
         -5    1    3    3    0  503  0.26685935046E+01 -0.62635919273E+02  0.99849086951E+02  0.11799283851E+03  0.47000000000E+01 0.  1.
         11    1    4    4    0    0  0.69700639211E+02  0.23487239514E+02  0.28710562697E+03  0.29637724367E+03  0.00000000000E+00 0. -1.
        -12    1    4    4    0    0  0.20376470439E+01  0.29442654355E+02  0.27437948164E+02  0.40297182289E+02  0.00000000000E+00 0.  1.
</event>
<event>
12    1  0.8563264E-002  0.2273673E+03  0.7818608E-02  0.1128564E+00
         21   -1    0    0  501  502  0.00000000000E+00  0.00000000000E+00  0.64393259899E+02  0.64393259899E+02  0.00000000000E+00 0. -1.
         21   -1    0    0  502  503 -0.00000000000E+00 -0.00000000000E+00 -0.20161247931E+04  0.20161247931E+04  0.00000000000E+00 0.  1.
         -6    2    1    2    0  503 -0.13405541168E+03  0.63835869807E+02 -0.17829591889E+04  0.17973573269E+04  0.17176734145E+03 0.  0.
        -24    2    3    3    0    0 -0.93197466059E+02 -0.28154189316E+02 -0.10430477348E+04  0.10506160112E+04  0.79793482237E+02 0.  0.
          6    2    1    2  501    0  0.13405541168E+03 -0.63835869807E+02 -0.16877234434E+03  0.28316072614E+03  0.17219181439E+03 0.  0.
         24    2    5    5    0    0  0.13137362199E+03  0.93055143699E+01 -0.10465707039E+03  0.18574557111E+03  0.78757181606E+02 0.  0.
          5    1    5    5  501    0  0.26817896881E+01 -0.73141384177E+02 -0.64115273955E+02  0.97415155030E+02  0.47000000000E+01 0. -1.
        -13    1    6    6    0    0  0.27523504300E+02 -0.28531631984E+02 -0.45620748052E+02  0.60438811748E+02  0.00000000000E+00 0.  1.
         14    1    6    6    0    0  0.10385011769E+03  0.37837146354E+02 -0.59036322333E+02  0.12530675936E+03  0.00000000000E+00 0. -1.
         -5    1    3    3    0  503 -0.40857945617E+02  0.91990059123E+02 -0.73991145409E+03  0.74674131571E+03  0.47000000000E+01 0.  1.
         13    1    4    4    0    0  0.99789813935E+01  0.82221343666E+01 -0.53553194534E+02  0.55091997676E+02  0.00000000000E+00 0. -1.
        -14    1    4    4    0    0 -0.10317644745E+03 -0.36376323683E+02 -0.98949454027E+03  0.99552401350E+03  0.00000000000E+00 0.  1.
</event>
<event>
12    1  0.8563264E-002  0.2061413E+03  0.7818608E-02  0.1145362E+00
         21   -1    0    0  501  502  0.00000000000E+00  0.00000000000E+00  0.11536773462E+04  0.11536773462E+04  0.00000000000E+00 0.  1.
         21   -1    0    0  502  503 -0.00000000000E+00 -0.00000000000E+00 -0.39917858443E+02  0.39917858443E+02  0.00000000000E+00 0.  1.
         -6    2    1    2    0  503 -0.10670488512E+03  0.95340696722E+01  0.37954934716E+03  0.43191659151E+03  0.17611758598E+03 0.  0.
        -24    2    3    3    0    0 -0.51691729156E+02 -0.12809879026E+02  0.76935411095E+02  0.12349645002E+03  0.80598931896E+02 0.  0.
          6    2    1    2  501    0  0.10670488512E+03 -0.95340696722E+01  0.73421014056E+03  0.76167861311E+03  0.17208413108E+03 0.  0.
         24    2    5    5    0    0  0.11851552023E+03 -0.36603927425E+02  0.70311842797E+03  0.71853869085E+03  0.80848936026E+02 0.  0.
          5    1    5    5  501    0 -0.11810635119E+02  0.27069857753E+02  0.31091712597E+02  0.43139922263E+02  0.47000000000E+01 0. -1.
        -11    1    6    6    0    0  0.99656292424E+02 -0.55317704656E+02  0.63977896450E+03  0.64985271292E+03  0.00000000000E+00 0.  1.
         12    1    6    6    0    0  0.18859227811E+02  0.18713777231E+02  0.63339463466E+02  0.68685977929E+02  0.00000000000E+00 0. -1.
         -5    1    3    3    0  503 -0.55013155960E+02  0.22343948699E+02  0.30261393607E+03  0.30842014149E+03  0.47000000000E+01 0.  1.
         13    1    4    4    0    0 -0.13185870090E+02 -0.22590278003E+02  0.79492797070E+02  0.83685677487E+02  0.00000000000E+00 0. -1.
        -14    1    4    4    0    0 -0.38505859065E+02  0.97803989769E+01 -0.25573859754E+01  0.39810772531E+02  0.00000000000E+00 0.  1.
</event>
<event>
12    1  0.8563264E-002  0.1830982E+03  0.7818608E-02  0.1164999E+00
         21   -1    0    0  503  502  0.00000000000E+00  0.00000000000E+00  0.28242813721E+03  0.28242813721E+03  0.00000000000E+00 0.  1.
         21   -1    0    0  501  503 -0.00000000000E+00 -0.00000000000E+00 -0.12085930839E+03  0.12085930839E+03  0.00000000000E+00 0.  1.
          6    2    1    2  501    0  0.24941055835E+02 -0.54456169094E+02  0.11049099472E+03  0.21385324068E+03  0.17302432782E+03 0.  0.
         24    2    3    3    0    0 -0.51378263180E+02 -0.44808997140E+02  0.76454395934E+02  0.12960191168E+03  0.79396528274E+02 0.  0.
         -6    2    1    2    0  502 -0.24941055835E+02  0.54456169094E+02  0.51077834107E+02  0.18943420492E+03  0.17230450440E+03 0.  0.
        -24    2    5    5    0    0 -0.54301935554E+02 -0.12127933587E+02  0.63902075594E+02  0.11539330299E+03  0.78334871753E+02 0.  0.
          5    1    3    3  501    0  0.76319319015E+02 -0.96471719539E+01  0.34036598782E+02  0.84251329000E+02  0.47000000000E+01 0. -1.
        -11    1    4    4    0    0  0.12548842013E+02  0.98339315940E+01  0.28857355671E+02  0.32968570227E+02  0.00000000000E+00 0.  1.
         12    1    4    4    0    0 -0.63927105194E+02 -0.54642928734E+02  0.47597040262E+02  0.96633341455E+02  0.00000000000E+00 0. -1.
         -5    1    5    5    0  502  0.29360879719E+02  0.66584102682E+02 -0.12824241487E+02  0.74040901922E+02  0.47000000000E+01 0.  1.
         11    1    6    6    0    0 -0.11933595986E+02  0.32367164172E+02  0.19944282819E+02  0.39847439653E+02  0.00000000000E+00 0. -1.
        -12    1    6    6    0    0 -0.42368339568E+02 -0.44495097759E+02  0.43957792774E+02  0.75545863341E+02  0.00000000000E+00 0.  1.
</event>
<event>
12    1  0.8563264E-002  0.1920395E+03  0.7818608E-02  0.1156731E+00
         21   -1    0    0  503  502  0.00000000000E+00  0.00000000000E+00  0.52692964620E+02  0.52692964620E+02  0.00000000000E+00 0. -1.
         21   -1    0    0  501  503 -0.00000000000E+00 -0.00000000000E+00 -0.93428591760E+03  0.93428591760E+03  0.00000000000E+00 0. -1.
          6    2    1    2  501    0 -0.52750121948E+02  0.66453028712E+02 -0.68918407760E+03  0.71543961874E+03  0.17228051215E+03 0.  0.
         24    2    3    3    0    0  0.37385691058E+02  0.26463126385E+02 -0.36431182983E+03  0.37589915806E+03  0.80492737066E+02 0.  0.
         -6    2    1    2    0  502  0.52750121948E+02 -0.66453028712E+02 -0.19240887539E+03  0.27153926348E+03  0.17179585528E+03 0.  0.
        -24    2    5    5    0    0  0.27458093822E+01 -0.10157814852E+03 -0.11334926999E+03  0.17150568650E+03  0.78996732662E+02 0.  0.
          5    1    3    3  501    0 -0.90135813006E+02  0.39989902327E+02 -0.32487224777E+03  0.33954046069E+03  0.47000000000E+01 0. -1.
        -11    1    4    4    0    0  0.30458823820E+02  0.34196645120E+02 -0.86335886930E+02  0.97729401195E+02  0.00000000000E+00 0.  1.
         12    1    4    4    0    0  0.69268672379E+01 -0.77335187357E+01 -0.27797594290E+03  0.27816975686E+03  0.00000000000E+00 0. -1.
         -5    1    5    5    0  502  0.50004312565E+02  0.35125119806E+02 -0.79059605401E+02  0.10003357698E+03  0.47000000000E+01 0.  1.
         13    1    6    6    0    0  0.21983584652E+02 -0.77117584179E+02 -0.35556010456E+02  0.87719038203E+02  0.00000000000E+00 0. -1.
        -14    1    6    6    0    0 -0.19237775270E+02 -0.24460564339E+02 -0.77793259530E+02  0.83786648301E+02  0.00000000000E+00 0.  1.
</event>
<event>
12    1  0.8563264E-002  0.2212753E+03  0.7818608E-02  0.1133226E+00
         21   -1    0    0  503  502  0.00000000000E+00  0.00000000000E+00  0.54347658638E+03  0.54347658638E+03  0.00000000000E+00 0.  1.
         21   -1    0    0  501  503 -0.00000000000E+00 -0.00000000000E+00 -0.93708571948E+02  0.93708571948E+02  0.00000000000E+00 0.  1.
          6    2    1    2  501    0  0.32976738059E+01 -0.13691613683E+03  0.15778107789E+03  0.27176756570E+03  0.17379826826E+03 0.  0.
         24    2    3    3    0    0 -0.42152001857E+02 -0.95374502102E+02  0.38715962739E+02  0.13764086411E+03  0.81074008110E+02 0.  0.
         -6    2    1    2    0  502 -0.32976738059E+01  0.13691613683E+03  0.29198693654E+03  0.36541759263E+03  0.17180437338E+03 0.  0.
        -24    2    5    5    0    0  0.22744616339E+02  0.33590692456E+02  0.55332807453E+02  0.10583790323E+03  0.80587157709E+02 0.  0.
          5    1    3    3  501    0  0.45449675663E+02 -0.41541634725E+02  0.11906511515E+03  0.13412670159E+03  0.47000000000E+01 0. -1.
        -11    1    4    4    0    0 -0.49504760842E+02 -0.10678741677E+03  0.39187900859E+02  0.12405629892E+03  0.00000000000E+00 0.  1.
         12    1    4    4    0    0  0.73527589858E+01  0.11412914670E+02 -0.47193811998E+00  0.13584565196E+02  0.00000000000E+00 0. -1.
         -5    1    5    5    0  502 -0.26042290145E+02  0.10332544437E+03  0.23665412909E+03  0.25957968939E+03  0.47000000000E+01 0.  1.
         11    1    6    6    0    0  0.20426753516E+02 -0.21555176115E+02  0.37499283940E+02  0.47833818294E+02  0.00000000000E+00 0. -1.
        -12    1    6    6    0    0  0.23178628230E+01  0.55145868571E+02  0.17833523513E+02  0.58004084937E+02  0.00000000000E+00 0.  1.
</event>
<event>
12    1  0.8563264E-002  0.2114834E+03  0.7818608E-02  0.1141259E+00
         21   -1    0    0  501  502  0.00000000000E+00  0.00000000000E+00  0.63521866781E+03  0.63521866781E+03  0.00000000000E+00 0.  1.
         21   -1    0    0  502  503 -0.00000000000E+00 -0.00000000000E+00 -0.69234786910E+02  0.69234786910E+02  0.00000000000E+00 0.  1.
         -6    2    1    2    0  503 -0.40333516276E+02 -0.11374633776E+03  0.30774595882E+03  0.37340701678E+03  0.17366693158E+03 0.  0.
        -24    2    3    3    0    0 -0.12411205609E+01 -0.67991032941E+02  0.29341099974E+03  0.31136393196E+03  0.78950379473E+02 0.  0.
          6    2    1    2  501    0  0.40333516276E+02  0.11374633776E+03  0.25823792209E+03  0.33104643794E+03  0.16834458049E+03 0.  0.
         24    2    5    5    0    0  0.47273990665E+02  0.10758687956E+03  0.10494005840E+03  0.17739607471E+03  0.81530268111E+02 0.  0.
          5    1    5    5  501    0 -0.69404743889E+01  0.61594582043E+01  0.15329786369E+03  0.15365036323E+03  0.47000000000E+01 0. -1.
        -13    1    6    6    0    0  0.64644939173E+02  0.52547253683E+02  0.76285030541E+02  0.11295834593E+03  0.00000000000E+00 0.  1.
         14    1    6    6    0    0 -0.17370948508E+02  0.55039625876E+02  0.28655027857E+02  0.64437728779E+02  0.00000000000E+00 0. -1.
         -5    1    3    3    0  503 -0.39092395715E+02 -0.45755304822E+02  0.14334959075E+02  0.62043084819E+02  0.47000000000E+01 0.  1.
         11    1    4    4    0    0  0.67635960056E+01  0.15997239996E+02  0.80367892370E+02  0.82223208660E+02  0.00000000000E+00 0. -1.
        -12    1    4    4    0    0 -0.80047165665E+01 -0.83988272937E+02  0.21304310737E+03  0.22914072330E+03  0.00000000000E+00 0.  1.
</event>
<event>
12    1  0.8563264E-002  0.1818056E+03  0.7818608E-02  0.1166152E+00
         21   -1    0    0  501  502  0.00000000000E+00  0.00000000000E+00  0.30561621949E+03  0.30561621949E+03  0.00000000000E+00 0.  1.
         21   -1    0    0  502  503 -0.00000000000E+00 -0.00000000000E+00 -0.10848120275E+03  0.10848120275E+03  0.00000000000E+00 0.  1.
         -6    2    1    2    0  503  0.39536230515E+02  0.43377442189E+02  0.84068570302E+02  0.20030178424E+03  0.17207139287E+03 0.  0.
        -24    2    3    3    0    0 -0.32365661419E+02 -0.49230164028E+01  0.13401341801E+02  0.88414503696E+02  0.81029355003E+02 0.  0.
          6    2    1    2  501    0 -0.39536230515E+02 -0.43377442189E+02  0.11306644644E+03  0.21379563800E+03  0.17169693504E+03 0.  0.
         24    2    5    5    0    0 -0.33421939421E+02  0.26113480513E+01 -0.69054111705E+01  0.85080098914E+02  0.77891548672E+02 0.  0.
          5    1    5    5  501    0 -0.61142910942E+01 -0.45988790240E+02  0.11997185761E+03  0.12871553908E+03  0.47000000000E+01 0. -1.
        -11    1    6    6    0    0 -0.23538317599E+02  0.37930953751E+02  0.82480961573E+01  0.45396483763E+02  0.00000000000E+00 0.  1.
         12    1    6    6    0    0 -0.98836218221E+01 -0.35319605700E+02 -0.15153507328E+02  0.39683615151E+02  0.00000000000E+00 0. -1.
         -5    1    3    3    0  503  0.71901891934E+02  0.48300458591E+02  0.70667228500E+02  0.11188728054E+03  0.47000000000E+01 0.  1.
         13    1    4    4    0    0 -0.95526547804E+01  0.37414509248E+02  0.11473586232E+02  0.40283270680E+02  0.00000000000E+00 0. -1.
        -14    1    4    4    0    0 -0.22813006638E+02 -0.42337525651E+02  0.19277555693E+01  0.48131233016E+02  0.00000000000E+00 0.  1.
</event>
<event>
12    1  0.8563264E-002  0.1815384E+03  0.7818608E-02  0.1166372E+00
         21   -1    0    0  503  502  0.00000000000E+00  0.00000000000E+00  0.47673613998E+03  0.47673613998E+03  0.00000000000E+00 0.  1.
         21   -1    0    0  501  503 -0.00000000000E+00 -0.00000000000E+00 -0.12229213696E+03  0.12229213696E+03  0.00000000000E+00 0.  1.
          6    2    1    2  501    0  0.16691651710E+01  0.58445870581E+02 -0.20463044792E+02  0.18248118161E+03  0.17164480633E+03 0.  0.
         24    2    3    3    0    0  0.91749329461E+01  0.10340993964E+03 -0.44342740146E+01  0.13393104722E+03  0.84498920778E+02 0.  0.
         -6    2    1    2    0  502 -0.16691651710E+01 -0.58445870581E+02  0.37490704781E+03  0.41654709533E+03  0.17186472072E+03 0.  0.
        -24    2    5    5    0    0 -0.40033324590E+02 -0.66903397079E+01  0.31833762834E+03  0.33068305790E+03  0.79781021834E+02 0.  0.
          5    1    3    3  501    0 -0.75057677751E+01 -0.44964069063E+02 -0.16028770777E+02  0.48550134389E+02  0.47000000000E+01 0. -1.
        -13    1    4    4    0    0 -0.31158970820E+02  0.43989211236E+02 -0.24719811887E+02  0.59304310699E+02  0.00000000000E+00 0.  1.
         14    1    4    4    0    0  0.40333903766E+02  0.59420728408E+02  0.20285537873E+02  0.74626736525E+02  0.00000000000E+00 0. -1.
         -5    1    5    5    0  502  0.38364159419E+02 -0.51755530873E+02  0.56569419474E+02  0.85864037428E+02  0.47000000000E+01 0.  1.
         11    1    6    6    0    0 -0.33719698832E+02  0.13759615579E+02  0.51989388501E+02  0.63476307603E+02  0.00000000000E+00 0. -1.
        -12    1    6    6    0    0 -0.63136257578E+01 -0.20449955287E+02  0.26634823983E+03  0.26720675030E+03  0.00000000000E+00 0.  1.
</event>
<event>
12    1  0.8563264E-002  0.1925994E+03  0.7818608E-02  0.1156640E+00
         21   -1    0    0  503  502  0.00000000000E+00  0.00000000000E+00  0.48218113082E+02  0.48218113082E+02  0.00000000000E+00 0. -1.
         21   -1    0    0  501  503 -0.00000000000E+00 -0.00000000000E+00 -0.76410233848E+03  0.76410233848E+03  0.00000000000E+00 0.  1.
          6    2    1    2  501    0  0.78034113812E+02 -0.19090250411E+02 -0.33152487335E+03  0.38341006556E+03  0.17504506889E+03 0.  0.
         24    2    3    3    0    0  0.11126175764E+03 -0.40143972115E+02 -0.30284436998E+03  0.33450202138E+03  0.78652226069E+02 0.  0.
         -6    2    1    2    0  502 -0.78034113812E+02  0.19090250411E+02 -0.38435935205E+03  0.42891038600E+03  0.17256374803E+03 0.  0.
        -24    2    5    5    0    0 -0.87155976928E+02  0.35660878985E+02 -0.15374169488E+03  0.19747057111E+03  0.80562119555E+02 0.  0.
          5    1    3    3  501    0 -0.33227643831E+02  0.21053721705E+02 -0.28680503370E+02  0.48908044182E+02  0.47000000000E+01 0. -1.
        -13    1    4    4    0    0 -0.30502373018E-01 -0.27602796889E+02 -0.87864525827E+02  0.92098263964E+02  0.00000000000E+00 0.  1.
         14    1    4    4    0    0  0.11129226002E+03 -0.12541175226E+02 -0.21497984416E+03  0.24240375741E+03  0.00000000000E+00 0. -1.
         -5    1    5    5    0  502  0.91218631160E+01 -0.16570628575E+02 -0.23061765717E+03  0.23143981489E+03  0.47000000000E+01 0.  1.
         13    1    6    6    0    0 -0.28108319984E+02  0.86560562952E+01  0.12401144735E+01  0.29437099837E+02  0.00000000000E+00 0. -1.
        -14    1    6    6    0    0 -0.59047656945E+02  0.27004822690E+02 -0.15498180935E+03  0.16803347128E+03  0.00000000000E+00 0.  1.
</event>
<event>
12    1  0.8563264E-002  0.3447964E+03  0.7818608E-02  0.1064783E+00
         21   -1    0    0  501  502  0.00000000000E+00  0.00000000000E+00  0.73720691481E+03  0.73720691481E+03  0.00000000000E+00 0.  1.
         21   -1    0    0  502  503 -0.00000000000E+00 -0.00000000000E+00 -0.11597785533E+04  0.11597785533E+04  0.00000000000E+00 0. -1.
         -6    2    1    2    0  503  0.18457900446E+03 -0.23497416074E+03 -0.10913869159E+04  0.11445238885E+04  0.17183499650E+03 0.  0.
        -24    2    3    3    0    0  0.17961813214E+03 -0.17474307772E+03 -0.68692206568E+03  0.73554186116E+03  0.79762701787E+02 0.  0.
          6    2    1    2  501    0 -0.18457900446E+03  0.23497416074E+03  0.66881527744E+03  0.75246157959E+03  0.17205315547E+03 0.  0.
         24    2    5    5    0    0 -0.91593574242E+02  0.19641766512E+03  0.55050404087E+03  0.59705072962E+03  0.80284448764E+02 0.  0.
          5    1    5    5  501    0 -0.92985430218E+02  0.38556495618E+02  0.11831123658E+03  0.15541084997E+03  0.47000000000E+01 0. -1.
        -11    1    6    6    0    0 -0.34716315396E+02  0.15254755031E+03  0.33138925817E+03  0.36646257393E+03  0.00000000000E+00 0.  1.
         12    1    6    6    0    0 -0.56877258846E+02  0.43870114805E+02  0.21911478270E+03  0.23058815569E+03  0.00000000000E+00 0. -1.
         -5    1    3    3    0  503  0.49608723256E+01 -0.60231083021E+02 -0.40446485024E+03  0.40898202735E+03  0.47000000000E+01 0.  1.
         11    1    4    4    0    0  0.57779766713E+02 -0.22264733065E+02 -0.24001462573E+03  0.24787343614E+03  0.00000000000E+00 0. -1.
        -12    1    4    4    0    0  0.12183836542E+03 -0.15247834465E+03 -0.44690743995E+03  0.48766842502E+03  0.00000000000E+00 0.  1.
</event>
<event>
12    1  0.8563264E-002  0.2120501E+03  0.7818608E-02  0.1142977E+00
         21   -1    0    0  503  502  0.00000000000E+00  0.00000000000E+00  0.36416051496E+03  0.36416051496E+03  0.00000000000E+00 0. -1.
         21   -1    0    0  501  503 -0.00000000000E+00 -0.00000000000E+00 -0.11855274591E+03  0.11855274591E+03  0.00000000000E+00 0.  1.
          6    2    1    2  501    0 -0.37484100574E+02 -0.88671113994E+02  0.16910631515E+03  0.27122353992E+03  0.18893818707E+03 0.  0.
         24    2    3    3    0    0 -0.22695853920E+02  0.24239407808E+02  0.32810001990E+02  0.93554597355E+02  0.81075987688E+02 0.  0.
         -6    2    1    2    0  502  0.37484100574E+02  0.88671113994E+02  0.76501453906E+02  0.21148972095E+03  0.17206918773E+03 0.  0.
        -24    2    5    5    0    0  0.71544888778E+02  0.11037708924E+03  0.76834309515E+02  0.17082662407E+03  0.77307512142E+02 0.  0.
          5    1    3    3  501    0 -0.14788246654E+02 -0.11291052180E+03  0.13629631316E+03  0.17766894257E+03  0.47000000000E+01 0. -1.
        -13    1    4    4    0    0  0.19406419451E+02  0.35324863326E+02  0.22592827470E+01  0.40367802064E+02  0.00000000000E+00 0.  1.
         14    1    4    4    0    0 -0.42102273372E+02 -0.11085455518E+02  0.30550719243E+02  0.53186795291E+02  0.00000000000E+00 0. -1.
         -5    1    5    5    0  502 -0.34060788203E+02 -0.21705975251E+02 -0.33285560845E+00  0.40663096875E+02  0.47000000000E+01 0.  1.
         13    1    6    6    0    0  0.18695114858E+02  0.83362267879E+01  0.48246413554E+02  0.52409125326E+02  0.00000000000E+00 0. -1.
        -14    1    6    6    0    0  0.52849773919E+02  0.10204086246E+03  0.28587895961E+02  0.11841749875E+03  0.00000000000E+00 0.  1.
</event>
<event>
12    1  0.8563264E-002  0.1781468E+03  0.7818608E-02  0.1169981E+00
         21   -1    0    0  503  502  0.00000000000E+00  0.00000000000E+00  0.39331288357E+03  0.39331288357E+03  0.00000000000E+00 0. -1.
         21   -1    0    0  501  503 -0.00000000000E+00 -0.00000000000E+00 -0.10548322428E+03  0.10548322428E+03  0.00000000000E+00 0. -1.
          6    2    1    2  501    0  0.17640911272E+02 -0.37927528325E+02  0.21812909770E+02  0.17947727966E+03  0.17316637008E+03 0.  0.
         24    2    3    3    0    0  0.72717595007E+02  0.35948101020E+01  0.94307137046E+00  0.10726103609E+03  0.78760835427E+02 0.  0.
         -6    2    1    2    0  502 -0.17640911272E+02  0.37927528325E+02  0.26601674952E+03  0.31931882819E+03  0.17160974289E+03 0.  0.
        -24    2    5    5    0    0  0.11947166417E+02  0.86601428339E+02  0.15674106349E+03  0.19599864152E+03  0.78772865348E+02 0.  0.
          5    1    3    3  501    0 -0.55076683735E+02 -0.41522338427E+02  0.20869838400E+02  0.72216243565E+02  0.47000000000E+01 0. -1.
        -13    1    4    4    0    0 -0.16313078713E+02 -0.62740108994E+01 -0.22862499051E+01  0.17626874042E+02  0.00000000000E+00 0.  1.
         14    1    4    4    0    0  0.89030673720E+02  0.98688210013E+01  0.32293212756E+01  0.89634162053E+02  0.00000000000E+00 0. -1.
         -5    1    5    5    0  502 -0.29588077689E+02 -0.48673900014E+02  0.10927568603E+03  0.12332018667E+03  0.47000000000E+01 0.  1.
         13    1    6    6    0    0 -0.19659127427E+02  0.62445884140E+02  0.50892262344E+02  0.82921602153E+02  0.00000000000E+00 0. -1.
        -14    1    6    6    0    0  0.31606293843E+02  0.24155544199E+02  0.10584880115E+03  0.11307703936E+03  0.00000000000E+00 0.  1.
</event>
<event>
12    1  0.8563264E-002  0.2084266E+03  0.7818608E-02  0.1143267E+00
         21   -1    0    0  503  502  0.00000000000E+00  0.00000000000E+00  0.31652276785E+04  0.31652276785E+04  0.00000000000E+00 0. -1.
         21   -1    0    0  501  503 -0.00000000000E+00 -0.00000000000E+00 -0.26034773988E+02  0.26034773988E+02  0.00000000000E+00 0.  1.
          6    2    1    2  501    0  0.94582825696E+01  0.11646874199E+03  0.47029379110E+03  0.51441024927E+03  0.17258976688E+03 0.  0.
         24    2    3    3    0    0 -0.10878839298E+01  0.66877031022E+02  0.44592164815E+03  0.45795982166E+03  0.80045994267E+02 0.  0.
         -6    2    1    2    0  502 -0.94582825696E+01 -0.11646874199E+03  0.26688991134E+04  0.26768522032E+04  0.16988470606E+03 0.  0.
        -24    2    5    5    0    0  0.37595658265E+02 -0.13531031199E+02  0.14308443416E+04  0.14336257743E+04  0.79817344119E+02 0.  0.
          5    1    3    3  501    0  0.10546166499E+02  0.49591710973E+02  0.24372142956E+02  0.56450427610E+02  0.47000000000E+01 0. -1.
        -13    1    4    4    0    0  0.15060209480E+02  0.51118421545E+02  0.12051239775E+03  0.13176927162E+03  0.00000000000E+00 0.  1.
         14    1    4    4    0    0 -0.16148093410E+02  0.15758609476E+02  0.32540925039E+03  0.32619055004E+03  0.00000000000E+00 0. -1.
         -5    1    5    5    0  502 -0.47053940835E+02 -0.10293771080E+03  0.12380547718E+04  0.12432264289E+04  0.47000000000E+01 0.  1.
         11    1    6    6    0    0  0.97996649606E+01 -0.21470684899E+02  0.12690378358E+04  0.12692572837E+04  0.00000000000E+00 0. -1.
        -12    1    6    6    0    0  0.27795993304E+02  0.79396537003E+01  0.16180650589E+03  0.16436849057E+03  0.00000000000E+00 0.  1.
</event>
<event>
12    1  0.8563264E-002  0.2189871E+03  0.7818608E-02  0.1134666E+00
         21   -1    0    0  503  502  0.00000000000E+00  0.00000000000E+00  0.18219187124E+04  0.18219187124E+04  0.00000000000E+00 0.  1.
         21   -1    0    0  501  503 -0.00000000000E+00 -0.00000000000E+00 -0.43660023970E+02  0.43660023970E+02  0.00000000000E+00 0.  1.
          6    2    1    2  501    0 -0.41990321318E+02  0.12797648759E+03  0.30119313170E+03  0.37238779098E+03  0.17266787723E+03 0.  0.
         24    2    3    3    0    0  0.15269758630E+02  0.87913945639E+02  0.26999116852E+03  0.29571069838E+03  0.81163776963E+02 0.  0.
         -6    2    1    2    0  502  0.41990321318E+02 -0.12797648759E+03  0.14770655567E+04  0.14931909454E+04  0.17249745523E+03 0.  0.
        -24    2    5    5    0    0 -0.32918569930E+02 -0.57066969318E+02  0.99073076262E+03  0.99601580147E+03  0.78484148373E+02 0.  0.
          5    1    3    3  501    0 -0.57260079948E+02  0.40062541948E+02  0.31201963176E+02  0.76677092596E+02  0.47000000000E+01 0. -1.
        -11    1    4    4    0    0 -0.84597473669E+01  0.51002756725E+02  0.51926809380E+02  0.73275112087E+02  0.00000000000E+00 0.  1.
         12    1    4    4    0    0  0.23729505997E+02  0.36911188914E+02  0.21806435914E+03  0.22243558630E+03  0.00000000000E+00 0. -1.
         -5    1    5    5    0  502  0.74908891247E+02 -0.70909518269E+02  0.48633479410E+03  0.49717514391E+03  0.47000000000E+01 0.  1.
         11    1    6    6    0    0 -0.14265719958E+02 -0.29928317313E+01  0.67423608848E+03  0.67439363195E+03  0.00000000000E+00 0. -1.
        -12    1    6    6    0    0 -0.18652849972E+02 -0.54074137586E+02  0.31649467413E+03  0.32162216951E+03  0.00000000000E+00 0.  1.
</event>
<event>
12    1  0.8563264E-002  0.2107594E+03  0.7818608E-02  0.1141091E+00
         21   -1    0    0  501  502  0.00000000000E+00  0.00000000000E+00  0.41291670786E+03  0.41291670786E+03  0.00000000000E+00 0. -1.
         21   -1    0    0  502  503 -0.00000000000E+00 -0.00000000000E+00 -0.13215301210E+03  0.13215301210E+03  0.00000000000E+00 0. -1.
         -6    2    1    2    0  503 -0.52305441161E+02  0.10682296151E+03  0.22253702706E+02  0.21193095822E+03  0.17398994077E+03 0.  0.
        -24    2    3    3    0    0 -0.91914358492E+02  0.11291686541E+03  0.36359714925E+02  0.16918670039E+03  0.78125814741E+02 0.  0.
          6    2    1    2  501    0  0.52305441161E+02 -0.10682296151E+03  0.25850999305E+03  0.33313876174E+03  0.17322532663E+03 0.  0.
         24    2    5    5    0    0  0.46347126729E+01 -0.13110906096E+03  0.16185200156E+03  0.22256222580E+03  0.78273926171E+02 0.  0.
          5    1    5    5  501    0  0.47670728488E+02  0.24286099451E+02  0.96657991488E+02  0.11057653594E+03  0.47000000000E+01 0. -1.
        -13    1    6    6    0    0 -0.78674490540E+01 -0.36233825604E+02  0.31119773054E+01  0.37208483915E+02  0.00000000000E+00 0.  1.
         14    1    6    6    0    0  0.12502161727E+02 -0.94875235355E+02  0.15874002425E+03  0.18535374189E+03  0.00000000000E+00 0. -1.
         -5    1    3    3    0  503  0.39608917331E+02 -0.60939039036E+01 -0.14106012218E+02  0.42744257832E+02  0.47000000000E+01 0.  1.
         11    1    4    4    0    0 -0.74310105402E+02  0.51726428159E+02  0.50910944729E+02  0.10387270781E+03  0.00000000000E+00 0. -1.
        -12    1    4    4    0    0 -0.17604253090E+02  0.61190437252E+02 -0.14551229805E+02  0.65313992580E+02  0.00000000000E+00 0.  1.
</event>
<event>
12    1  0.8563264E-002  0.2247986E+03  0.7818608E-02  0.1130571E+00
         21   -1    0    0  501  502  0.00000000000E+00  0.00000000000E+00  0.17384463105E+04  0.17384463105E+04  0.00000000000E+00 0. -1.
         21   -1    0    0  502  503 -0.00000000000E+00 -0.00000000000E+00 -0.35282530130E+02  0.35282530130E+02  0.00000000000E+00 0.  1.
         -6    2    1    2    0  503  0.39132610072E+02 -0.13743856831E+03  0.47668289884E+03  0.52703036954E+03  0.17353300305E+03 0.  0.
        -24    2    3    3    0    0  0.15180782305E+02 -0.34659002745E+02  0.88929499659E+02  0.12514466723E+03  0.79504900499E+02 0.  0.
          6    2    1    2  501    0 -0.39132610072E+02  0.13743856831E+03  0.12264808815E+04  0.12466984711E+04  0.17199128993E+03 0.  0.
         24    2    5    5    0    0 -0.18966714363E+01  0.15788974985E+03  0.88728560366E+03  0.90482087240E+03  0.80574798763E+02 0.  0.
          5    1    5    5  501    0 -0.37235938635E+02 -0.20451181542E+02  0.33919527787E+03  0.34187759869E+03  0.47000000000E+01 0. -1.
        -13    1    6    6    0    0 -0.32699765030E+02  0.72385423983E+02  0.29084890684E+03  0.30149960339E+03  0.00000000000E+00 0.  1.
         14    1    6    6    0    0  0.30803093593E+02  0.85504325871E+02  0.59643669682E+03  0.60332126900E+03  0.00000000000E+00 0. -1.
         -5    1    3    3    0  503  0.23951827767E+02 -0.10277956557E+03  0.38775339918E+03  0.40188570231E+03  0.47000000000E+01 0.  1.
         11    1    4    4    0    0 -0.12815572254E+02 -0.10502065752E+02  0.86515927660E+02  0.88088239942E+02  0.00000000000E+00 0. -1.
        -12    1    4    4    0    0  0.27996354559E+02 -0.24156936992E+02  0.24135719994E+01  0.37056427286E+02  0.00000000000E+00 0.  1.
</event>
<event>
12    1  0.8563264E-002  0.2014864E+03  0.7818608E-02  0.1148705E+00
         21   -1    0    0  501  502  0.00000000000E+00  0.00000000000E+00  0.45525923541E+03  0.45525923541E+03  0.00000000000E+00 0. -1.
         21   -1    0    0  502  503 -0.00000000000E+00 -0.00000000000E+00 -0.92173045478E+02  0.92173045478E+02  0.00000000000E+00 0. -1.
         -6    2    1    2    0  503 -0.39206080756E+02  0.95357745058E+02  0.12901289836E+03  0.23925112025E+03  0.17310850437E+03 0.  0.
        -24    2    3    3    0    0  0.13636743136E+02  0.70259637010E+02  0.10626575493E+02  0.10711599810E+03  0.78984400899E+02 0.  0.
          6    2    1    2  501    0  0.39206080756E+02 -0.95357745058E+02  0.23407329157E+03  0.30818116064E+03  0.17191598423E+03 0.  0.
         24    2    5    5    0    0 -0.21969163822E+01 -0.30095812362E+01  0.13641295692E+03  0.16746150140E+03  0.97061710335E+02 0.  0.
          5    1    5    5  501    0  0.41402997138E+02 -0.92348163822E+02  0.97660334650E+02  0.14071965924E+03  0.47000000000E+01 0. -1.
        -11    1    6    6    0    0 -0.51330690679E+01 -0.24174136245E+02 -0.43439986180E+01  0.25091982489E+02  0.00000000000E+00 0.  1.
         12    1    6    6    0    0  0.29361526858E+01  0.21164555008E+02  0.14075695554E+03  0.14236951891E+03  0.00000000000E+00 0. -1.
         -5    1    3    3    0  503 -0.52842823891E+02  0.25098108048E+02  0.11838632287E+03  0.13213512215E+03  0.47000000000E+01 0.  1.
         11    1    4    4    0    0 -0.30999032602E+02  0.46872962912E+02  0.55804389821E+01  0.56472612598E+02  0.00000000000E+00 0. -1.
        -12    1    4    4    0    0  0.44635775738E+02  0.23386674098E+02  0.50461365108E+01  0.50643385498E+02  0.00000000000E+00 0.  1.
</event>
<event>
12    1  0.8563264E-002  0.2370482E+03  0.7818608E-02  0.1121863E+00
         21   -1    0    0  503  502  0.00000000000E+00  0.00000000000E+00  0.19486525498E+03  0.19486525498E+03  0.00000000000E+00 0.  1.
         21   -1    0    0  501  503 -0.00000000000E+00 -0.00000000000E+00 -0.57546724857E+03  0.57546724857E+03  0.00000000000E+00 0.  1.
          6    2    1    2  501    0  0.12595530294E+03  0.10146054198E+03 -0.46275937514E+03  0.51994046548E+03  0.17329993782E+03 0.  0.
         24    2    3    3    0    0  0.38848831529E+02  0.46801210864E+02 -0.36290483798E+03  0.37652429334E+03  0.79818775972E+02 0.  0.
         -6    2    1    2    0  502 -0.12595530294E+03 -0.10146054198E+03  0.82157381540E+02  0.25039203807E+03  0.17259014302E+03 0.  0.
        -24    2    5    5    0    0 -0.14593431863E+03 -0.95968895414E+02  0.30779643391E+02  0.19479454507E+03  0.80564719948E+02 0.  0.
          5    1    3    3  501    0  0.87106471415E+02  0.54659331116E+02 -0.99854537156E+02  0.14341617214E+03  0.47000000000E+01 0. -1.
        -11    1    4    4    0    0  0.41216775567E+02  0.54452985789E+02 -0.16657395016E+03  0.18003008394E+03  0.00000000000E+00 0.  1.
         12    1    4    4    0    0 -0.23679440385E+01 -0.76517749246E+01 -0.19633088782E+03  0.19649420941E+03  0.00000000000E+00 0. -1.
         -5    1    5    5    0  502  0.19979015690E+02 -0.54916465663E+01  0.51377738150E+02  0.55597492995E+02  0.47000000000E+01 0.  1.
         11    1    6    6    0    0 -0.38178595561E+02 -0.47834277197E+01 -0.21724638649E+02  0.44186494138E+02  0.00000000000E+00 0. -1.
        -12    1    6    6    0    0 -0.10775572307E+03 -0.91185467695E+02  0.52504282040E+02  0.15060805093E+03  0.00000000000E+00 0.  1.
</event>
<event>
12    1  0.8563264E-002  0.4388695E+03  0.7818608E-02  0.1031165E+00
         21   -1    0    0  501  502  0.00000000000E+00  0.00000000000E+00  0.41330802533E+03  0.41330802533E+03  0.00000000000E+00 0.  1.
         21   -1    0    0  502  503 -0.00000000000E+00 -0.00000000000E+00 -0.49361584708E+03  0.49361584708E+03  0.00000000000E+00 0. -1.
         -6    2    1    2    0  503 -0.40308799909E+03 -0.67057742812E+01  0.69001013679E+02  0.44335130014E+03  0.17109743724E+03 0.  0.
        -24    2    3    3    0    0 -0.28079497065E+03 -0.27209285873E+02 -0.14559447862E+02  0.29375043274E+03  0.80567849894E+02 0.  0.
          6    2    1    2  501    0  0.40308799909E+03  0.67057742812E+01 -0.14930883543E+03  0.46357257227E+03  0.17344018856E+03 0.  0.
         24    2    5    5    0    0  0.31115959899E+03 -0.53254874391E+02 -0.90112868464E+02  0.33878329934E+03  0.83650565805E+02 0.  0.
          5    1    5    5  501    0  0.91928400101E+02  0.59960648672E+02 -0.59195966965E+02  0.12478927293E+03  0.47000000000E+01 0. -1.
        -13    1    6    6    0    0  0.12760494346E+03  0.35186382125E+01 -0.70034114804E+02  0.14560281469E+03  0.00000000000E+00 0.  1.
         14    1    6    6    0    0  0.18355465553E+03 -0.56773512603E+02 -0.20078753660E+02  0.19318048465E+03  0.00000000000E+00 0. -1.
         -5    1    3    3    0  503 -0.12229302844E+03  0.20503511592E+02  0.83560461540E+02  0.14960086740E+03  0.47000000000E+01 0.  1.
         11    1    4    4    0    0 -0.15633274180E+03  0.18289557237E+02  0.14559838710E+02  0.15807094282E+03  0.00000000000E+00 0. -1.
        -12    1    4    4    0    0 -0.12446222885E+03 -0.45498843110E+02 -0.29119286571E+02  0.13567948992E+03  0.00000000000E+00 0.  1.
</event>
<event>
12    1  0.8563264E-002  0.1959097E+03  0.7818608E-02  0.1153573E+00
         21   -1    0    0  503  502  0.00000000000E+00  0.00000000000E+00  0.11269583551E+03  0.11269583551E+03  0.00000000000E+00 0. -1.
         21   -1    0    0  501  503 -0.00000000000E+00 -0.00000000000E+00 -0.12991890332E+04  0.12991890332E+04  0.00000000000E+00 0.  1.
          6    2    1    2  501    0  0.86702290688E+02 -0.37836854798E+02 -0.12011025310E+04  0.12169748974E+04  0.17155668508E+03 0.  0.
         24    2    3    3    0    0  0.63544553508E+02 -0.90256236361E+02 -0.76562416586E+03  0.77771692213E+03  0.80493162048E+02 0.  0.
         -6    2    1    2    0  502 -0.86702290688E+02  0.37836854798E+02  0.14609333255E+02  0.19490997135E+03  0.16978677664E+03 0.  0.
        -24    2    5    5    0    0 -0.95229011065E+02  0.46498525637E+02  0.61329530587E+02  0.14640640096E+03  0.80267337591E+02 0.  0.
          5    1    3    3  501    0  0.23157737180E+02  0.52419381563E+02 -0.43547836513E+03  0.43925797528E+03  0.47000000000E+01 0. -1.
        -11    1    4    4    0    0  0.78497271744E+02 -0.76041355296E+02 -0.52760550806E+03  0.53880579202E+03  0.00000000000E+00 0.  1.
         12    1    4    4    0    0 -0.14952718236E+02 -0.14214881065E+02 -0.23801865780E+03  0.23891113010E+03  0.00000000000E+00 0. -1.
         -5    1    5    5    0  502  0.85267203773E+01 -0.86616708389E+01 -0.46720197331E+02  0.48503570392E+02  0.47000000000E+01 0.  1.
         11    1    6    6    0    0  0.13378759721E+02  0.71644318046E+01  0.16720279116E+02  0.22580700354E+02  0.00000000000E+00 0. -1.
        -12    1    6    6    0    0 -0.10860777079E+03  0.39334093833E+02  0.44609251471E+02  0.12382570060E+03  0.00000000000E+00 0.  1.
</event>
<event>
12    1  0.8563264E-002  0.1850561E+03  0.7818608E-02  0.1166469E+00
         21   -1    0    0  503  502  0.00000000000E+00  0.00000000000E+00  0.14638433352E+03  0.14638433352E+03  0.00000000000E+00 0. -1.
         21   -1    0    0  501  503 -0.00000000000E+00 -0.00000000000E+00 -0.32372694853E+03  0.32372694853E+03  0.00000000000E+00 0. -1.
          6    2    1    2  501    0 -0.51644880117E+01  0.10033118278E+01 -0.22164753491E+03  0.27982552324E+03  0.17072496933E+03 0.  0.
         24    2    3    3    0    0 -0.10553604083E+02 -0.44289975423E+02 -0.21390977283E+03  0.23332297058E+03  0.81297215237E+02 0.  0.
         -6    2    1    2    0  502  0.51644880117E+01 -0.10033118278E+01  0.44304919901E+02  0.19028575881E+03  0.18498125717E+03 0.  0.
        -24    2    5    5    0    0  0.67898184183E+01 -0.16785300012E+01  0.10343999113E+03  0.13093810285E+03  0.79975220645E+02 0.  0.
          5    1    3    3  501    0  0.53891160718E+01  0.45293287251E+02 -0.77377620806E+01  0.46502552662E+02  0.47000000000E+01 0. -1.
        -13    1    4    4    0    0  0.27413650083E+01 -0.48868337536E+02 -0.54333436853E+02  0.73128324580E+02  0.00000000000E+00 0.  1.
         14    1    4    4    0    0 -0.13294969092E+02  0.45783621126E+01 -0.15957633598E+03  0.16019464600E+03  0.00000000000E+00 0. -1.
         -5    1    5    5    0  502 -0.16253304066E+01  0.67521817337E+00 -0.59135071224E+02  0.59347655954E+02  0.47000000000E+01 0.  1.
         11    1    6    6    0    0 -0.76306379839E+01  0.22662437371E+02  0.99547970848E+02  0.10237974020E+03  0.00000000000E+00 0. -1.
        -12    1    6    6    0    0  0.14420456402E+02 -0.24340967372E+02  0.38920202772E+01  0.28558362651E+02  0.00000000000E+00 0.  1.
</event>
<event>
12    1  0.8563264E-002  0.2336837E+03  0.7818608E-02  0.1124346E+00
         21   -1    0    0  503  502  0.00000000000E+00  0.00000000000E+00  0.17229947756E+04  0.17229947756E+04  0.00000000000E+00 0. -1.
         21   -1    0    0  501  503 -0.00000000000E+00 -0.00000000000E+00 -0.32053650688E+02  0.32053650688E+02  0.00000000000E+00 0. -1.
          6    2    1    2  501    0 -0.15312373316E+03 -0.28898522417E+02  0.72535783973E+03  0.76159025154E+03  0.17202823411E+03 0.  0.
         24    2    3    3    0    0 -0.74295451986E+02  0.30694343174E+02  0.53869256149E+03  0.55032921954E+03  0.78807469108E+02 0.  0.
         -6    2    1    2    0  502  0.15312373316E+03  0.28898522417E+02  0.96558328521E+03  0.99345817478E+03  0.17414379718E+03 0.  0.
        -24    2    5    5    0    0  0.33775488239E+02  0.55070573218E+02  0.29870182848E+03  0.31545968868E+03  0.78220721093E+02 0.  0.
          5    1    3    3  501    0 -0.78828281171E+02 -0.59592865591E+02  0.18666527824E+03  0.21126103200E+03  0.47000000000E+01 0. -1.
        -13    1    4    4    0    0 -0.33891227999E+02  0.45366850472E+02  0.17100285595E+03  0.18013534689E+03  0.00000000000E+00 0.  1.
         14    1    4    4    0    0 -0.40404223987E+02 -0.14672507298E+02  0.36768970554E+03  0.37019387264E+03  0.00000000000E+00 0. -1.
         -5    1    5    5    0  502  0.11934824492E+03 -0.26172050801E+02  0.66688145673E+03  0.67799848609E+03  0.47000000000E+01 0.  1.
         13    1    6    6    0    0  0.88588701669E+01  0.39989497851E+02  0.27464935161E+03  0.27768670450E+03  0.00000000000E+00 0. -1.
        -14    1    6    6    0    0  0.24916618072E+02  0.15081075368E+02  0.24052476870E+02  0.37772984182E+02  0.00000000000E+00 0.  1.
</event>
<event>
12    1  0.8563264E-002  0.2239531E+03  0.7818608E-02  0.1131186E+00
         21   -1    0    0  501  502  0.00000000000E+00  0.00000000000E+00  0.65935920654E+03  0.65935920654E+03  0.00000000000E+00 0. -1.
         21   -1    0    0  502  503 -0.00000000000E+00 -0.00000000000E+00 -0.78671088199E+02  0.78671088199E+02  0.00000000000E+00 0. -1.
         -6    2    1    2    0  503  0.34969305889E+02 -0.13827599708E+03  0.21746858343E+03  0.31131797631E+03  0.17112332943E+03 0.  0.
        -24    2    3    3    0    0  0.55925327158E+02 -0.12495434120E+03  0.23354142624E+03  0.28136722308E+03  0.76711712606E+02 0.  0.
          6    2    1    2  501    0 -0.34969305889E+02  0.13827599708E+03  0.36321953492E+03  0.42671231843E+03  0.17266113758E+03 0.  0.
         24    2    5    5    0    0 -0.40308468065E+01  0.15508662608E+03  0.34516333152E+03  0.38686383064E+03  0.80360367807E+02 0.  0.
          5    1    5    5  501    0 -0.30938459083E+02 -0.16810629005E+02  0.18056203392E+02  0.39848487786E+02  0.47000000000E+01 0. -1.
        -13    1    6    6    0    0  0.92779550899E+01  0.81713924119E+01  0.99849808447E+02  0.10061230716E+03  0.00000000000E+00 0.  1.
         14    1    6    6    0    0 -0.13308801896E+02  0.14691523367E+03  0.24531352308E+03  0.28625152348E+03  0.00000000000E+00 0. -1.
         -5    1    3    3    0  503 -0.20956021269E+02 -0.13321655875E+02 -0.16072842818E+02  0.29950753228E+02  0.47000000000E+01 0.  1.
         11    1    4    4    0    0 -0.91211360382E+01 -0.54218529006E+02  0.50593437740E+02  0.74716396812E+02  0.00000000000E+00 0. -1.
        -12    1    4    4    0    0  0.65046463196E+02 -0.70735812197E+02  0.18294798850E+03  0.20665082627E+03  0.00000000000E+00 0.  1.
</event>
<event>
12    1  0.8563264E-002  0.1896114E+03  0.7818608E-02  0.1159127E+00
         21   -1    0    0  503  502  0.00000000000E+00  0.00000000000E+00  0.17317465954E+03  0.17317465954E+03  0.00000000000E+00 0.  1.
         21   -1    0    0  501  503 -0.00000000000E+00 -0.00000000000E+00 -0.57850905322E+03  0.57850905322E+03  0.00000000000E+00 0.  1.
          6    2    1    2  501    0  0.71466642379E+02  0.32151328400E+02 -0.50395445826E+03  0.53795869099E+03  0.17113815564E+03 0.  0.
         24    2    3    3    0    0 -0.86351642246E+01  0.43387964306E+01 -0.12655343607E+03  0.15112092408E+03  0.82026643829E+02 0.  0.
         -6    2    1    2    0  502 -0.71466642379E+02 -0.32151328400E+02  0.98620064584E+02  0.21372502177E+03  0.17265943039E+03 0.  0.
        -24    2    5    5    0    0  0.15358051567E+02  0.24926966549E+02  0.49287072452E+02  0.98606416212E+02  0.80229585553E+02 0.  0.
          5    1    3    3  501    0  0.80101806604E+02  0.27812531970E+02 -0.37740102219E+03  0.38683776690E+03  0.47000000000E+01 0. -1.
        -11    1    4    4    0    0  0.10727613560E+02  0.39166254663E+02 -0.80920887052E+02  0.90538760530E+02  0.00000000000E+00 0.  1.
         12    1    4    4    0    0 -0.19362777784E+02 -0.34827458232E+02 -0.45632549020E+02  0.60582163551E+02  0.00000000000E+00 0. -1.
         -5    1    5    5    0  502 -0.86824693946E+02 -0.57078294949E+02  0.49332992132E+02  0.11511860556E+03  0.47000000000E+01 0.  1.
         13    1    6    6    0    0 -0.14953763064E+01 -0.18727228160E+02 -0.11398558326E+02  0.21974356800E+02  0.00000000000E+00 0. -1.
        -14    1    6    6    0    0  0.16853427873E+02  0.43654194709E+02  0.60685630778E+02  0.76632059412E+02  0.00000000000E+00 0.  1.
</event>
<event>
12    1  0.8563264E-002  0.2143879E+03  0.7818608E-02  0.1138271E+00
         21   -1    0    0  501  502  0.00000000000E+00  0.00000000000E+00  0.36134646285E+03  0.36134646285E+03  0.00000000000E+00 0. -1.
         21   -1    0    0  502  503 -0.00000000000E+00 -0.00000000000E+00 -0.12816623195E+03  0.12816623195E+03  0.00000000000E+00 0. -1.
         -6    2    1    2    0  503 -0.11613446648E+03 -0.51465218130E+02  0.91390410378E+02  0.23305442777E+03  0.17270285526E+03 0.  0.
        -24    2    3    3    0    0 -0.90558756620E+02  0.32279132586E+02  0.59402766663E+02  0.13971347984E+03  0.82148262059E+02 0.  0.
          6    2    1    2  501    0  0.11613446648E+03  0.51465218130E+02  0.14178982052E+03  0.25645826702E+03  0.17184471635E+03 0.  0.
         24    2    5    5    0    0  0.10664006520E+03  0.70357934756E+02  0.44061016685E+02  0.15635787993E+03  0.78638864022E+02 0.  0.
          5    1    5    5  501    0  0.94944012816E+01 -0.18892716626E+02  0.97728803833E+02  0.10010038709E+03  0.47000000000E+01 0. -1.
        -13    1    6    6    0    0  0.43921266441E+02 -0.50744072139E+01 -0.85616994134E+01  0.45034763807E+02  0.00000000000E+00 0.  1.
         14    1    6    6    0    0  0.62718798762E+02  0.75432341970E+02  0.52622716099E+02  0.11132311612E+03  0.00000000000E+00 0. -1.
         -5    1    3    3    0  503 -0.25575709865E+02 -0.83744350716E+02  0.31987643715E+02  0.93340947940E+02  0.47000000000E+01 0.  1.
         13    1    4    4    0    0 -0.41274075816E+02 -0.26992057108E+02  0.25190848053E+02  0.55377787126E+02  0.00000000000E+00 0. -1.
        -14    1    4    4    0    0 -0.49284680804E+02  0.59271189694E+02  0.34211918610E+02  0.84335692709E+02  0.00000000000E+00 0.  1.
</event>
<event>
12    1  0.8563264E-002  0.1948145E+03  0.7818608E-02  0.1154316E+00
         21   -1    0    0  503  502  0.00000000000E+00  0.00000000000E+00  0.14897712946E+04  0.14897712946E+04  0.00000000000E+00 0. -1.
         21   -1    0    0  501  503 -0.00000000000E+00 -0.00000000000E+00 -0.25457252269E+02  0.25457252269E+02  0.00000000000E+00 0.  1.
          6    2    1    2  501    0  0.53135852117E+02  0.74566902388E+02  0.76917603380E+03  0.79346357448E+03  0.17195648095E+03 0.  0.
         24    2    3    3    0    0 -0.19227698560E+02 -0.73140878269E+01  0.39706454869E+03  0.40561047422E+03  0.80227181824E+02 0.  0.
         -6    2    1    2    0  502 -0.53135852117E+02 -0.74566902388E+02  0.69513800853E+03  0.72176497239E+03  0.17130143827E+03 0.  0.
        -24    2    5    5    0    0  0.83180282973E+01  0.83348129009E+01  0.19821141894E+03  0.21421458153E+03  0.80383217419E+02 0.  0.
          5    1    3    3  501    0  0.72363550677E+02  0.81880990214E+02  0.37211148511E+03  0.38785310026E+03  0.47000000000E+01 0. -1.
        -13    1    4    4    0    0  0.14450254241E+02 -0.29934012055E+02  0.91226352363E+02  0.97093265940E+02  0.00000000000E+00 0.  1.
         14    1    4    4    0    0 -0.33677952801E+02  0.22619924228E+02  0.30583819632E+03  0.30851720828E+03  0.00000000000E+00 0. -1.
         -5    1    5    5    0  502 -0.61453880414E+02 -0.82901715288E+02  0.49692658959E+03  0.50755039086E+03  0.47000000000E+01 0.  1.
         11    1    6    6    0    0 -0.34447801226E+02  0.33773319754E+01  0.58006420650E+02  0.67548517506E+02  0.00000000000E+00 0. -1.
        -12    1    6    6    0    0  0.42765829524E+02  0.49574809255E+01  0.14020499829E+03  0.14666606403E+03  0.00000000000E+00 0.  1.
</event>
<event>
12    1  0.8563264E-002  0.1885311E+03  0.7818608E-02  0.1159928E+00
         21   -1    0    0  503  502  0.00000000000E+00  0.00000000000E+00  0.46903057703E+02  0.46903057703E+02  0.00000000000E+00 0.  1.
         21   -1    0    0  501  503 -0.00000000000E+00 -0.00000000000E+00 -0.10041742343E+04  0.10041742343E+04  0.00000000000E+00 0.  1.
          6    2    1    2  501    0  0.57575274190E+02 -0.51053348500E+02 -0.73962950495E+03  0.76313305432E+03  0.17146106674E+03 0.  0.
         24    2    3    3    0    0  0.82498991212E+02  0.12802602846E+02 -0.38282022151E+03  0.39976859687E+03  0.79332331685E+02 0.  0.
         -6    2    1    2    0  502 -0.57575274190E+02  0.51053348500E+02 -0.21764167163E+03  0.28794423767E+03  0.17211226042E+03 0.  0.
        -24    2    5    5    0    0  0.44704810964E+01  0.74946010046E+02 -0.17753355228E+03  0.21015422377E+03  0.83724225647E+02 0.  0.
          5    1    3    3  501    0 -0.24923717022E+02 -0.63855951346E+02 -0.35680928343E+03  0.36336445745E+03  0.47000000000E+01 0. -1.
        -13    1    4    4    0    0 -0.21121526550E+01 -0.19953019858E+02 -0.35342293748E+02  0.40640643667E+02  0.00000000000E+00 0.  1.
         14    1    4    4    0    0  0.84611143866E+02  0.32755622704E+02 -0.34747792777E+03  0.35912795320E+03  0.00000000000E+00 0. -1.
         -5    1    5    5    0  502 -0.62045755286E+02 -0.23892661545E+02 -0.40108119357E+02  0.77790013904E+02  0.47000000000E+01 0.  1.
         11    1    6    6    0    0  0.20753309553E+02  0.29040172105E+02 -0.15002994454E+03  0.15421742999E+03  0.00000000000E+00 0. -1.
        -12    1    6    6    0    0 -0.16282828457E+02  0.45905837941E+02 -0.27503607733E+02  0.55936793776E+02  0.00000000000E+00 0.  1.
</event>
<event>
12    1  0.8563264E-002  0.1896658E+03  0.7818608E-02  0.1159035E+00
         21   -1    0    0  503  502  0.00000000000E+00  0.00000000000E+00  0.11272804010E+03  0.11272804010E+03  0.00000000000E+00 0.  1.
         21   -1    0    0  501  503 -0.00000000000E+00 -0.00000000000E+00 -0.32303884635E+03  0.32303884635E+03  0.00000000000E+00 0.  1.
          6    2    1    2  501    0 -0.96503634650E+01 -0.78311968561E+02 -0.13437344147E+03  0.23146420005E+03  0.17115361578E+03 0.  0.
         24    2    3    3    0    0  0.37182709501E+02 -0.10155511032E+03 -0.96279069071E+02  0.16660395359E+03  0.82408882349E+02 0.  0.
         -6    2    1    2    0  502  0.96503634650E+01  0.78311968561E+02 -0.75937364786E+02  0.20430268640E+03  0.17247379617E+03 0.  0.
        -24    2    5    5    0    0 -0.40414423587E+02  0.97808526130E+02 -0.68933211343E+02  0.14991751540E+03  0.80769055827E+02 0.  0.
          5    1    3    3  501    0 -0.46833072966E+02  0.23243141764E+02 -0.38094372399E+02  0.64860246461E+02  0.47000000000E+01 0. -1.
        -13    1    4    4    0    0  0.40873416910E+02 -0.53870383587E+02 -0.10554646653E+02  0.68440156368E+02  0.00000000000E+00 0.  1.
         14    1    4    4    0    0 -0.36907074093E+01 -0.47684726738E+02 -0.85724422418E+02  0.98163797217E+02  0.00000000000E+00 0. -1.
         -5    1    5    5    0  502  0.50064787052E+02 -0.19496557569E+02 -0.70041534429E+01  0.54385171004E+02  0.47000000000E+01 0.  1.
         11    1    6    6    0    0 -0.73455505787E+01 -0.38956727620E+01 -0.37554396148E+02  0.38463827807E+02  0.00000000000E+00 0. -1.
        -12    1    6    6    0    0 -0.33068873009E+02  0.10170419889E+03 -0.31378815195E+02  0.11145368759E+03  0.00000000000E+00 0.  1.
</event>
<event>
12    1  0.8563264E-002  0.1821297E+03  0.7818608E-02  0.1166288E+00
         21   -1    0    0  503  502  0.00000000000E+00  0.00000000000E+00  0.52073846257E+03  0.52073846257E+03  0.00000000000E+00 0. -1.
         21   -1    0    0  501  503 -0.00000000000E+00 -0.00000000000E+00 -0.66248170913E+02  0.66248170913E+02  0.00000000000E+00 0. -1.
          6    2    1    2  501    0  0.50831970024E+01  0.60656120539E+02  0.16023206842E+03  0.24092433371E+03  0.16930804758E+03 0.  0.
         24    2    3    3    0    0  0.59159011967E+02  0.52724967199E+02  0.15576417842E+03  0.18588662847E+03  0.63337575752E+02 0.  0.
         -6    2    1    2    0  502 -0.50831970024E+01 -0.60656120539E+02  0.29425822324E+03  0.34606229977E+03  0.17165724432E+03 0.  0.
        -24    2    5    5    0    0 -0.31366209513E+02 -0.39586279377E+02  0.67837074541E+02  0.11710081495E+03  0.80992713040E+02 0.  0.
          5    1    3    3  501    0 -0.54075814965E+02  0.79311533401E+01  0.44678900001E+01  0.55037705244E+02  0.47000000000E+01 0. -1.
        -13    1    4    4    0    0  0.41990914988E+01 -0.13852050341E+02  0.30425662395E+02  0.33693212970E+02  0.00000000000E+00 0.  1.
         14    1    4    4    0    0  0.54959920469E+02  0.66577017540E+02  0.12533851602E+03  0.15219341550E+03  0.00000000000E+00 0. -1.
         -5    1    5    5    0  502  0.26283012511E+02 -0.21069841163E+02  0.22642114870E+03  0.22896148482E+03  0.47000000000E+01 0.  1.
         11    1    6    6    0    0 -0.12224909452E+02 -0.81685299503E+01  0.77646302648E+02  0.79026081818E+02  0.00000000000E+00 0. -1.
        -12    1    6    6    0    0 -0.19141300061E+02 -0.31417749427E+02 -0.98092281063E+01  0.38074733132E+02  0.00000000000E+00 0.  1.
</event>
<event>
12    1  0.8563264E-002  0.2135453E+03  0.7818608E-02  0.1138844E+00
         21   -1    0    0  501  502  0.00000000000E+00  0.00000000000E+00  0.42479967377E+03  0.42479967377E+03  0.00000000000E+00 0. -1.
         21   -1    0    0  502  503 -0.00000000000E+00 -0.00000000000E+00 -0.32905780864E+03  0.32905780864E+03  0.00000000000E+00 0.  1.
         -6    2    1    2    0  503  0.22405782047E+02  0.12407536547E+03 -0.26163507025E+03  0.33754045417E+03  0.17199980475E+03 0.  0.
        -24    2    3    3    0    0  0.18377267057E+02  0.12526061230E+03 -0.28027044130E+03  0.31786811833E+03  0.80378326963E+02 0.  0.
          6    2    1    2  501    0 -0.22405782047E+02 -0.12407536547E+03  0.35737693538E+03  0.41631702824E+03  0.17235103330E+03 0.  0.
         24    2    5    5    0    0  0.41488383521E+02 -0.90150191851E+02  0.29311480374E+03  0.31944033672E+03  0.79230660044E+02 0.  0.
          5    1    5    5  501    0 -0.63894165568E+02 -0.33925173620E+02  0.64262131639E+02  0.96876691529E+02  0.47000000000E+01 0. -1.
        -13    1    6    6    0    0  0.20588721160E+02 -0.56943123697E+02  0.68506100899E+02  0.91430304799E+02  0.00000000000E+00 0.  1.
         14    1    6    6    0    0  0.20899662362E+02 -0.33207068154E+02  0.22460870284E+03  0.22801003192E+03  0.00000000000E+00 0. -1.
         -5    1    3    3    0  503  0.40285149905E+01 -0.11852468295E+01  0.18635371055E+02  0.19672335841E+02  0.47000000000E+01 0.  1.
         13    1    4    4    0    0 -0.28021197024E+02  0.22826469864E+02 -0.87911311741E+02  0.95050691429E+02  0.00000000000E+00 0. -1.
        -14    1    4    4    0    0  0.46398464081E+02  0.10243414244E+03 -0.19235912956E+03  0.22281742690E+03  0.00000000000E+00 0.  1.
</event>
<event>
12    1  0.8563264E-002  0.1969636E+03  0.7818608E-02  0.1152438E+00
         21   -1    0    0  501  502  0.00000000000E+00  0.00000000000E+00  0.88744236675E+03  0.88744236675E+03  0.00000000000E+00 0.  1.
         21   -1    0    0  502  503 -0.00000000000E+00 -0.00000000000E+00 -0.43969083772E+02  0.43969083772E+02  0.00000000000E+00 0.  1.
         -6    2    1    2    0  503 -0.70053160318E+02 -0.65764852746E+02  0.37856269932E+03  0.42649907246E+03  0.17134549997E+03 0.  0.
        -24    2    3    3    0    0  0.20093182601E+02 -0.46710029507E+01  0.14614435654E+03  0.16979068208E+03  0.83935382998E+02 0.  0.
          6    2    1    2  501    0  0.70053160318E+02  0.65764852746E+02  0.46491058366E+03  0.50491237807E+03  0.17193660926E+03 0.  0.
         24    2    5    5    0    0 -0.22350246297E+02  0.65900326348E+02  0.24180996674E+03  0.26338725892E+03  0.77835734906E+02 0.  0.
          5    1    5    5  501    0  0.92403406615E+02 -0.13547360192E+00  0.22310061692E+03  0.24152511914E+03  0.47000000000E+01 0. -1.
        -13    1    6    6    0    0  0.23792985494E+02  0.13808012613E+02  0.31289479967E+02  0.41662920296E+02  0.00000000000E+00 0.  1.
         14    1    6    6    0    0 -0.46143231791E+02  0.52092313735E+02  0.21052048677E+03  0.22172433863E+03  0.00000000000E+00 0. -1.
         -5    1    3    3    0  503 -0.90146342919E+02 -0.61093849795E+02  0.23241834279E+03  0.25670839037E+03  0.47000000000E+01 0.  1.
         11    1    4    4    0    0 -0.16672797965E+02  0.76462965663E+00 -0.22243491108E+01  0.16837891182E+02  0.00000000000E+00 0. -1.
        -12    1    4    4    0    0  0.36765980566E+02 -0.54356326074E+01  0.14836870565E+03  0.15295279090E+03  0.00000000000E+00 0.  1.
</event>
<event>
12    1  0.8563264E-002  0.2649393E+03  0.7818608E-02  0.1104272E+00
         21   -1    0    0  501  502  0.00000000000E+00  0.00000000000E+00  0.13344311386E+03  0.13344311386E+03  0.00000000000E+00 0. -1.
         21   -1    0    0  502  503 -0.00000000000E+00 -0.00000000000E+00 -0.56020688824E+03  0.56020688824E+03  0.00000000000E+00 0.  1.
         -6    2    1    2    0  503 -0.18710875392E+03 -0.74287865758E+02 -0.30024944277E+03  0.40042798755E+03  0.17223377294E+03 0.  0.
        -24    2    3    3    0    0 -0.62763776652E+02 -0.49195906940E+02 -0.56374612384E+02  0.12549471808E+03  0.78811791153E+02 0.  0.
          6    2    1    2  501    0  0.18710875392E+03  0.74287865758E+02 -0.12651433160E+03  0.29322201455E+03  0.17159516579E+03 0.  0.
         24    2    5    5    0    0  0.14037060291E+03  0.10147845125E+02 -0.23982021124E+02  0.16347856886E+03  0.79644335748E+02 0.  0.
          5    1    5    5  501    0  0.46738151003E+02  0.64140020632E+02 -0.10253231048E+03  0.12974344568E+03  0.47000000000E+01 0. -1.
        -11    1    6    6    0    0  0.70457840102E+02  0.12730894396E+02 -0.51609551152E+02  0.88260572591E+02  0.00000000000E+00 0.  1.
         12    1    6    6    0    0  0.69912762812E+02 -0.25830492710E+01  0.27627530028E+02  0.75217996271E+02  0.00000000000E+00 0. -1.
         -5    1    3    3    0  503 -0.12434497727E+03 -0.25091958818E+02 -0.24387483039E+03  0.27493326948E+03  0.47000000000E+01 0.  1.
         13    1    4    4    0    0 -0.74950887981E+02 -0.55860277691E+02 -0.34616837211E+02  0.99681149929E+02  0.00000000000E+00 0. -1.
        -14    1    4    4    0    0  0.12187111329E+02  0.66643707509E+01 -0.21757775174E+02  0.25813568148E+02  0.00000000000E+00 0.  1.
</event>
<event>
12    1  0.8563264E-002  0.1811188E+03  0.7818608E-02  0.1168329E+00
         21   -1    0    0  503  502  0.00000000000E+00  0.00000000000E+00  0.48555662789E+03  0.48555662789E+03  0.00000000000E+00 0.  1.
         21   -1    0    0  501  503 -0.00000000000E+00 -0.00000000000E+00 -0.15809339658E+03  0.15809339658E+03  0.00000000000E+00 0.  1.
          6    2    1    2  501    0  0.32973705994E+01  0.56713792135E+02 -0.81784217276E+02  0.19872761429E+03  0.17197871849E+03 0.  0.
         24    2    3    3    0    0 -0.41294681243E+02  0.55517314557E+02  0.11667443285E+01  0.10442578675E+03  0.78204608122E+02 0.  0.
         -6    2    1    2    0  502 -0.32973705994E+01 -0.56713792135E+02  0.40924744858E+03  0.44492241017E+03  0.16506104941E+03 0.  0.
        -24    2    5    5    0    0  0.19487272385E+02 -0.16501301199E+02  0.93818520848E+02  0.12609066327E+03  0.80280095807E+02 0.  0.
          5    1    3    3  501    0  0.44592051842E+02  0.11964775778E+01 -0.82950961604E+02  0.94301827539E+02  0.47000000000E+01 0. -1.
        -11    1    4    4    0    0 -0.63809849657E+02  0.36252310978E+02  0.85563652122E+01  0.73885982095E+02  0.00000000000E+00 0.  1.
         12    1    4    4    0    0  0.22515168414E+02  0.19265003579E+02 -0.73896208837E+01  0.30539804656E+02  0.00000000000E+00 0. -1.
         -5    1    5    5    0  502 -0.22784642985E+02 -0.40212490935E+02  0.31542892774E+03  0.31883174691E+03  0.47000000000E+01 0.  1.
         13    1    6    6    0    0  0.26058901205E+02  0.28451133471E+02  0.47762097564E+02  0.61398300396E+02  0.00000000000E+00 0. -1.
        -14    1    6    6    0    0 -0.65716288198E+01 -0.44952434671E+02  0.46056423284E+02  0.64692362871E+02  0.00000000000E+00 0.  1.
</event>
<event>
12    1  0.8563264E-002  0.1977564E+03  0.7818608E-02  0.1151880E+00
         21   -1    0    0  501  502  0.00000000000E+00  0.00000000000E+00  0.44099606234E+03  0.44099606234E+03  0.00000000000E+00 0.  1.
         21   -1    0    0  502  503 -0.00000000000E+00 -0.00000000000E+00 -0.10231528894E+03  0.10231528894E+03  0.00000000000E+00 0.  1.
         -6    2    1    2    0  503  0.90131149247E+02 -0.38691311149E+02  0.26986751893E+03  0.33392444792E+03  0.17045943072E+03 0.  0.
        -24    2    3    3    0    0  0.42202485314E+02  0.26030938270E+02  0.20135921889E+03  0.22808681959E+03  0.94970536085E+02 0.  0.
          6    2    1    2  501    0 -0.90131149247E+02  0.38691311149E+02  0.68813254466E+02  0.20938690337E+03  0.17171770348E+03 0.  0.
         24    2    5    5    0    0  0.36028918543E+01 -0.67574203388E+01 -0.90881202387E+01  0.79224036787E+02  0.78327584643E+02 0.  0.
          5    1    5    5  501    0 -0.93734041101E+02  0.45448731488E+02  0.77901374705E+02  0.13016286658E+03  0.47000000000E+01 0. -1.
        -11    1    6    6    0    0 -0.26495414740E+01  0.33543712792E+02  0.86624033366E+01  0.34745330182E+02  0.00000000000E+00 0.  1.
         12    1    6    6    0    0  0.62524333283E+01 -0.40301133130E+02 -0.17750523575E+02  0.44478706606E+02  0.00000000000E+00 0. -1.
         -5    1    3    3    0  503  0.47928663933E+02 -0.64722249419E+02  0.68508300038E+02  0.10583762833E+03  0.47000000000E+01 0.  1.
         11    1    4    4    0    0 -0.16538907976E+02 -0.20116546247E+02  0.23110329019E+02  0.34818073142E+02  0.00000000000E+00 0. -1.
        -12    1    4    4    0    0  0.58741393290E+02  0.46147484517E+02  0.17824888987E+03  0.19326874645E+03  0.00000000000E+00 0.  1.
</event>
<event>
12    1  0.8563264E-002  0.2474918E+03  0.7818608E-02  0.1114965E+00
         21   -1    0    0  503  502  0.00000000000E+00  0.00000000000E+00  0.92463561028E+03  0.92463561028E+03  0.00000000000E+00 0. -1.
         21   -1    0    0  501  503 -0.00000000000E+00 -0.00000000000E+00 -0.67847168343E+02  0.67847168343E+02  0.00000000000E+00 0.  1.
          6    2    1    2  501    0 -0.17656836081E+03 -0.21335707401E+02  0.50685857881E+03  0.56387677601E+03  0.17152201363E+03 0.  0.
         24    2    3    3    0    0 -0.18867858910E+03 -0.15849915001E+02  0.34811224346E+03  0.40450538418E+03  0.81188927770E+02 0.  0.
         -6    2    1    2    0  502  0.17656836081E+03  0.21335707401E+02  0.34992986314E+03  0.42860600262E+03  0.17210635642E+03 0.  0.
        -24    2    5    5    0    0  0.75216520143E+02  0.73863334687E+02  0.20939500380E+03  0.24748868174E+03  0.79316220659E+02 0.  0.
          5    1    3    3  501    0  0.12110228289E+02 -0.54857924000E+01  0.15874633534E+03  0.15937139183E+03  0.47000000000E+01 0. -1.
        -11    1    4    4    0    0 -0.69359845364E+02  0.23087762356E+02  0.79405098129E+02  0.10793054493E+03  0.00000000000E+00 0.  1.
         12    1    4    4    0    0 -0.11931874373E+03 -0.38937677357E+02  0.26870714533E+03  0.29657483925E+03  0.00000000000E+00 0. -1.
         -5    1    5    5    0  502  0.10135184067E+03 -0.52527627285E+02  0.14053485934E+03  0.18111732088E+03  0.47000000000E+01 0.  1.
         13    1    6    6    0    0  0.10163832182E+02 -0.14906747428E+02  0.55005410684E+02  0.57888771001E+02  0.00000000000E+00 0. -1.
        -14    1    6    6    0    0  0.65052687961E+02  0.88770082115E+02  0.15438959311E+03  0.18959991074E+03  0.00000000000E+00 0.  1.
</event>
<event>
12    1  0.8563264E-002  0.2335931E+03  0.7818608E-02  0.1124193E+00
         21   -1    0    0  501  502  0.00000000000E+00  0.00000000000E+00  0.69499496782E+03  0.69499496782E+03  0.00000000000E+00 0. -1.
         21   -1    0    0  502  503 -0.00000000000E+00 -0.00000000000E+00 -0.83361014117E+02  0.83361014117E+02  0.00000000000E+00 0. -1.
         -6    2    1    2    0  503  0.10055285943E+03  0.12121782671E+03  0.21069396479E+03  0.31433161835E+03  0.17206911530E+03 0.  0.
        -24    2    3    3    0    0  0.32065396532E+02  0.12573287238E+03  0.77815446335E+02  0.16469970705E+03  0.65067695213E+02 0.  0.
          6    2    1    2  501    0 -0.10055285943E+03 -0.12121782671E+03  0.40093998891E+03  0.46402436359E+03  0.17251404652E+03 0.  0.
         24    2    5    5    0    0 -0.12240353605E+03 -0.57261652849E+02  0.33208157185E+03  0.36742510974E+03  0.80383570346E+02 0.  0.
          5    1    5    5  501    0  0.21850676622E+02 -0.63956173861E+02  0.68858417053E+02  0.96599253842E+02  0.47000000000E+01 0. -1.
        -13    1    6    6    0    0 -0.73109041751E+02 -0.50466248955E+02  0.11837316615E+03  0.14799993491E+03  0.00000000000E+00 0.  1.
         14    1    6    6    0    0 -0.49294494300E+02 -0.67954038944E+01  0.21370840570E+03  0.21942517483E+03  0.00000000000E+00 0. -1.
         -5    1    3    3    0  503  0.68487462897E+02 -0.45150456741E+01  0.13287851846E+03  0.14963191130E+03  0.47000000000E+01 0.  1.
         13    1    4    4    0    0 -0.17442853700E+02  0.50765897735E+02  0.17372524300E+02  0.56420157024E+02  0.00000000000E+00 0. -1.
        -14    1    4    4    0    0  0.49508250232E+02  0.74966974648E+02  0.60442922035E+02  0.10827955002E+03  0.00000000000E+00 0.  1.
</event>
<event>
12    1  0.8563264E-002  0.2577974E+03  0.7818608E-02  0.1108504E+00
         21   -1    0    0  501  502  0.00000000000E+00  0.00000000000E+00  0.61270514916E+03  0.61270514916E+03  0.00000000000E+00 0.  1.
         21   -1    0    0  502  503 -0.00000000000E+00 -0.00000000000E+00 -0.10858479435E+03  0.10858479435E+03  0.00000000000E+00 0. -1.
         -6    2    1    2    0  503  0.18823869652E+03 -0.37083865489E+02  0.23670192313E+03  0.34998186758E+03  0.17219316850E+03 0.  0.
        -24    2    3    3    0    0  0.18315464400E+03 -0.52348398361E+02  0.13998176066E+03  0.25182009609E+03  0.86789913293E+02 0.  0.
          6    2    1    2  501    0 -0.18823869652E+03  0.37083865489E+02  0.26741843169E+03  0.37130807593E+03  0.17189546153E+03 0.  0.
         24    2    5    5    0    0 -0.12994355652E+03  0.35370104703E+02  0.26999185981E+03  0.31274210581E+03  0.82314325557E+02 0.  0.
          5    1    5    5  501    0 -0.58295140002E+02  0.17137607857E+01 -0.25734281235E+01  0.58565970121E+02  0.47000000000E+01 0. -1.
        -11    1    6    6    0    0  0.10597199451E+02  0.37569477439E+01  0.81363934707E+01  0.13878623536E+02  0.00000000000E+00 0.  1.
         12    1    6    6    0    0 -0.14054075597E+03  0.31613156959E+02  0.26185546634E+03  0.29886348227E+03  0.00000000000E+00 0. -1.
         -5    1    3    3    0  503  0.50840525214E+01  0.15264532872E+02  0.96720162470E+02  0.98161771490E+02  0.47000000000E+01 0.  1.
         13    1    4    4    0    0  0.27763687902E+02  0.21557411945E+02  0.11191093536E+02  0.36888818770E+02  0.00000000000E+00 0. -1.
        -14    1    4    4    0    0  0.15539095610E+03 -0.73905810306E+02  0.12879066712E+03  0.21493127732E+03  0.00000000000E+00 0.  1.
</event>
<event>
12    1  0.8563264E-002  0.2704941E+03  0.7818608E-02  0.1101026E+00
         21   -1    0    0  501  502  0.00000000000E+00  0.00000000000E+00  0.41590056606E+04  0.41590056606E+04  0.00000000000E+00 0. -1.
         21   -1    0    0  502  503 -0.00000000000E+00 -0.00000000000E+00 -0.19770549996E+02  0.19770549996E+02  0.00000000000E+00 0. -1.
         -6    2    1    2    0  503  0.20193626181E+03  0.53806459729E+02  0.13747285447E+04  0.14010873023E+04  0.17173720679E+03 0.  0.
        -24    2    3    3    0    0  0.16366943000E+03  0.31397438767E+02  0.67268790527E+03  0.69763178558E+03  0.80047541343E+02 0.  0.
          6    2    1    2  501    0 -0.20193626181E+03 -0.53806459729E+02  0.27645065659E+04  0.27776889083E+04  0.17142266252E+03 0.  0.
         24    2    5    5    0    0 -0.46428362119E+02 -0.55678827267E+02  0.14296874507E+04  0.14338323783E+04  0.81322555032E+02 0.  0.
          5    1    5    5  501    0 -0.15550789969E+03  0.18723675379E+01  0.13348191152E+04  0.13438565299E+04  0.47000000000E+01 0. -1.
        -13    1    6    6    0    0 -0.44054799529E+02 -0.68643711626E+02  0.13805667971E+04  0.13829741378E+04  0.00000000000E+00 0.  1.
         14    1    6    6    0    0 -0.23735625906E+01  0.12964884359E+02  0.49120653541E+02  0.50858240533E+02  0.00000000000E+00 0. -1.
         -5    1    3    3    0  503  0.38266831810E+02  0.22409020962E+02  0.70204063944E+03  0.70345551676E+03  0.47000000000E+01 0.  1.
         11    1    4    4    0    0  0.15514427175E+03  0.31202099051E+01  0.57571571753E+03  0.59626174469E+03  0.00000000000E+00 0. -1.
        -12    1    4    4    0    0  0.85251582556E+01  0.28277228862E+02  0.96972187738E+02  0.10137004089E+03  0.00000000000E+00 0.  1.
</event>
<event>
12    1  0.8563264E-002  0.2098291E+03  0.7818608E-02  0.1142205E+00
         21   -1    0    0  503  502  0.00000000000E+00  0.00000000000E+00  0.37509336338E+03  0.37509336338E+03  0.00000000000E+00 0.  1.
         21   -1    0    0  501  503 -0.00000000000E+00 -0.00000000000E+00 -0.18852907232E+03  0.18852907232E+03  0.00000000000E+00 0.  1.
          6    2    1    2  501    0  0.54329613319E+02 -0.10618342345E+03 -0.81891876147E+02  0.22289240724E+03  0.16955270428E+03 0.  0.
         24    2    3    3    0    0  0.99288643826E+02 -0.97848254099E+02 -0.79149931253E+02  0.17684463060E+03  0.74677949430E+02 0.  0.
         -6    2    1    2    0  502 -0.54329613319E+02  0.10618342345E+03  0.26845616721E+03  0.34073002846E+03  0.17263143480E+03 0.  0.
        -24    2    5    5    0    0 -0.82830702566E+02  0.46978487617E+02  0.99023252400E+02  0.15894130731E+03  0.79930163689E+02 0.  0.
          5    1    3    3  501    0 -0.44959030508E+02 -0.83351693493E+01 -0.27419448932E+01  0.46047776646E+02  0.47000000000E+01 0. -1.
        -13    1    4    4    0    0  0.44133221462E+02 -0.12075452850E+02 -0.55924581003E+02  0.72257294154E+02  0.00000000000E+00 0.  1.
         14    1    4    4    0    0  0.55155422365E+02 -0.85772801249E+02 -0.23225350251E+02  0.10458733644E+03  0.00000000000E+00 0. -1.
         -5    1    5    5    0  502  0.28501089247E+02  0.59204935831E+02  0.16943291481E+03  0.18178872114E+03  0.47000000000E+01 0.  1.
         11    1    6    6    0    0 -0.17902102920E+02 -0.11686209293E+02  0.58929420801E+02  0.62687553889E+02  0.00000000000E+00 0. -1.
        -12    1    6    6    0    0 -0.64928599645E+02  0.58664696910E+02  0.40093831599E+02  0.96253753421E+02  0.00000000000E+00 0.  1.
</event>
<event>
12    1  0.8563264E-002  0.2115343E+03  0.7818608E-02  0.1140366E+00
         21   -1    0    0  501  502  0.00000000000E+00  0.00000000000E+00  0.46522074922E+03  0.46522074922E+03  0.00000000000E+00 0.  1.
         21   -1    0    0  502  503 -0.00000000000E+00 -0.00000000000E+00 -0.10588297842E+03  0.10588297842E+03  0.00000000000E+00 0. -1.
         -6    2    1    2    0  503  0.32619929317E+02 -0.11896993542E+03  0.26620815531E+03  0.34001990665E+03  0.17183960439E+03 0.  0.
        -24    2    3    3    0    0  0.33618340190E+02 -0.11794790005E+03  0.10868009333E+03  0.18241526937E+03  0.80137805611E+02 0.  0.
          6    2    1    2  501    0 -0.32619929317E+02  0.11896993542E+03  0.93129615488E+02  0.23108382099E+03  0.17178097020E+03 0.  0.
         24    2    5    5    0    0 -0.51030745268E+02  0.55923145009E+02  0.11698702298E+03  0.16104724614E+03  0.80738570907E+02 0.  0.
          5    1    5    5  501    0  0.18410815950E+02  0.63046790408E+02 -0.23857407495E+02  0.70036574853E+02  0.47000000000E+01 0. -1.
        -13    1    6    6    0    0  0.18363774919E+02 -0.74862522682E+00  0.35325657352E+02  0.39820732494E+02  0.00000000000E+00 0.  1.
         14    1    6    6    0    0 -0.69394520187E+02  0.56671770236E+02  0.81661365631E+02  0.12122651364E+03  0.00000000000E+00 0. -1.
         -5    1    3    3    0  503 -0.99841087226E+00 -0.10220353673E+01  0.15752806198E+03  0.15760463728E+03  0.47000000000E+01 0.  1.
         13    1    4    4    0    0 -0.18660533439E+02 -0.14648653377E+02  0.14827745074E+00  0.23723839069E+02  0.00000000000E+00 0. -1.
        -14    1    4    4    0    0  0.52278873629E+02 -0.10329924667E+03  0.10853181588E+03  0.15869143030E+03  0.00000000000E+00 0.  1.
</event>
<event>
12    1  0.8563264E-002  0.2073318E+03  0.7818608E-02  0.1144496E+00
         21   -1    0    0  501  502  0.00000000000E+00  0.00000000000E+00  0.40899113995E+02  0.40899113995E+02  0.00000000000E+00 0.  1.
         21   -1    0    0  502  503 -0.00000000000E+00 -0.00000000000E+00 -0.11105225498E+04  0.11105225498E+04  0.00000000000E+00 0.  1.
         -6    2    1    2    0  503  0.67196929207E+02 -0.95165336882E+02 -0.68391642904E+03  0.71352169774E+03  0.16673230821E+03 0.  0.
        -24    2    3    3    0    0 -0.24842260445E+02 -0.45202295906E+02 -0.25435037057E+03  0.27134909967E+03  0.79220183192E+02 0.  0.
          6    2    1    2  501    0 -0.67196929207E+02  0.95165336882E+02 -0.38570700677E+03  0.43789996605E+03  0.17150689946E+03 0.  0.
         24    2    5    5    0    0 -0.23859093026E+02  0.26500946846E+02 -0.70022919991E+02  0.11190686928E+03  0.79676731629E+02 0.  0.
          5    1    5    5  501    0 -0.43337836181E+02  0.68664390036E+02 -0.31568408677E+03  0.32599309678E+03  0.47000000000E+01 0. -1.
        -11    1    6    6    0    0 -0.50206057077E+01  0.53113351046E+02 -0.52679739057E+02  0.74975925791E+02  0.00000000000E+00 0.  1.
         12    1    6    6    0    0 -0.18838487318E+02 -0.26612404200E+02 -0.17343180934E+02  0.36930943485E+02  0.00000000000E+00 0. -1.
         -5    1    3    3    0  503  0.92039189651E+02 -0.49963040975E+02 -0.42956605847E+03  0.44217259807E+03  0.47000000000E+01 0.  1.
         13    1    4    4    0    0  0.17044420786E+02  0.99954558252E+01 -0.10317963770E+03  0.10505455274E+03  0.00000000000E+00 0. -1.
        -14    1    4    4    0    0 -0.41886681230E+02 -0.55197751731E+02 -0.15117073287E+03  0.16629454693E+03  0.00000000000E+00 0.  1.
</event>
<event>
12    1  0.8563264E-002  0.1797056E+03  0.7818608E-02  0.1169006E+00
         21   -1    0    0  501  502  0.00000000000E+00  0.00000000000E+00  0.76039843444E+03  0.76039843444E+03  0.00000000000E+00 0.  1.
         21   -1    0    0  502  503 -0.00000000000E+00 -0.00000000000E+00 -0.49920370839E+02  0.49920370839E+02  0.00000000000E+00 0.  1.
         -6    2    1    2    0  503 -0.38235568450E+02 -0.96857287673E+00  0.19285650876E+03  0.26360523979E+03  0.17558813355E+03 0.  0.
        -24    2    3    3    0    0  0.36972291315E+02 -0.30737340432E+02  0.13257692236E+03  0.16261949708E+03  0.80973613407E+02 0.  0.
          6    2    1    2  501    0  0.38235568450E+02  0.96857287673E+00  0.51762155484E+03  0.54671356549E+03  0.17175782903E+03 0.  0.
         24    2    5    5    0    0  0.31754658976E+02 -0.64701901107E+02  0.35679520425E+03  0.37281181627E+03  0.80567600169E+02 0.  0.
          5    1    5    5  501    0  0.64809094744E+01  0.65670473984E+02  0.16082635058E+03  0.17390174922E+03  0.47000000000E+01 0. -1.
        -13    1    6    6    0    0  0.21627661929E+02 -0.50631448655E+02  0.34981855710E+03  0.35412472696E+03  0.00000000000E+00 0.  1.
         14    1    6    6    0    0  0.10126997046E+02 -0.14070452452E+02  0.69766471584E+01  0.18687089312E+02  0.00000000000E+00 0. -1.
         -5    1    3    3    0  503 -0.75207859765E+02  0.29768767555E+02  0.60279586409E+02  0.10098574271E+03  0.47000000000E+01 0.  1.
         11    1    4    4    0    0 -0.11498159546E+02 -0.37984886168E+02  0.87296786754E+02  0.95894672572E+02  0.00000000000E+00 0. -1.
        -12    1    4    4    0    0  0.48470450861E+02  0.72475457359E+01  0.45280135602E+02  0.66724824510E+02  0.00000000000E+00 0.  1.
</event>
<event>
12    1  0.8563264E-002  0.2083233E+03  0.7818608E-02  0.1143575E+00
         21   -1    0    0  503  502  0.00000000000E+00  0.00000000000E+00  0.85674168464E+02  0.85674168464E+02  0.00000000000E+00 0. -1.
         21   -1    0    0  501  503 -0.00000000000E+00 -0.00000000000E+00 -0.55354282235E+03  0.55354282235E+03  0.00000000000E+00 0.  1.
          6    2    1    2  501    0  0.11306425042E+03  0.27730028289E+02 -0.33304918446E+03  0.39107415208E+03  0.16871500811E+03 0.  0.
         24    2    3    3    0    0 -0.43232569258E+01 -0.12299109080E+02 -0.13265736310E+03  0.15536006513E+03  0.79804857099E+02 0.  0.
         -6    2    1    2    0  502 -0.11306425042E+03 -0.27730028289E+02 -0.13481946942E+03  0.24814283873E+03  0.17276023815E+03 0.  0.
        -24    2    5    5    0    0 -0.69228756007E+02  0.48796553326E+02 -0.55410632386E+02  0.12937532775E+03  0.80584818513E+02 0.  0.
          5    1    3    3  501    0  0.11738750735E+03  0.40029137369E+02 -0.20039182136E+03  0.23571408695E+03  0.47000000000E+01 0. -1.
        -13    1    4    4    0    0 -0.17287525593E+01 -0.42995968073E+02 -0.10679084675E+03  0.11513438585E+03  0.00000000000E+00 0.  1.
         14    1    4    4    0    0 -0.25945043665E+01  0.30696858994E+02 -0.25866516354E+02  0.40225679277E+02  0.00000000000E+00 0. -1.
         -5    1    5    5    0  502 -0.43835494417E+02 -0.76526581615E+02 -0.79408837034E+02  0.11876751098E+03  0.47000000000E+01 0.  1.
         11    1    6    6    0    0 -0.20998744439E+02 -0.11027778892E+02  0.12511149786E+02  0.26815817054E+02  0.00000000000E+00 0. -1.
        -12    1    6    6    0    0 -0.48230011568E+02  0.59824332217E+02 -0.67921782173E+02  0.10255951070E+03  0.00000000000E+00 0.  1.
</event>
<event>
12    1  0.8563264E-002  0.1900680E+03  0.7818608E-02  0.1158521E+00
         21   -1    0    0  501  502  0.00000000000E+00  0.00000000000E+00  0.26902799341E+03  0.26902799341E+03  0.00000000000E+00 0.  1.
         21   -1    0    0  502  503 -0.00000000000E+00 -0.00000000000E+00 -0.14290593922E+03  0.14290593922E+03  0.00000000000E+00 0. -1.
         -6    2    1    2    0  503  0.11697513976E+00 -0.78268782506E+02  0.11448403491E+02  0.19041250635E+03  0.17320462070E+03 0.  0.
        -24    2    3    3    0    0 -0.52519444729E+02 -0.31280440781E+01  0.15984519236E+02  0.98437566203E+02  0.81647858823E+02 0.  0.
          6    2    1    2  501    0 -0.11697513976E+00  0.78268782506E+02  0.11467365070E+03  0.22152142628E+03  0.17261425242E+03 0.  0.
         24    2    5    5    0    0 -0.40220815618E+02  0.40762469750E+02  0.43999082850E+01  0.98243570260E+02  0.79706630561E+02 0.  0.
          5    1    5    5  501    0  0.40103840479E+02  0.37506312756E+02  0.11027374242E+03  0.12327785602E+03  0.47000000000E+01 0. -1.
        -13    1    6    6    0    0 -0.17088896069E+02 -0.18891877821E+02  0.19999700370E+02  0.32387056541E+02  0.00000000000E+00 0.  1.
         14    1    6    6    0    0 -0.23131919549E+02  0.59654347571E+02 -0.15599792085E+02  0.65856513719E+02  0.00000000000E+00 0. -1.
         -5    1    3    3    0  503  0.52636419869E+02 -0.75140738428E+02 -0.45361157455E+01  0.91974940142E+02  0.47000000000E+01 0.  1.
         11    1    4    4    0    0  0.75147738974E+01 -0.10389946434E+02 -0.23110008395E+02  0.26429061687E+02  0.00000000000E+00 0. -1.
        -12    1    4    4    0    0 -0.60034218626E+02  0.72619023557E+01  0.39094527632E+02  0.72008504516E+02  0.00000000000E+00 0.  1.
</event>
<event>
12    1  0.8563264E-002  0.1866954E+03  0.7818608E-02  0.1162516E+00
         21   -1    0    0  503  502  0.00000000000E+00  0.00000000000E+00  0.38684697947E+03  0.38684697947E+03  0.00000000000E+00 0. -1.
         21   -1    0    0  501  503 -0.00000000000E+00 -0.00000000000E+00 -0.88043541613E+02  0.88043541613E+02  0.00000000000E+00 0. -1.
          6    2    1    2  501    0  0.74607898200E+00  0.57898970023E+02  0.14054776424E+03  0.23014567327E+03  0.17280193728E+03 0.  0.
         24    2    3    3    0    0 -0.47737267610E+02  0.60257072258E+02  0.14390343347E+03  0.18126268994E+03  0.78982296276E+02 0.  0.
         -6    2    1    2    0  502 -0.74607898200E+00 -0.57898970023E+02  0.15825567361E+03  0.24474484782E+03  0.17748897131E+03 0.  0.
        -24    2    5    5    0    0 -0.63000124668E+02 -0.20744293329E+02  0.49376540799E+02  0.11385255711E+03  0.78262510594E+02 0.  0.
          5    1    3    3  501    0  0.48483346592E+02 -0.23581022349E+01 -0.33556692245E+01  0.48882983326E+02  0.47000000000E+01 0. -1.
        -13    1    4    4    0    0 -0.36508935860E+01  0.85001721994E+01 -0.96273771603E+01  0.13351716833E+02  0.00000000000E+00 0.  1.
         14    1    4    4    0    0 -0.44086374024E+02  0.51756900058E+02  0.15353081063E+03  0.16791097311E+03  0.00000000000E+00 0. -1.
         -5    1    5    5    0  502  0.62254045686E+02 -0.37154676694E+02  0.10887913281E+03  0.13089229071E+03  0.47000000000E+01 0.  1.
         13    1    6    6    0    0 -0.49668503771E+02 -0.49815546891E+02  0.37654047996E+02  0.79789575192E+02  0.00000000000E+00 0. -1.
        -14    1    6    6    0    0 -0.13331620897E+02  0.29071253562E+02  0.11722492803E+02  0.34062981914E+02  0.00000000000E+00 0.  1.
</event>
<event>
12    1  0.8563264E-002  0.1914658E+03  0.7818608E-02  0.1157238E+00
         21   -1    0    0  503  502  0.00000000000E+00  0.00000000000E+00  0.42090540820E+03  0.42090540820E+03  0.00000000000E+00 0. -1.
         21   -1    0    0  501  503 -0.00000000000E+00 -0.00000000000E+00 -0.11319531760E+03  0.11319531760E+03  0.00000000000E+00 0. -1.
          6    2    1    2  501    0 -0.76553572840E+02  0.31989479392E+02  0.25292228000E+02  0.19312907693E+03  0.17255540342E+03 0.  0.
         24    2    3    3    0    0 -0.92011508333E+02  0.45157754986E+01  0.70656459060E+02  0.13768761559E+03  0.74020499770E+02 0.  0.
         -6    2    1    2    0  502  0.76553572840E+02 -0.31989479392E+02  0.28241786260E+03  0.34097164887E+03  0.17209892478E+03 0.  0.
        -24    2    5    5    0    0  0.63251553428E+02 -0.48754326679E+02  0.29516758358E+03  0.31562112205E+03  0.78198765372E+02 0.  0.
          5    1    3    3  501    0  0.15457935493E+02  0.27473703893E+02 -0.45364231060E+02  0.55441461335E+02  0.47000000000E+01 0. -1.
        -11    1    4    4    0    0 -0.91144456228E+02 -0.18472929797E+02  0.45278491076E+02  0.10343453384E+03  0.00000000000E+00 0.  1.
         12    1    4    4    0    0 -0.86705210461E+00  0.22988705296E+02  0.25377967984E+02  0.34253081752E+02  0.00000000000E+00 0. -1.
         -5    1    5    5    0  502  0.13302019412E+02  0.16764847288E+02 -0.12749720979E+02  0.25350526820E+02  0.47000000000E+01 0.  1.
         13    1    6    6    0    0  0.20150959862E+02 -0.53142760870E+02  0.94040847149E+02  0.10988127752E+03  0.00000000000E+00 0. -1.
        -14    1    6    6    0    0  0.43100593566E+02  0.43884341912E+01  0.20112673643E+03  0.20573984453E+03  0.00000000000E+00 0.  1.
</event>
<event>
12    1  0.8563264E-002  0.2152701E+03  0.7818608E-02  0.1139438E+00
         21   -1    0    0  503  502  0.00000000000E+00  0.00000000000E+00  0.55127216601E+03  0.55127216601E+03  0.00000000000E+00 0. -1.
         21   -1    0    0  501  503 -0.00000000000E+00 -0.00000000000E+00 -0.11275309104E+03  0.11275309104E+03  0.00000000000E+00 0. -1.
          6    2    1    2  501    0  0.90494089099E+02  0.89709689382E+02  0.39394463284E+03  0.44418878092E+03  0.16085487501E+03 0.  0.
         24    2    3    3    0    0  0.10869898570E+03  0.28137812020E+02  0.30169700269E+03  0.33169776078E+03  0.79969476154E+02 0.  0.
         -6    2    1    2    0  502 -0.90494089099E+02 -0.89709689382E+02  0.44574442132E+02  0.21983647613E+03  0.17350558151E+03 0.  0.
        -24    2    5    5    0    0 -0.82870444762E+02 -0.47475954698E+02 -0.34600387388E+02  0.12965581342E+03  0.80572738915E+02 0.  0.
          5    1    3    3  501    0 -0.18204896601E+02  0.61571877362E+02  0.92247630149E+02  0.11249102013E+03  0.47000000000E+01 0. -1.
        -11    1    4    4    0    0 -0.56337618211E+01 -0.11541428738E+02  0.60420878830E+02  0.61770757225E+02  0.00000000000E+00 0.  1.
         12    1    4    4    0    0  0.11433274752E+03  0.39679240758E+02  0.24127612386E+03  0.26992700356E+03  0.00000000000E+00 0. -1.
         -5    1    5    5    0  502 -0.76236443372E+01 -0.42233734685E+02  0.79174829520E+02  0.90180662716E+02  0.47000000000E+01 0.  1.
         11    1    6    6    0    0 -0.30397637877E+02  0.21107548318E+02 -0.10782601913E+01  0.37023068883E+02  0.00000000000E+00 0. -1.
        -12    1    6    6    0    0 -0.52472806885E+02 -0.68583503015E+02 -0.33522127197E+02  0.92632744535E+02  0.00000000000E+00 0.  1.
</event>
<event>
12    1  0.8563264E-002  0.1798145E+03  0.7818608E-02  0.1168364E+00
         21   -1    0    0  503  502  0.00000000000E+00  0.00000000000E+00  0.23355606003E+03  0.23355606003E+03  0.00000000000E+00 0. -1.
         21   -1    0    0  501  503 -0.00000000000E+00 -0.00000000000E+00 -0.15749739179E+03  0.15749739179E+03  0.00000000000E+00 0. -1.
          6    2    1    2  501    0 -0.45252137210E+02  0.27301368549E+02  0.10830587030E+03  0.20991283462E+03  0.17187238275E+03 0.  0.
         24    2    3    3    0    0  0.23747106711E+02  0.18896366085E+02  0.11027908077E+03  0.14021690011E+03  0.81106754918E+02 0.  0.
         -6    2    1    2    0  502  0.45252137210E+02 -0.27301368549E+02 -0.32247202061E+02  0.18114061719E+03  0.17023196089E+03 0.  0.
        -24    2    5    5    0    0  0.87493189274E+02 -0.58887550499E+01  0.86829946618E+01  0.11836978400E+03  0.79033383841E+02 0.  0.
          5    1    3    3  501    0 -0.68999243921E+02  0.84050024641E+01 -0.19732104725E+01  0.69695934513E+02  0.47000000000E+01 0. -1.
        -11    1    4    4    0    0  0.28969676215E+02 -0.79249003141E+01  0.37833039888E+01  0.30271431649E+02  0.00000000000E+00 0.  1.
         12    1    4    4    0    0 -0.52225695043E+01  0.26821266399E+02  0.10649577678E+03  0.10994546846E+03  0.00000000000E+00 0. -1.
         -5    1    5    5    0  502 -0.42241052064E+02 -0.21412613499E+02 -0.40930196723E+02  0.62770833196E+02  0.47000000000E+01 0.  1.
         13    1    6    6    0    0  0.25077467083E+02 -0.38994835980E+01 -0.34220578751E+02  0.42604381673E+02  0.00000000000E+00 0. -1.
        -14    1    6    6    0    0  0.62415722191E+02 -0.19892714518E+01  0.42903573413E+02  0.75765402322E+02  0.00000000000E+00 0.  1.
</event>
<event>
12    1  0.8563264E-002  0.1935315E+03  0.7818608E-02  0.1156024E+00
         21   -1    0    0  503  502  0.00000000000E+00  0.00000000000E+00  0.66014670164E+02  0.66014670164E+02  0.00000000000E+00 0. -1.
         21   -1    0    0  501  503 -0.00000000000E+00 -0.00000000000E+00 -0.73165205088E+03  0.73165205088E+03  0.00000000000E+00 0. -1.
          6    2    1    2  501    0  0.10660196130E+02  0.88110367788E+02 -0.52920602224E+03  0.56348331338E+03  0.17198067856E+03 0.  0.
         24    2    3    3    0    0  0.26625488409E+02  0.87584655480E+02 -0.18261485878E+03  0.21649240354E+03  0.71699272195E+02 0.  0.
         -6    2    1    2    0  502 -0.10660196130E+02 -0.88110367788E+02 -0.13643135848E+03  0.23418340766E+03  0.16837837199E+03 0.  0.
        -24    2    5    5    0    0 -0.31522469181E+02  0.92777088061E+01 -0.87689553559E+02  0.12319905991E+03  0.80055034909E+02 0.  0.
          5    1    3    3  501    0 -0.15965292279E+02  0.52571230879E+00 -0.34659116346E+03  0.34699090985E+03  0.47000000000E+01 0. -1.
        -13    1    4    4    0    0 -0.24097228106E+02  0.19563925911E+02 -0.41348559038E+02  0.51702291381E+02  0.00000000000E+00 0.  1.
         14    1    4    4    0    0  0.50722716516E+02  0.68020729568E+02 -0.14126629974E+03  0.16479011216E+03  0.00000000000E+00 0. -1.
         -5    1    5    5    0  502  0.20862273050E+02 -0.97388076595E+02 -0.48741804921E+02  0.11098434775E+03  0.47000000000E+01 0.  1.
         11    1    6    6    0    0  0.26102084456E+02 -0.61379149797E+01 -0.29537023815E+02  0.39892713484E+02  0.00000000000E+00 0. -1.
        -12    1    6    6    0    0 -0.57624553637E+02  0.15415623786E+02 -0.58152529744E+02  0.83306346422E+02  0.00000000000E+00 0.  1.
</event>
<event>
12    1  0.8563264E-002  0.1992095E+03  0.7818608E-02  0.1150790E+00
         21   -1    0    0  501  502  0.00000000000E+00  0.00000000000E+00  0.86166374011E+03  0.86166374011E+03  0.00000000000E+00 0. -1.
         21   -1    0    0  502  503 -0.00000000000E+00 -0.00000000000E+00 -0.55573045320E+02  0.55573045320E+02  0.00000000000E+00 0. -1.
         -6    2    1    2    0  503  0.90351533375E+02  0.39696314256E+02  0.20766594055E+03  0.28652560190E+03  0.17097538049E+03 0.  0.
        -24    2    3    3    0    0  0.58725949870E+02 -0.31727581824E+02  0.61496288729E+02  0.12072690596E+03  0.79610399186E+02 0.  0.
          6    2    1    2  501    0 -0.90351533375E+02 -0.39696314256E+02  0.59842475424E+03  0.63071118353E+03  0.17304685374E+03 0.  0.
         24    2    5    5    0    0  0.29421842173E+01 -0.89820855089E+01  0.41569435306E+03  0.42320318102E+03  0.78802302941E+02 0.  0.
          5    1    5    5  501    0 -0.93293717593E+02 -0.30714228747E+02  0.18273040118E+03  0.20750800251E+03  0.47000000000E+01 0. -1.
        -13    1    6    6    0    0 -0.66319191129E+01 -0.12863200559E+02  0.10506900812E+02  0.17884050000E+02  0.00000000000E+00 0.  1.
         14    1    6    6    0    0  0.95741033303E+01  0.38811150503E+01  0.40518745225E+03  0.40531913102E+03  0.00000000000E+00 0. -1.
         -5    1    3    3    0  503  0.31625583505E+02  0.71423896080E+02  0.14616965182E+03  0.16579869594E+03  0.47000000000E+01 0.  1.
         13    1    4    4    0    0  0.69313812657E+02 -0.30095861126E+02  0.72957945393E+02  0.10503821818E+03  0.00000000000E+00 0. -1.
        -14    1    4    4    0    0 -0.10587862787E+02 -0.16317206979E+01 -0.11461656664E+02  0.15688687782E+02  0.00000000000E+00 0.  1.
</event>
<event>
12    1  0.8563264E-002  0.1825110E+03  0.7818608E-02  0.1165408E+00
         21   -1    0    0  501  502  0.00000000000E+00  0.00000000000E+00  0.18573356880E+03  0.18573356880E+03  0.00000000000E+00 0.  1.
         21   -1    0    0  502  503 -0.00000000000E+00 -0.00000000000E+00 -0.23930385566E+03  0.23930385566E+03  0.00000000000E+00 0.  1.
         -6    2    1    2    0  503 -0.35945639997E+02 -0.48656254476E+02 -0.13320826205E+03  0.22590810242E+03  0.17213514901E+03 0.  0.
        -24    2    3    3    0    0  0.51719923580E+01  0.17304692599E+02 -0.12451350452E+03  0.14755508692E+03  0.77088838216E+02 0.  0.
          6    2    1    2  501    0  0.35945639997E+02  0.48656254476E+02  0.79637975193E+02  0.19912932204E+03  0.17219395944E+03 0.  0.
         24    2    5    5    0    0  0.23518067016E+01  0.38806528167E+02 -0.21849555611E+02  0.91670624614E+02  0.80091339816E+02 0.  0.
          5    1    5    5  501    0  0.33593833295E+02  0.98497263095E+01  0.10148753080E+03  0.10745869743E+03  0.47000000000E+01 0. -1.
        -11    1    6    6    0    0  0.25970487727E+02  0.44635108446E+02  0.89623881979E+01  0.52412627686E+02  0.00000000000E+00 0.  1.
         12    1    6    6    0    0 -0.23618681026E+02 -0.58285802791E+01 -0.30811943809E+02  0.39257996928E+02  0.00000000000E+00 0. -1.
         -5    1    3    3    0  503 -0.41117632355E+02 -0.65960947075E+02 -0.86947575324E+01  0.78353015501E+02  0.47000000000E+01 0.  1.
         11    1    4    4    0    0 -0.16396430724E+02  0.35976517331E+02 -0.32373573855E+02  0.51099912172E+02  0.00000000000E+00 0. -1.
        -12    1    4    4    0    0  0.21568423082E+02 -0.18671824732E+02 -0.92139930661E+02  0.96455174746E+02  0.00000000000E+00 0.  1.
</event>
<event>
12    1  0.8563264E-002  0.1874232E+03  0.7818608E-02  0.1160836E+00
         21   -1    0    0  501  502  0.00000000000E+00  0.00000000000E+00  0.65884584373E+02  0.65884584373E+02  0.00000000000E+00 0. -1.
         21   -1    0    0  502  503 -0.00000000000E+00 -0.00000000000E+00 -0.53659167753E+03  0.53659167753E+03  0.00000000000E+00 0.  1.
         -6    2    1    2    0  503 -0.67558943816E+02  0.28765351022E+02 -0.26075103282E+03  0.32112079327E+03  0.17244073314E+03 0.  0.
        -24    2    3    3    0    0 -0.61528707191E+02  0.33674779516E+02 -0.28046990218E+03  0.29940927442E+03  0.77863823409E+02 0.  0.
          6    2    1    2  501    0  0.67558943816E+02 -0.28765351022E+02 -0.20995606034E+03  0.28135546863E+03  0.17230117860E+03 0.  0.
         24    2    5    5    0    0 -0.16183893399E+02 -0.97314053738E+01 -0.38282812772E+02  0.89342584165E+02  0.78485061862E+02 0.  0.
          5    1    5    5  501    0  0.83742837215E+02 -0.19033945648E+02 -0.17167324756E+03  0.19201288447E+03  0.47000000000E+01 0. -1.
        -13    1    6    6    0    0 -0.20596774658E+02 -0.42203723437E+00 -0.61007349167E+02  0.64391784368E+02  0.00000000000E+00 0.  1.
         14    1    6    6    0    0  0.44128812589E+01 -0.93093681395E+01  0.22724536395E+02  0.24950799797E+02  0.00000000000E+00 0. -1.
         -5    1    3    3    0  503 -0.60302366249E+01 -0.49094284943E+01  0.19718869361E+02  0.21711518850E+02  0.47000000000E+01 0.  1.
         13    1    4    4    0    0 -0.21194293074E+02  0.46391171562E+02 -0.82659237715E+02  0.97128206189E+02  0.00000000000E+00 0. -1.
        -14    1    4    4    0    0 -0.40334414117E+02 -0.12716392046E+02 -0.19781066446E+03  0.20228106823E+03  0.00000000000E+00 0.  1.
</event>
<event>
12    1  0.8563264E-002  0.2010026E+03  0.7818608E-02  0.1150965E+00
         21   -1    0    0  503  502  0.00000000000E+00  0.00000000000E+00  0.13766724935E+03  0.13766724935E+03  0.00000000000E+00 0.  1.
         21   -1    0    0  501  503 -0.00000000000E+00 -0.00000000000E+00 -0.58632581337E+03  0.58632581337E+03  0.00000000000E+00 0.  1.
          6    2    1    2  501    0 -0.10313466679E+03  0.18708092700E+02 -0.48873627984E+03  0.52845550054E+03  0.17150892859E+03 0.  0.
         24    2    3    3    0    0 -0.10182745386E+03  0.54552109927E+02 -0.24783163770E+03  0.28485000187E+03  0.79838836805E+02 0.  0.
         -6    2    1    2    0  502  0.10313466679E+03 -0.18708092700E+02  0.40077715824E+02  0.19553756218E+03  0.16013107972E+03 0.  0.
        -24    2    5    5    0    0  0.91244178332E+01  0.27178746751E+02  0.77710456526E+01  0.85950428442E+02  0.80654495988E+02 0.  0.
          5    1    3    3  501    0 -0.13072129352E+01 -0.35844017227E+02 -0.24090464214E+03  0.24360549867E+03  0.47000000000E+01 0. -1.
        -11    1    4    4    0    0 -0.18293414404E+02  0.53729261221E+02 -0.94333578554E+02  0.11009226387E+03  0.00000000000E+00 0.  1.
         12    1    4    4    0    0 -0.83534039454E+02  0.82284870623E+00 -0.15349805915E+03  0.17475773800E+03  0.00000000000E+00 0. -1.
         -5    1    5    5    0  502  0.94010248959E+02 -0.45886839452E+02  0.32306670171E+02  0.10958713374E+03  0.47000000000E+01 0.  1.
         11    1    6    6    0    0  0.43766461739E+02  0.10203749593E+02 -0.52245383826E+01  0.45242850045E+02  0.00000000000E+00 0. -1.
        -12    1    6    6    0    0 -0.34642043906E+02  0.16974997159E+02  0.12995584035E+02  0.40707578397E+02  0.00000000000E+00 0.  1.
</event>
<event>
12    1  0.8563264E-002  0.1966492E+03  0.7818608E-02  0.1152631E+00
         21   -1    0    0  503  502  0.00000000000E+00  0.00000000000E+00  0.29523551684E+03  0.29523551684E+03  0.00000000000E+00 0. -1.
         21   -1    0    0  501  503 -0.00000000000E+00 -0.00000000000E+00 -0.13249849537E+03  0.13249849537E+03  0.00000000000E+00 0. -1.
          6    2    1    2  501    0 -0.95414500039E+02 -0.62135608188E+01  0.57757304014E+02  0.20495559382E+03  0.17183816257E+03 0.  0.
         24    2    3    3    0    0 -0.36867446613E+01 -0.49514391005E+02  0.41549411999E+01  0.90132920533E+02  0.75109339131E+02 0.  0.
         -6    2    1    2    0  502  0.95414500039E+02  0.62135608188E+01  0.10497971746E+03  0.22277841839E+03  0.17165939377E+03 0.  0.
        -24    2    5    5    0    0  0.12147237328E+03  0.39677375302E+02  0.96057837378E+02  0.17918335466E+03  0.80930432388E+02 0.  0.
          5    1    3    3  501    0 -0.91727755378E+02  0.43300830186E+02  0.53602362815E+02  0.11482267329E+03  0.47000000000E+01 0. -1.
        -13    1    4    4    0    0  0.16158671940E+02 -0.17656266214E+02  0.34415635731E+02  0.41919952269E+02  0.00000000000E+00 0.  1.
         14    1    4    4    0    0 -0.19845416601E+02 -0.31858124791E+02 -0.30260694531E+02  0.48212968264E+02  0.00000000000E+00 0. -1.
         -5    1    5    5    0  502 -0.26057873236E+02 -0.33463814484E+02  0.89218800786E+01  0.43595063729E+02  0.47000000000E+01 0.  1.
         13    1    6    6    0    0  0.12250627842E+03  0.29564998446E+02  0.56087820698E+02  0.13794100557E+03  0.00000000000E+00 0. -1.
        -14    1    6    6    0    0 -0.10339051481E+01  0.10112376856E+02  0.39970016680E+02  0.41242349096E+02  0.00000000000E+00 0.  1.
</event>
<event>
12    1  0.8563264E-002  0.2076403E+03  0.7818608E-02  0.1143794E+00
         21   -1    0    0  501  502  0.00000000000E+00  0.00000000000E+00  0.45860394753E+02  0.45860394753E+02  0.00000000000E+00 0.  1.
         21   -1    0    0  502  503 -0.00000000000E+00 -0.00000000000E+00 -0.16192181450E+04  0.16192181450E+04  0.00000000000E+00 0.  1.
         -6    2    1    2    0  503  0.69472813689E+02 -0.89424858451E+02 -0.13270218506E+04  0.13429048849E+04  0.17199785162E+03 0.  0.
        -24    2    3    3    0    0 -0.16643411026E+02 -0.68953361807E+02 -0.52357552271E+03  0.53458367522E+03  0.81343768031E+02 0.  0.
          6    2    1    2  501    0 -0.69472813689E+02  0.89424858451E+02 -0.24633589972E+03  0.32217365485E+03  0.17404370497E+03 0.  0.
         24    2    5    5    0    0 -0.74911974711E+01  0.11098126094E+03 -0.19792413786E+03  0.24049019310E+03  0.79300758577E+02 0.  0.
          5    1    5    5  501    0 -0.61981616218E+02 -0.21556402491E+02 -0.48411761861E+02  0.81683461752E+02  0.47000000000E+01 0. -1.
        -13    1    6    6    0    0 -0.25679441585E+02  0.90104413867E+02 -0.93145402649E+02  0.13211474238E+03  0.00000000000E+00 0.  1.
         14    1    6    6    0    0  0.18188244114E+02  0.20876847076E+02 -0.10477873521E+03  0.10837545073E+03  0.00000000000E+00 0. -1.
         -5    1    3    3    0  503  0.86116224715E+02 -0.20471496644E+02 -0.80344632784E+03  0.80832120970E+03  0.47000000000E+01 0.  1.
         11    1    4    4    0    0 -0.40334768102E+02 -0.44479773665E+02 -0.44375876875E+03  0.44780262240E+03  0.00000000000E+00 0. -1.
        -12    1    4    4    0    0  0.23691357077E+02 -0.24473588142E+02 -0.79816753961E+02  0.86781052825E+02  0.00000000000E+00 0.  1.
</event>
<event>
12    1  0.8563264E-002  0.2163498E+03  0.7818608E-02  0.1137810E+00
         21   -1    0    0  501  502  0.00000000000E+00  0.00000000000E+00  0.92427916984E+02  0.92427916984E+02  0.00000000000E+00 0.  1.
         21   -1    0    0  502  503 -0.00000000000E+00 -0.00000000000E+00 -0.51175951053E+03  0.51175951053E+03  0.00000000000E+00 0.  1.
         -6    2    1    2    0  503 -0.78431041852E+02 -0.97085122184E+02 -0.26571154887E+03  0.33884545674E+03  0.16922371901E+03 0.  0.
        -24    2    3    3    0    0  0.77273365470E+01 -0.12013824843E+02 -0.14449835603E+03  0.16745374189E+03  0.83408255353E+02 0.  0.
          6    2    1    2  501    0  0.78431041852E+02  0.97085122184E+02 -0.15362004467E+03  0.26534197077E+03  0.17672094967E+03 0.  0.
         24    2    5    5    0    0  0.10907793838E+02  0.67690427305E+02 -0.12842695083E+02  0.10639610179E+03  0.80338171148E+02 0.  0.
          5    1    5    5  501    0  0.67523248014E+02  0.29394694879E+02 -0.14077734959E+03  0.15894586898E+03  0.47000000000E+01 0. -1.
        -13    1    6    6    0    0 -0.28005283554E+02  0.17612038960E+02 -0.25444857678E+02  0.41736322377E+02  0.00000000000E+00 0.  1.
         14    1    6    6    0    0  0.38913077392E+02  0.50078388346E+02  0.12602162595E+02  0.64659779411E+02  0.00000000000E+00 0. -1.
         -5    1    3    3    0  503 -0.86158378399E+02 -0.85071297341E+02 -0.12121319284E+03  0.17139171485E+03  0.47000000000E+01 0.  1.
         11    1    4    4    0    0  0.85282907709E+01  0.95500504279E+01  0.68868303203E+01  0.14538350612E+02  0.00000000000E+00 0. -1.
        -12    1    4    4    0    0 -0.80095422386E+00 -0.21563875271E+02 -0.15138518635E+03  0.15291539128E+03  0.00000000000E+00 0.  1.
</event>
<event>
12    1  0.8563264E-002  0.2123156E+03  0.7818608E-02  0.1140045E+00
         21   -1    0    0  501  502  0.00000000000E+00  0.00000000000E+00  0.32879660566E+03  0.32879660566E+03  0.00000000000E+00 0.  1.
         21   -1    0    0  502  503 -0.00000000000E+00 -0.00000000000E+00 -0.17486307441E+03  0.17486307441E+03  0.00000000000E+00 0.  1.
         -6    2    1    2    0  503 -0.54848032675E+02 -0.11217368031E+03 -0.41362458958E+02  0.21630708057E+03  0.17171679839E+03 0.  0.
        -24    2    3    3    0    0 -0.19547544646E+01  0.47351100799E+01 -0.39714826124E+02  0.87893028205E+02  0.78241131514E+02 0.  0.
          6    2    1    2  501    0  0.54848032675E+02  0.11217368031E+03  0.19529599020E+03  0.28735259950E+03  0.16982270580E+03 0.  0.
         24    2    5    5    0    0 -0.31035151214E+02  0.69112194354E+02  0.13473245973E+03  0.17368534797E+03  0.79209143243E+02 0.  0.
          5    1    5    5  501    0  0.85883183889E+02  0.43061485959E+02  0.60563530469E+02  0.11366725153E+03  0.47000000000E+01 0. -1.
        -11    1    6    6    0    0  0.16140717822E+02  0.58876441580E+02  0.81413247187E+02  0.10175988877E+03  0.00000000000E+00 0.  1.
         12    1    6    6    0    0 -0.47175869036E+02  0.10235752773E+02  0.53319212547E+02  0.71925459198E+02  0.00000000000E+00 0. -1.
         -5    1    3    3    0  503 -0.52893278210E+02 -0.11690879039E+03 -0.16476328335E+01  0.12841405237E+03  0.47000000000E+01 0.  1.
         11    1    4    4    0    0 -0.28765459524E+01  0.17144341028E+02  0.20228378791E+02  0.26671900090E+02  0.00000000000E+00 0. -1.
        -12    1    4    4    0    0  0.92179148772E+00 -0.12409230948E+02 -0.59943204915E+02  0.61221128115E+02  0.00000000000E+00 0.  1.
</event>
<event>
12    1  0.8563264E-002  0.1777375E+03  0.7818608E-02  0.1170018E+00
         21   -1    0    0  503  502  0.00000000000E+00  0.00000000000E+00  0.37991615205E+02  0.37991615205E+02  0.00000000000E+00 0. -1.
         21   -1    0    0  501  503 -0.00000000000E+00 -0.00000000000E+00 -0.83452477885E+03  0.83452477885E+03  0.00000000000E+00 0. -1.
          6    2    1    2  501    0 -0.27407984338E+02 -0.36360789344E+02 -0.42502857591E+03  0.46068354688E+03  0.17177524682E+03 0.  0.
         24    2    3    3    0    0 -0.18862602452E+02  0.38562814150E+02 -0.30998858402E+03  0.32305048528E+03  0.80161121564E+02 0.  0.
         -6    2    1    2    0  502  0.27407984338E+02  0.36360789344E+02 -0.37150458773E+03  0.41183284717E+03  0.17180608457E+03 0.  0.
        -24    2    5    5    0    0 -0.39268587722E+02  0.37119620975E+02 -0.29239465374E+03  0.30826251964E+03  0.81309650354E+02 0.  0.
          5    1    3    3  501    0 -0.85453818860E+01 -0.74923603494E+02 -0.11503999189E+03  0.13763306160E+03  0.47000000000E+01 0. -1.
        -11    1    4    4    0    0  0.83831447078E+01  0.37477846329E+02 -0.57819937684E+02  0.69411895771E+02  0.00000000000E+00 0.  1.
         12    1    4    4    0    0 -0.27245747159E+02  0.10849678212E+01 -0.25216864634E+03  0.25363858951E+03  0.00000000000E+00 0. -1.
         -5    1    5    5    0  502  0.66676572059E+02 -0.75883163112E+00 -0.79109933994E+02  0.10357032752E+03  0.47000000000E+01 0.  1.
         13    1    6    6    0    0 -0.32185635124E+02  0.59157268147E+02 -0.15597917456E+03  0.16989702875E+03  0.00000000000E+00 0. -1.
        -14    1    6    6    0    0 -0.70829525982E+01 -0.22037647172E+02 -0.13641547918E+03  0.13836549089E+03  0.00000000000E+00 0.  1.
</event>
<event>
12    1  0.8563264E-002  0.1963817E+03  0.7818608E-02  0.1153142E+00
         21   -1    0    0  503  502  0.00000000000E+00  0.00000000000E+00  0.40951820262E+03  0.40951820262E+03  0.00000000000E+00 0.  1.
         21   -1    0    0  501  503 -0.00000000000E+00 -0.00000000000E+00 -0.36556769451E+03  0.36556769451E+03  0.00000000000E+00 0. -1.
          6    2    1    2  501    0 -0.70773731033E+02  0.61863375509E+02 -0.31238652378E+03  0.36821755405E+03  0.17077127580E+03 0.  0.
         24    2    3    3    0    0 -0.83017816086E+02  0.24673549875E+02 -0.10829167653E+03  0.16034788954E+03  0.80520907985E+02 0.  0.
         -6    2    1    2    0  502  0.70773731033E+02 -0.61863375509E+02  0.35633703189E+03  0.40686834309E+03  0.17242322952E+03 0.  0.
        -24    2    5    5    0    0  0.76740063775E+02  0.11095756495E+02  0.12410309891E+03  0.16332507856E+03  0.72535156495E+02 0.  0.
          5    1    3    3  501    0  0.12244085052E+02  0.37189825635E+02 -0.20409484725E+03  0.20786966451E+03  0.47000000000E+01 0. -1.
        -13    1    4    4    0    0 -0.72938342372E+02  0.24672908137E+02 -0.12143244446E+03  0.14378662229E+03  0.00000000000E+00 0.  1.
         14    1    4    4    0    0 -0.10079473714E+02  0.64173813555E-03  0.13140767933E+02  0.16561267241E+02  0.00000000000E+00 0. -1.
         -5    1    5    5    0  502 -0.59663327421E+01 -0.72959132004E+02  0.23223393298E+03  0.24354326452E+03  0.47000000000E+01 0.  1.
         13    1    6    6    0    0  0.79553875775E+02 -0.23960979955E+01  0.65362786623E+02  0.10298958351E+03  0.00000000000E+00 0. -1.
        -14    1    6    6    0    0 -0.28138119992E+01  0.13491854490E+02  0.58740312290E+02  0.60335495054E+02  0.00000000000E+00 0.  1.
</event>
<event>
12    1  0.8563264E-002  0.2299658E+03  0.7818608E-02  0.1126689E+00
         21   -1    0    0  503  502  0.00000000000E+00  0.00000000000E+00  0.20129142406E+03  0.20129142406E+03  0.00000000000E+00 0.  1.
         21   -1    0    0  501  503 -0.00000000000E+00 -0.00000000000E+00 -0.27234976359E+03  0.27234976359E+03  0.00000000000E+00 0.  1.
          6    2    1    2  501    0 -0.14773263124E+03 -0.38823773141E+02 -0.80429916977E+02  0.24362517265E+03  0.17190706068E+03 0.  0.
         24    2    3    3    0    0 -0.12384977576E+03 -0.26539492266E+02  0.60356583658E+01  0.15296272143E+03  0.85545621559E+02 0.  0.
         -6    2    1    2    0  502  0.14773263124E+03  0.38823773141E+02  0.93715774427E+01  0.23001601500E+03  0.17171873806E+03 0.  0.
        -24    2    5    5    0    0  0.20540893572E+02 -0.14115710996E+02 -0.27065845999E+02  0.87432345045E+02  0.79313765103E+02 0.  0.
          5    1    3    3  501    0 -0.23882855472E+02 -0.12284280874E+02 -0.86465575343E+02  0.90662451221E+02  0.47000000000E+01 0. -1.
        -11    1    4    4    0    0 -0.68136205611E+02 -0.53086857902E+02 -0.15186596275E+02  0.87700568432E+02  0.00000000000E+00 0.  1.
         12    1    4    4    0    0 -0.55713570154E+02  0.26547365636E+02  0.21222254641E+02  0.65262152995E+02  0.00000000000E+00 0. -1.
         -5    1    5    5    0  502  0.12719173766E+03  0.52939484137E+02  0.36437423441E+02  0.14258366996E+03  0.47000000000E+01 0.  1.
         13    1    6    6    0    0  0.16769226759E+02 -0.39661187041E+02  0.80880497084E+01  0.43813619705E+02  0.00000000000E+00 0. -1.
        -14    1    6    6    0    0  0.37716668126E+01  0.25545476044E+02 -0.35153895707E+02  0.43618725340E+02  0.00000000000E+00 0.  1.
</event>
<event>
12    1  0.8563264E-002  0.2397565E+03  0.7818608E-02  0.1120415E+00
         21   -1    0    0  501  502  0.00000000000E+00  0.00000000000E+00  0.15927111155E+03  0.15927111155E+03  0.00000000000E+00 0.  1.
         21   -1    0    0  502  503 -0.00000000000E+00 -0.00000000000E+00 -0.43337620520E+03  0.43337620520E+03  0.00000000000E+00 0.  1.
         -6    2    1    2    0  503 -0.14164835130E+03  0.88597129463E+02 -0.26096270135E+03  0.35253089436E+03  0.16811541633E+03 0.  0.
        -24    2    3    3    0    0 -0.24722031649E+01  0.27381904367E+02 -0.98777616090E+02  0.13017218445E+03  0.80199125234E+02 0.  0.
          6    2    1    2  501    0  0.14164835130E+03 -0.88597129463E+02 -0.13142392303E+02  0.24011642240E+03  0.17195774788E+03 0.  0.
         24    2    5    5    0    0  0.12083109454E+03 -0.11849464365E+03 -0.43961233606E+02  0.19216738161E+03  0.79715610205E+02 0.  0.
          5    1    5    5  501    0  0.20817256753E+02  0.29897514190E+02  0.30818841303E+02  0.47949040790E+02  0.47000000000E+01 0. -1.
        -11    1    6    6    0    0  0.10348086399E+03 -0.65527528178E+02 -0.56736168827E+02  0.13498569929E+03  0.00000000000E+00 0.  1.
         12    1    6    6    0    0  0.17350230554E+02 -0.52967115476E+02  0.12774935221E+02  0.57181682312E+02  0.00000000000E+00 0. -1.
         -5    1    3    3    0  503 -0.13917614813E+03  0.61215225097E+02 -0.16218508526E+03  0.22235870991E+03  0.47000000000E+01 0.  1.
         11    1    4    4    0    0  0.16255656773E+02  0.43985154795E+02 -0.26897376033E+02  0.54059310548E+02  0.00000000000E+00 0. -1.
        -12    1    4    4    0    0 -0.18727859938E+02 -0.16603250428E+02 -0.71880240057E+02  0.76112873900E+02  0.00000000000E+00 0.  1.
</event>
<event>
12    1  0.8563264E-002  0.2671841E+03  0.7818608E-02  0.1103164E+00
         21   -1    0    0  503  502  0.00000000000E+00  0.00000000000E+00  0.88365929114E+03  0.88365929114E+03  0.00000000000E+00 0. -1.
         21   -1    0    0  501  503 -0.00000000000E+00 -0.00000000000E+00 -0.13199818239E+03  0.13199818239E+03  0.00000000000E+00 0. -1.
          6    2    1    2  501    0  0.18120132340E+03  0.91257528959E+02  0.58615384697E+02  0.27353811104E+03  0.17385476317E+03 0.  0.
         24    2    3    3    0    0  0.41969307210E+02  0.50002982019E+02 -0.28625626872E+02  0.10406665010E+03  0.75820315158E+02 0.  0.
         -6    2    1    2    0  502 -0.18120132340E+03 -0.91257528959E+02  0.69304572405E+03  0.74211936248E+03  0.17107576206E+03 0.  0.
        -24    2    5    5    0    0 -0.13751391931E+03 -0.13048628416E+03  0.53688883160E+03  0.57522253936E+03  0.81820559366E+02 0.  0.
          5    1    3    3  501    0  0.13923201619E+03  0.41254546940E+02  0.87241011569E+02  0.16947146094E+03  0.47000000000E+01 0. -1.
        -13    1    4    4    0    0 -0.17487199594E+02  0.30973223186E+02 -0.20657919343E+02  0.41132618878E+02  0.00000000000E+00 0.  1.
         14    1    4    4    0    0  0.59456506804E+02  0.19029758833E+02 -0.79677075293E+01  0.62934031222E+02  0.00000000000E+00 0. -1.
         -5    1    5    5    0  502 -0.43687404083E+02  0.39228755200E+02  0.15615689245E+03  0.16689682312E+03  0.47000000000E+01 0.  1.
         13    1    6    6    0    0 -0.37550680297E+02 -0.20090874046E+02  0.23232493907E+03  0.23619605019E+03  0.00000000000E+00 0. -1.
        -14    1    6    6    0    0 -0.99963239017E+02 -0.11039541011E+03  0.30456389253E+03  0.33902648917E+03  0.00000000000E+00 0.  1.
</event>
<event>
12    1  0.8563264E-002  0.2345863E+03  0.7818608E-02  0.1123685E+00
         21   -1    0    0  501  502  0.00000000000E+00  0.00000000000E+00  0.92325767249E+03  0.92325767249E+03  0.00000000000E+00 0.  1.
         21   -1    0    0  502  503 -0.00000000000E+00 -0.00000000000E+00 -0.65157930302E+02  0.65157930302E+02  0.00000000000E+00 0.  1.
         -6    2    1    2    0  503 -0.15903904596E+03 -0.39490473288E+01  0.57884058086E+03  0.62456957506E+03  0.17239989248E+03 0.  0.
        -24    2    3    3    0    0 -0.17036544895E+03 -0.46457823904E+01  0.35975893251E+03  0.40514388949E+03  0.75293506905E+02 0.  0.
          6    2    1    2  501    0  0.15903904596E+03  0.39490473288E+01  0.27925916133E+03  0.36384602773E+03  0.17055567887E+03 0.  0.
         24    2    5    5    0    0  0.14369481294E+03 -0.44509979261E+02  0.13083740709E+03  0.20689116200E+03  0.55282802940E+02 0.  0.
          5    1    5    5  501    0  0.15344233019E+02  0.48459026590E+02  0.14842175424E+03  0.15695486573E+03  0.47000000000E+01 0. -1.
        -13    1    6    6    0    0  0.10174960536E+03 -0.24490922017E+02  0.11988813440E+03  0.15914129641E+03  0.00000000000E+00 0.  1.
         14    1    6    6    0    0  0.41945207580E+02 -0.20019057243E+02  0.10949272688E+02  0.47749865594E+02  0.00000000000E+00 0. -1.
         -5    1    3    3    0  503  0.11326402987E+02  0.69673506155E+00  0.21908164835E+03  0.21942568557E+03  0.47000000000E+01 0.  1.
         13    1    4    4    0    0 -0.84057755452E+02 -0.21609171368E+02  0.10855124579E+03  0.13898214094E+03  0.00000000000E+00 0. -1.
        -14    1    4    4    0    0 -0.86307693495E+02  0.16963388978E+02  0.25120768672E+03  0.26616174855E+03  0.00000000000E+00 0.  1.
</event>
<event>
12    1  0.8563264E-002  0.2432710E+03  0.7818608E-02  0.1117712E+00
         21   -1    0    0  503  502  0.00000000000E+00  0.00000000000E+00  0.18008379787E+03  0.18008379787E+03  0.00000000000E+00 0.  1.
         21   -1    0    0  501  503 -0.00000000000E+00 -0.00000000000E+00 -0.77481901892E+03  0.77481901892E+03  0.00000000000E+00 0.  1.
          6    2    1    2  501    0 -0.10197334298E+02  0.17153857988E+03  0.65340772421E+02  0.25142495770E+03  0.17150983295E+03 0.  0.
         24    2    3    3    0    0  0.10695946856E+02  0.16722334387E+03  0.99731840614E+02  0.21068203156E+03  0.79764831685E+02 0.  0.
         -6    2    1    2    0  502  0.10197334298E+02 -0.17153857988E+03 -0.66007599347E+03  0.70347785909E+03  0.17219556052E+03 0.  0.
        -24    2    5    5    0    0 -0.36497077234E+02 -0.16440880365E+03 -0.59493239465E+03  0.62287401151E+03  0.75267447474E+02 0.  0.
          5    1    3    3  501    0 -0.20893281153E+02  0.43152360142E+01 -0.34391068192E+02  0.40742926142E+02  0.47000000000E+01 0. -1.
        -13    1    4    4    0    0  0.44509559811E+02  0.10428417480E+03  0.70297616082E+02  0.13340931322E+03  0.00000000000E+00 0.  1.
         14    1    4    4    0    0 -0.33813612956E+02  0.62939169073E+02  0.29434224532E+02  0.77272718333E+02  0.00000000000E+00 0. -1.
         -5    1    5    5    0  502  0.46694411532E+02 -0.71297762346E+01 -0.65143598818E+02  0.80603847578E+02  0.47000000000E+01 0.  1.
         11    1    6    6    0    0 -0.11823827667E+02 -0.92340506307E+02 -0.19924177618E+03  0.21991784235E+03  0.00000000000E+00 0. -1.
        -12    1    6    6    0    0 -0.24673249567E+02 -0.72068297343E+02 -0.39569061847E+03  0.40295616917E+03  0.00000000000E+00 0.  1.
</event>
<event>
12    1  0.8563264E-002  0.2102340E+03  0.7818608E-02  0.1143072E+00
         21   -1    0    0  501  502  0.00000000000E+00  0.00000000000E+00  0.17972380864E+03  0.17972380864E+03  0.00000000000E+00 0. -1.
         21   -1    0    0  502  503 -0.00000000000E+00 -0.00000000000E+00 -0.35744927534E+03  0.35744927534E+03  0.00000000000E+00 0. -1.
         -6    2    1    2    0  503 -0.10743552015E+03 -0.53978503151E+02 -0.24405885603E+03  0.31672250696E+03  0.16214916411E+03 0.  0.
        -24    2    3    3    0    0 -0.36452629882E+02 -0.25619970072E+02 -0.40915365837E+02  0.99623117937E+02  0.79155046423E+02 0.  0.
          6    2    1    2  501    0  0.10743552015E+03  0.53978503151E+02  0.66333389323E+02  0.22045057702E+03  0.17245946937E+03 0.  0.
         24    2    5    5    0    0  0.11976440036E+03 -0.10613233095E+02  0.52841463987E+02  0.15315855871E+03  0.78798296169E+02 0.  0.
          5    1    5    5  501    0 -0.12328880212E+02  0.64591736246E+02  0.13491925337E+02  0.67292018307E+02  0.47000000000E+01 0. -1.
        -13    1    6    6    0    0  0.50817967956E+02 -0.12801417594E+01 -0.17940815682E+02  0.53907119172E+02  0.00000000000E+00 0.  1.
         14    1    6    6    0    0  0.68946432405E+02 -0.93330913354E+01  0.70782279668E+02  0.99251439538E+02  0.00000000000E+00 0. -1.
         -5    1    3    3    0  503 -0.70982890267E+02 -0.28358533079E+02 -0.20314349019E+03  0.21709938903E+03  0.47000000000E+01 0.  1.
         11    1    4    4    0    0 -0.63432677862E+01 -0.51018996110E+02 -0.24435316960E+02  0.56923279291E+02  0.00000000000E+00 0. -1.
        -12    1    4    4    0    0 -0.30109362095E+02  0.25399026038E+02 -0.16480048876E+02  0.42699838647E+02  0.00000000000E+00 0.  1.
</event>
<event>
12    1  0.8563264E-002  0.1893666E+03  0.7818608E-02  0.1159257E+00
         21   -1    0    0  501  502  0.00000000000E+00  0.00000000000E+00  0.74265454983E+03  0.74265454983E+03  0.00000000000E+00 0.  1.
         21   -1    0    0  502  503 -0.00000000000E+00 -0.00000000000E+00 -0.12166545789E+03  0.12166545789E+03  0.00000000000E+00 0.  1.
         -6    2    1    2    0  503 -0.76971431660E+02  0.43744802737E+00 -0.26014349513E+02  0.19017375694E+03  0.17194335927E+03 0.  0.
        -24    2    3    3    0    0 -0.11411705887E+03  0.27219360382E+02 -0.13406347446E+02  0.14244409985E+03  0.79668028258E+02 0.  0.
          6    2    1    2  501    0  0.76971431660E+02 -0.43744802737E+00  0.64700344146E+03  0.67414625078E+03  0.17301711342E+03 0.  0.
         24    2    5    5    0    0 -0.18108897587E+02  0.17292698449E+01  0.42218731702E+03  0.42999600302E+03  0.79520496819E+02 0.  0.
          5    1    5    5  501    0  0.95080329247E+02 -0.21667178723E+01  0.22481612443E+03  0.24415024776E+03  0.47000000000E+01 0. -1.
        -11    1    6    6    0    0 -0.76306958210E+01  0.40474813612E+02  0.23060394631E+03  0.23425332038E+03  0.00000000000E+00 0.  1.
         12    1    6    6    0    0 -0.10478201766E+02 -0.38745543767E+02  0.19158337071E+03  0.19574268264E+03  0.00000000000E+00 0. -1.
         -5    1    3    3    0  503  0.37145627208E+02 -0.26781912354E+02 -0.12608002067E+02  0.47729657092E+02  0.47000000000E+01 0.  1.
         11    1    4    4    0    0 -0.52382126043E+02 -0.74609597376E+01  0.28566441350E+02  0.60129814738E+02  0.00000000000E+00 0. -1.
        -12    1    4    4    0    0 -0.61734932824E+02  0.34680320119E+02 -0.41972788796E+02  0.82314285113E+02  0.00000000000E+00 0.  1.
</event>
<event>
12    1  0.8563264E-002  0.2219600E+03  0.7818608E-02  0.1132715E+00
         21   -1    0    0  503  502  0.00000000000E+00  0.00000000000E+00  0.35681881621E+02  0.35681881621E+02  0.00000000000E+00 0.  1.
         21   -1    0    0  501  503 -0.00000000000E+00 -0.00000000000E+00 -0.20021835024E+04  0.20021835024E+04  0.00000000000E+00 0. -1.
          6    2    1    2  501    0  0.13928129668E+03 -0.54512516370E+01 -0.15529358060E+04  0.15685009993E+04  0.17075354027E+03 0.  0.
         24    2    3    3    0    0  0.90713884377E+01 -0.25428725066E+02 -0.48080484251E+03  0.48829703128E+03  0.80819453325E+02 0.  0.
         -6    2    1    2    0  502 -0.13928129668E+03  0.54512516370E+01 -0.41356581482E+03  0.46936438476E+03  0.17273461362E+03 0.  0.
        -24    2    5    5    0    0 -0.46924716392E+02  0.50207189483E+01 -0.33686113006E+03  0.34921605167E+03  0.79052471001E+02 0.  0.
          5    1    3    3  501    0  0.13020990824E+03  0.19977473429E+02 -0.10721309635E+04  0.10802039680E+04  0.47000000000E+01 0. -1.
        -11    1    4    4    0    0 -0.55256793000E+01  0.28565927703E+02 -0.14973930929E+03  0.15253985087E+03  0.00000000000E+00 0.  1.
         12    1    4    4    0    0  0.14597067738E+02 -0.53994652769E+02 -0.33106553322E+03  0.33575718041E+03  0.00000000000E+00 0. -1.
         -5    1    5    5    0  502 -0.92356580283E+02  0.43053268871E+00 -0.76704684764E+02  0.12014833309E+03  0.47000000000E+01 0.  1.
         11    1    6    6    0    0 -0.62353867565E+02 -0.17182265696E+02 -0.25094843291E+03  0.25914928330E+03  0.00000000000E+00 0. -1.
        -12    1    6    6    0    0  0.15429151173E+02  0.22202984645E+02 -0.85912697152E+02  0.90066768372E+02  0.00000000000E+00 0.  1.
</event>
<event>
12    1  0.8563264E-002  0.1781096E+03  0.7818608E-02  0.1169777E+00
         21   -1    0    0  501  502  0.00000000000E+00  0.00000000000E+00  0.12303082472E+03  0.12303082472E+03  0.00000000000E+00 0.  1.
         21   -1    0    0  502  503 -0.00000000000E+00 -0.00000000000E+00 -0.30641242708E+03  0.30641242708E+03  0.00000000000E+00 0.  1.
         -6    2    1    2    0  503 -0.44155082248E+02 -0.56185009973E+01 -0.17773934079E+03  0.25124431561E+03  0.17190460733E+03 0.  0.
        -24    2    3    3    0    0 -0.66573333693E+02 -0.44528769332E+02 -0.66159759790E+02  0.13087538326E+03  0.79601708968E+02 0.  0.
          6    2    1    2  501    0  0.44155082248E+02  0.56185009973E+01 -0.56422615729E+01  0.17819893618E+03  0.17245807287E+03 0.  0.
         24    2    5    5    0    0  0.20861959510E+02 -0.32034397578E+02  0.52567957966E+02  0.10491298939E+03  0.82352420462E+02 0.  0.
          5    1    5    5  501    0  0.23293122738E+02  0.37652898575E+02 -0.58210219539E+02  0.73285946789E+02  0.47000000000E+01 0. -1.
        -13    1    6    6    0    0  0.63146556610E+01  0.58234203327E+01  0.62557279173E+02  0.63144281436E+02  0.00000000000E+00 0.  1.
         14    1    6    6    0    0  0.14547303849E+02 -0.37857817910E+02 -0.99893212072E+01  0.41768707957E+02  0.00000000000E+00 0. -1.
         -5    1    3    3    0  503  0.22418251445E+02  0.38910268334E+02 -0.11157958100E+03  0.12036893235E+03  0.47000000000E+01 0.  1.
         11    1    4    4    0    0 -0.62107617123E+02  0.91406765566E+00 -0.56999629409E+02  0.84303910805E+02  0.00000000000E+00 0. -1.
        -12    1    4    4    0    0 -0.44657165702E+01 -0.45442836987E+02 -0.91601303815E+01  0.46571472454E+02  0.00000000000E+00 0.  1.
</event>
<event>
12    1  0.8563264E-002  0.2085591E+03  0.7818608E-02  0.1145941E+00
         21   -1    0    0  503  502  0.00000000000E+00  0.00000000000E+00  0.74203946790E+02  0.74203946790E+02  0.00000000000E+00 0. -1.
         21   -1    0    0  501  503 -0.00000000000E+00 -0.00000000000E+00 -0.54910884660E+03  0.54910884660E+03  0.00000000000E+00 0. -1.
          6    2    1    2  501    0  0.87194374127E+02  0.10611157485E+02 -0.26013915686E+03  0.32394476133E+03  0.17190803331E+03 0.  0.
         24    2    3    3    0    0  0.63147078019E+02  0.73069139258E+02 -0.17430001549E+03  0.21499651614E+03  0.80723936852E+02 0.  0.
         -6    2    1    2    0  502 -0.87194374127E+02 -0.10611157485E+02 -0.21476574295E+03  0.29936803206E+03  0.18915982325E+03 0.  0.
        -24    2    5    5    0    0 -0.62612865129E+01 -0.36166032406E+02 -0.19431073527E+03  0.21193969774E+03  0.76253446021E+02 0.  0.
          5    1    3    3  501    0  0.24047296109E+02 -0.62457981773E+02 -0.85839141374E+02  0.10894824519E+03  0.47000000000E+01 0. -1.
        -13    1    4    4    0    0  0.34835063905E+02 -0.94196619458E+01 -0.72225145058E+02  0.80738363168E+02  0.00000000000E+00 0.  1.
         14    1    4    4    0    0  0.28312014113E+02  0.82488801204E+02 -0.10207487043E+03  0.13425815297E+03  0.00000000000E+00 0. -1.
         -5    1    5    5    0  502 -0.80933087614E+02  0.25554874921E+02 -0.20455007687E+02  0.87428334323E+02  0.47000000000E+01 0.  1.
         13    1    6    6    0    0  0.22385413099E+02 -0.46173096271E+02 -0.93425768538E+02  0.10659003596E+03  0.00000000000E+00 0. -1.
        -14    1    6    6    0    0 -0.28646699612E+02  0.10007063864E+02 -0.10088496673E+03  0.10534966178E+03  0.00000000000E+00 0.  1.
</event>
<event>
12    1  0.8563264E-002  0.1970402E+03  0.7818608E-02  0.1152708E+00
         21   -1    0    0  503  502  0.00000000000E+00  0.00000000000E+00  0.29013528497E+03  0.29013528497E+03  0.00000000000E+00 0.  1.
         21   -1    0    0  501  503 -0.00000000000E+00 -0.00000000000E+00 -0.13612419585E+03  0.13612419585E+03  0.00000000000E+00 0.  1.
          6    2    1    2  501    0 -0.53740551890E+02 -0.75540367063E+02  0.11178940376E+03  0.22474644826E+03  0.17152172235E+03 0.  0.
         24    2    3    3    0    0 -0.57128299576E+02 -0.14052389439E+02  0.12582416332E+03  0.16141152343E+03  0.82224373262E+02 0.  0.
         -6    2    1    2    0  502  0.53740551890E+02  0.75540367063E+02  0.42221685359E+02  0.20151303257E+03  0.17386902429E+03 0.  0.
        -24    2    5    5    0    0 -0.18150224473E+02 -0.22601928752E+00  0.50803770939E+02  0.96610357579E+02  0.80143972430E+02 0.  0.
          5    1    3    3  501    0  0.33877476857E+01 -0.61487977624E+02 -0.14034759564E+02  0.63334924826E+02  0.47000000000E+01 0. -1.
        -13    1    4    4    0    0 -0.13205893715E+02  0.33447161192E+02  0.52398332870E+02  0.63550716032E+02  0.00000000000E+00 0.  1.
         14    1    4    4    0    0 -0.43922405861E+02 -0.47499550631E+02  0.73425830453E+02  0.97860807398E+02  0.00000000000E+00 0. -1.
         -5    1    5    5    0  502  0.71890776364E+02  0.75766386351E+02 -0.85820855800E+01  0.10490267499E+03  0.47000000000E+01 0.  1.
         11    1    6    6    0    0 -0.49047693270E+02  0.45160176879E+01  0.40276709119E+02  0.63626126146E+02  0.00000000000E+00 0. -1.
        -12    1    6    6    0    0  0.30897468797E+02 -0.47420369754E+01  0.10527061820E+02  0.32984231434E+02  0.00000000000E+00 0.  1.
</event>
<event>
12    1  0.8563264E-002  0.2127466E+03  0.7818608E-02  0.1139740E+00
         21   -1    0    0  501  502  0.00000000000E+00  0.00000000000E+00  0.34007839307E+02  0.34007839307E+02  0.00000000000E+00 0.  1.
         21   -1    0    0  502  503 -0.00000000000E+00 -0.00000000000E+00 -0.17085950308E+04  0.17085950308E+04  0.00000000000E+00 0.  1.
         -6    2    1    2    0  503 -0.98431710921E+02  0.72022410615E+02 -0.42453751495E+03  0.47486125070E+03  0.17431315632E+03 0.  0.
        -24    2    3    3    0    0 -0.21062337725E+02  0.95005388520E+02 -0.31718052090E+03  0.34046686334E+03  0.76449697673E+02 0.  0.
          6    2    1    2  501    0  0.98431710921E+02 -0.72022410615E+02 -0.12500496765E+04  0.12677416194E+04  0.17224572685E+03 0.  0.
         24    2    5    5    0    0  0.58241082290E+02  0.11117735433E+02 -0.91134141650E+03  0.91663914728E+03  0.78539933744E+02 0.  0.
          5    1    5    5  501    0  0.40190628631E+02 -0.83140146048E+02 -0.33870826005E+03  0.35110247213E+03  0.47000000000E+01 0. -1.
        -11    1    6    6    0    0  0.73891701005E+01 -0.18265868534E+02 -0.57540616808E+02  0.60820756085E+02  0.00000000000E+00 0.  1.
         12    1    6    6    0    0  0.50851912189E+02  0.29383603967E+02 -0.85380079969E+03  0.85581839120E+03  0.00000000000E+00 0. -1.
         -5    1    3    3    0  503 -0.77369373196E+02 -0.22982977905E+02 -0.10735699405E+03  0.13439438736E+03  0.47000000000E+01 0.  1.
         11    1    4    4    0    0  0.25483130827E+02  0.25335554017E+02 -0.13899192450E+03  0.14356195642E+03  0.00000000000E+00 0. -1.
        -12    1    4    4    0    0 -0.46545468552E+02  0.69669834503E+02 -0.17818859640E+03  0.19690490692E+03  0.00000000000E+00 0.  1.
</event>
<event>
12    1  0.8563264E-002  0.1920730E+03  0.7818608E-02  0.1156689E+00
         21   -1    0    0  503  502  0.00000000000E+00  0.00000000000E+00  0.63910361179E+02  0.63910361179E+02  0.00000000000E+00 0.  1.
         21   -1    0    0  501  503 -0.00000000000E+00 -0.00000000000E+00 -0.59629084157E+03  0.59629084157E+03  0.00000000000E+00 0. -1.
          6    2    1    2  501    0  0.50034950691E+02  0.66477189576E+02 -0.32667190398E+03  0.37876197498E+03  0.17269449273E+03 0.  0.
         24    2    3    3    0    0  0.75577153287E+02  0.85769801781E+02 -0.31473372446E+03  0.34427691837E+03  0.80005713649E+02 0.  0.
         -6    2    1    2    0  502 -0.50034950691E+02 -0.66477189576E+02 -0.20570857641E+03  0.28143922777E+03  0.17311645645E+03 0.  0.
        -24    2    5    5    0    0  0.36997635113E+02 -0.47804373486E+02 -0.10236067027E+03  0.14496130004E+03  0.82957751677E+02 0.  0.
          5    1    3    3  501    0 -0.25542202597E+02 -0.19292612204E+02 -0.11938179526E+02  0.34485056612E+02  0.47000000000E+01 0. -1.
        -11    1    4    4    0    0  0.56268772309E+02  0.85102668060E+02 -0.17003471478E+03  0.19829383016E+03  0.00000000000E+00 0.  1.
         12    1    4    4    0    0  0.19308380979E+02  0.66713372136E+00 -0.14469900967E+03  0.14598308821E+03  0.00000000000E+00 0. -1.
         -5    1    5    5    0  502 -0.87032585803E+02 -0.18672816090E+02 -0.10334790615E+03  0.13647792773E+03  0.47000000000E+01 0.  1.
         11    1    6    6    0    0 -0.25660660453E+02 -0.22988833372E+02 -0.43435782625E+02  0.55440266657E+02  0.00000000000E+00 0. -1.
        -12    1    6    6    0    0  0.62658295566E+02 -0.24815540115E+02 -0.58924887640E+02  0.89521033382E+02  0.00000000000E+00 0.  1.
</event>
<event>
12    1  0.8563264E-002  0.2021443E+03  0.7818608E-02  0.1147975E+00
         21   -1    0    0  501  502  0.00000000000E+00  0.00000000000E+00  0.16988031413E+04  0.16988031413E+04  0.00000000000E+00 0. -1.
         21   -1    0    0  502  503 -0.00000000000E+00 -0.00000000000E+00 -0.27322583307E+02  0.27322583307E+02  0.00000000000E+00 0.  1.
         -6    2    1    2    0  503  0.94372693053E+02  0.44207616903E+02  0.53607383975E+03  0.57286480414E+03  0.17302717581E+03 0.  0.
        -24    2    3    3    0    0  0.11333955447E+03  0.14754715491E+02  0.26482340182E+03  0.29932119645E+03  0.79988675770E+02 0.  0.
          6    2    1    2  501    0 -0.94372693053E+02 -0.44207616903E+02  0.11354067183E+04  0.11532609205E+04  0.17321032378E+03 0.  0.
         24    2    5    5    0    0 -0.65882179539E+02 -0.66641778318E+01  0.10549658036E+04  0.10599118448E+04  0.77944846921E+02 0.  0.
          5    1    5    5  501    0 -0.28490513514E+02 -0.37543439071E+02  0.80440914660E+02  0.93349075672E+02  0.47000000000E+01 0. -1.
        -13    1    6    6    0    0 -0.55974633895E+02 -0.16993257137E+02  0.35405667285E+03  0.35885659813E+03  0.00000000000E+00 0.  1.
         14    1    6    6    0    0 -0.99075456435E+01  0.10329079306E+02  0.70090913078E+03  0.70105524672E+03  0.00000000000E+00 0. -1.
         -5    1    3    3    0  503 -0.18966861420E+02  0.29452901412E+02  0.27125043793E+03  0.27354360769E+03  0.47000000000E+01 0.  1.
         11    1    4    4    0    0  0.10988375733E+03  0.17998006474E+02  0.27014633341E+03  0.29219413036E+03  0.00000000000E+00 0. -1.
        -12    1    4    4    0    0  0.34557971450E+01 -0.32432909828E+01 -0.53229315878E+01  0.71270660861E+01  0.00000000000E+00 0.  1.
</event>
<event>
12    1  0.8563264E-002  0.2107905E+03  0.7818608E-02  0.1140964E+00
         21   -1    0    0  503  502  0.00000000000E+00  0.00000000000E+00  0.64492855184E+03  0.64492855184E+03  0.00000000000E+00 0.  1.
         21   -1    0    0  501  503 -0.00000000000E+00 -0.00000000000E+00 -0.72797380643E+02  0.72797380643E+02  0.00000000000E+00 0. -1.
          6    2    1    2  501    0  0.26994282007E+02 -0.11886607549E+03  0.36946557953E+03  0.42531190182E+03  0.17183586415E+03 0.  0.
         24    2    3    3    0    0  0.40669333273E+02 -0.14684293126E+03  0.34429125149E+03  0.38499381309E+03  0.80417219161E+02 0.  0.
         -6    2    1    2    0  502 -0.26994282007E+02  0.11886607549E+03  0.20266559167E+03  0.29241403067E+03  0.17197321920E+03 0.  0.
        -24    2    5    5    0    0 -0.53944396455E+02  0.13972118503E+03  0.13869199059E+03  0.21977825506E+03  0.81455544252E+02 0.  0.
          5    1    3    3  501    0 -0.13675051267E+02  0.27976855773E+02  0.25174328037E+02  0.40318088722E+02  0.47000000000E+01 0. -1.
        -11    1    4    4    0    0  0.49381580098E+02 -0.36608591614E+02  0.13289077090E+03  0.14641955615E+03  0.00000000000E+00 0.  1.
         12    1    4    4    0    0 -0.87122468248E+01 -0.11023433965E+03  0.21140048059E+03  0.23857425694E+03  0.00000000000E+00 0. -1.
         -5    1    5    5    0  502  0.26950114449E+02 -0.20855109537E+02  0.63973601085E+02  0.72635775609E+02  0.47000000000E+01 0.  1.
         13    1    6    6    0    0  0.20408625098E+02  0.39348902234E+02  0.25094513787E+02  0.50937046515E+02  0.00000000000E+00 0. -1.
        -14    1    6    6    0    0 -0.74353021554E+02  0.10037228279E+03  0.11359747680E+03  0.16884120854E+03  0.00000000000E+00 0.  1.
</event>
<event>
12    1  0.8563264E-002  0.2355070E+03  0.7818608E-02  0.1122829E+00
         21   -1    0    0  503  502  0.00000000000E+00  0.00000000000E+00  0.54761468432E+02  0.54761468432E+02  0.00000000000E+00 0. -1.
         21   -1    0    0  501  503 -0.00000000000E+00 -0.00000000000E+00 -0.11464453056E+04  0.11464453056E+04  0.00000000000E+00 0. -1.
          6    2    1    2  501    0  0.14665524096E+03  0.65715302956E+02 -0.75097342264E+03  0.78702429592E+03  0.17210432917E+03 0.  0.
         24    2    3    3    0    0  0.16784104494E+03  0.64935828675E+02 -0.52861356469E+03  0.56360665495E+03  0.76373310243E+02 0.  0.
         -6    2    1    2    0  502 -0.14665524096E+03 -0.65715302956E+02 -0.34071041452E+03  0.41418247810E+03  0.17215480784E+03 0.  0.
        -24    2    5    5    0    0 -0.99565708243E+02 -0.98415174010E+02 -0.30756809942E+03  0.34779566685E+03  0.82248485477E+02 0.  0.
          5    1    3    3  501    0 -0.21185803982E+02  0.77947428157E+00 -0.22235985795E+03  0.22341764098E+03  0.47000000000E+01 0. -1.
        -11    1    4    4    0    0  0.54776235945E+02 -0.56681412044E+01 -0.93280541747E+02  0.10832277377E+03  0.00000000000E+00 0.  1.
         12    1    4    4    0    0  0.11306480899E+03  0.70603969879E+02 -0.43533302294E+03  0.45528388118E+03  0.00000000000E+00 0. -1.
         -5    1    5    5    0  502 -0.47089532712E+02  0.32699871054E+02 -0.33142315096E+02  0.66386811250E+02  0.47000000000E+01 0.  1.
         13    1    6    6    0    0 -0.69302258109E+02 -0.73102619822E+02 -0.28514653496E+03  0.30241584351E+03  0.00000000000E+00 0. -1.
        -14    1    6    6    0    0 -0.30263450134E+02 -0.25312554189E+02 -0.22421564459E+02  0.45379823340E+02  0.00000000000E+00 0.  1.
</event>
<event>
12    1  0.8563264E-002  0.2143703E+03  0.7818608E-02  0.1138159E+00
         21   -1    0    0  503  502  0.00000000000E+00  0.00000000000E+00  0.31260553288E+03  0.31260553288E+03  0.00000000000E+00 0.  1.
         21   -1    0    0  501  503 -0.00000000000E+00 -0.00000000000E+00 -0.14808343903E+03  0.14808343903E+03  0.00000000000E+00 0.  1.
          6    2    1    2  501    0  0.12468932896E+03 -0.28552686652E+02  0.10217472347E+03  0.23747480204E+03  0.17202302990E+03 0.  0.
         24    2    3    3    0    0  0.79449875550E+02 -0.87690578491E+01  0.13632188566E+03  0.17725753874E+03  0.80295699960E+02 0.  0.
         -6    2    1    2    0  502 -0.12468932896E+03  0.28552686652E+02  0.62347370386E+02  0.22321416987E+03  0.17197292335E+03 0.  0.
        -24    2    5    5    0    0 -0.12125196736E+03  0.21237845625E+01 -0.99578669880E+01  0.14601028608E+03  0.80704984226E+02 0.  0.
          5    1    3    3  501    0  0.45239453411E+02 -0.19783628803E+02 -0.34147162190E+02  0.60217263298E+02  0.47000000000E+01 0. -1.
        -11    1    4    4    0    0  0.57741958695E+02 -0.24970438988E+02  0.34201639371E+02  0.71605926800E+02  0.00000000000E+00 0.  1.
         12    1    4    4    0    0  0.21707916855E+02  0.16201381139E+02  0.10212024628E+03  0.10565161194E+03  0.00000000000E+00 0. -1.
         -5    1    5    5    0  502 -0.34373616045E+01  0.26428902089E+02  0.72305237374E+02  0.77203883789E+02  0.47000000000E+01 0.  1.
         13    1    6    6    0    0 -0.90480036307E+02  0.87164560452E+01 -0.42846217050E+02  0.10049085477E+03  0.00000000000E+00 0. -1.
        -14    1    6    6    0    0 -0.30771931048E+02 -0.65926714827E+01  0.32888350062E+02  0.45519431318E+02  0.00000000000E+00 0.  1.
</event>
<event>
12    1  0.8563264E-002  0.2264607E+03  0.7818608E-02  0.1131892E+00
         21   -1    0    0  501  502  0.00000000000E+00  0.00000000000E+00  0.27800050567E+03  0.27800050567E+03  0.00000000000E+00 0.  1.
         21   -1    0    0  502  503 -0.00000000000E+00 -0.00000000000E+00 -0.18677279524E+03  0.18677279524E+03  0.00000000000E+00 0. -1.
         -6    2    1    2    0  503  0.11063548662E+03 -0.52581365330E+02 -0.16738727515E+02  0.22707846971E+03  0.19047161345E+03 0.  0.
        -24    2    3    3    0    0  0.11045552910E+03 -0.60495548227E+02 -0.75747519187E+02  0.16735582602E+03  0.80063415955E+02 0.  0.
          6    2    1    2  501    0 -0.11063548662E+03  0.52581365330E+02  0.10796643795E+03  0.23769483119E+03  0.17273410252E+03 0.  0.
         24    2    5    5    0    0 -0.11332029842E+03 -0.13813388166E+02  0.66296332012E+02  0.15912028548E+03  0.88835589066E+02 0.  0.
          5    1    5    5  501    0  0.26848118023E+01  0.66394753496E+02  0.41670105934E+02  0.78574545718E+02  0.47000000000E+01 0. -1.
        -11    1    6    6    0    0 -0.47477871208E+02  0.35380992507E+02  0.44556801768E+02  0.74103113761E+02  0.00000000000E+00 0.  1.
         12    1    6    6    0    0 -0.65842427214E+02 -0.49194380673E+02  0.21739530244E+02  0.85017171715E+02  0.00000000000E+00 0. -1.
         -5    1    3    3    0  503  0.17995751746E+00  0.79141828967E+01  0.59008791671E+02  0.59722643697E+02  0.47000000000E+01 0.  1.
         13    1    4    4    0    0  0.62297885223E+02 -0.21502618812E+01 -0.66487413937E+02  0.91138500873E+02  0.00000000000E+00 0. -1.
        -14    1    4    4    0    0  0.48157643879E+02 -0.58345286346E+02 -0.92601052494E+01  0.76217325143E+02  0.00000000000E+00 0.  1.
</event>
<event>
12    1  0.8563264E-002  0.1903830E+03  0.7818608E-02  0.1158496E+00
         21   -1    0    0  501  502  0.00000000000E+00  0.00000000000E+00  0.15283863946E+04  0.15283863946E+04  0.00000000000E+00 0. -1.
         21   -1    0    0  502  503 -0.00000000000E+00 -0.00000000000E+00 -0.23266038984E+03  0.23266038984E+03  0.00000000000E+00 0. -1.
         -6    2    1    2    0  503 -0.51876036259E+02 -0.61320957622E+02 -0.18670492083E+03  0.26665411730E+03  0.17261027730E+03 0.  0.
        -24    2    3    3    0    0  0.19642860640E+02 -0.81185115817E+00 -0.37720306718E+02  0.90600688422E+02  0.79994763124E+02 0.  0.
          6    2    1    2  501    0  0.51876036259E+02  0.61320957622E+02  0.14824309256E+04  0.14943926672E+04  0.17075307172E+03 0.  0.
         24    2    5    5    0    0  0.45444350572E+02  0.63169293689E+02  0.59681841416E+03  0.60874240134E+03  0.91211529119E+02 0.  0.
          5    1    5    5  501    0  0.64316856873E+01 -0.18483360663E+01  0.88561251146E+03  0.88565026584E+03  0.47000000000E+01 0. -1.
        -11    1    6    6    0    0  0.11081029456E+01  0.81468820013E+01  0.48410696500E+00  0.82361361107E+01  0.00000000000E+00 0.  1.
         12    1    6    6    0    0  0.44336247627E+02  0.55022411687E+02  0.59633430719E+03  0.60050626523E+03  0.00000000000E+00 0. -1.
         -5    1    3    3    0  503 -0.71518896900E+02 -0.60509106464E+02 -0.14898461411E+03  0.17605342888E+03  0.47000000000E+01 0.  1.
         13    1    4    4    0    0 -0.26045766811E+02  0.14558485890E+01 -0.36469287354E+02  0.44838715236E+02  0.00000000000E+00 0. -1.
        -14    1    4    4    0    0  0.45688627451E+02 -0.22676997471E+01 -0.12510193638E+01  0.45761973187E+02  0.00000000000E+00 0.  1.
</event>
<event>
12    1  0.8563264E-002  0.2191358E+03  0.7818608E-02  0.1134719E+00
         21   -1    0    0  501  502  0.00000000000E+00  0.00000000000E+00  0.57091019763E+02  0.57091019763E+02  0.00000000000E+00 0.  1.
         21   -1    0    0  502  503 -0.00000000000E+00 -0.00000000000E+00 -0.83726772351E+03  0.83726772351E+03  0.00000000000E+00 0. -1.
         -6    2    1    2    0  503  0.12176742802E+03 -0.57407133473E+02 -0.38844481954E+03  0.44599312404E+03  0.17290923446E+03 0.  0.
        -24    2    3    3    0    0  0.91817196009E+02  0.54475215049E+01 -0.34009870112E+03  0.36109812291E+03  0.79149572924E+02 0.  0.
          6    2    1    2  501    0 -0.12176742802E+03  0.57407133473E+02 -0.39173188421E+03  0.44836561923E+03  0.17162451429E+03 0.  0.
         24    2    5    5    0    0 -0.13037570928E+03 -0.45786688405E+01 -0.24636052679E+03  0.29002654082E+03  0.80019344180E+02 0.  0.
          5    1    5    5  501    0  0.86082812568E+01  0.61985802314E+02 -0.14537135742E+03  0.15833907841E+03  0.47000000000E+01 0. -1.
        -11    1    6    6    0    0  0.73669254735E+01  0.12067145703E+02 -0.19152746260E+02  0.23805782609E+02  0.00000000000E+00 0.  1.
         12    1    6    6    0    0 -0.13774263475E+03 -0.16645814543E+02 -0.22720778053E+03  0.26622075821E+03  0.00000000000E+00 0. -1.
         -5    1    3    3    0  503  0.29950232012E+02 -0.62854654978E+02 -0.48346118417E+02  0.84895001125E+02  0.47000000000E+01 0.  1.
         13    1    4    4    0    0  0.55209209268E+02 -0.34812361313E+02 -0.15538956809E+03  0.16854042589E+03  0.00000000000E+00 0. -1.
        -14    1    4    4    0    0  0.36607986740E+02  0.40259882818E+02 -0.18470913303E+03  0.19255769702E+03  0.00000000000E+00 0.  1.
</event>
<event>
12    1  0.8563264E-002  0.1953350E+03  0.7818608E-02  0.1153959E+00
         21   -1    0    0  501  502  0.00000000000E+00  0.00000000000E+00  0.50574017676E+03  0.50574017676E+03  0.00000000000E+00 0. -1.
         21   -1    0    0  502  503 -0.00000000000E+00 -0.00000000000E+00 -0.16268865143E+03  0.16268865143E+03  0.00000000000E+00 0.  1.
         -6    2    1    2    0  503 -0.31976785608E+02 -0.88259608725E+02 -0.73978851710E+02  0.20791812416E+03  0.17013172104E+03 0.  0.
        -24    2    3    3    0    0 -0.26349161689E+02 -0.12416979743E+03 -0.77734284572E+02  0.17107514545E+03  0.84330714914E+02 0.  0.
          6    2    1    2  501    0  0.31976785608E+02  0.88259608725E+02  0.41703037704E+03  0.46051070403E+03  0.17129944485E+03 0.  0.
         24    2    5    5    0    0 -0.45005520869E+01  0.29166784274E+02  0.37044310360E+03  0.37675497519E+03  0.62010177028E+02 0.  0.
          5    1    5    5  501    0  0.36477337695E+02  0.59092824451E+02  0.46587273442E+02  0.83755728841E+02  0.47000000000E+01 0. -1.
        -13    1    6    6    0    0  0.14454250579E+02 -0.76507847363E+01  0.22323589165E+03  0.22383414214E+03  0.00000000000E+00 0.  1.
         14    1    6    6    0    0 -0.18954802665E+02  0.36817569010E+02  0.14720721195E+03  0.15292083305E+03  0.00000000000E+00 0. -1.
         -5    1    3    3    0  503 -0.56276239195E+01  0.35910188708E+02  0.37554328610E+01  0.36842978706E+02  0.47000000000E+01 0.  1.
         13    1    4    4    0    0  0.10625298966E+02 -0.22806586615E+01 -0.35118377720E+02  0.36761376957E+02  0.00000000000E+00 0. -1.
        -14    1    4    4    0    0 -0.36974460655E+02 -0.12188913877E+03 -0.42615906851E+02  0.13431376850E+03  0.00000000000E+00 0.  1.
</event>
<event>
12    1  0.8563264E-002  0.1905733E+03  0.7818608E-02  0.1158084E+00
         21   -1    0    0  503  502  0.00000000000E+00  0.00000000000E+00  0.91589363693E+02  0.91589363693E+02  0.00000000000E+00 0.  1.
         21   -1    0    0  501  503 -0.00000000000E+00 -0.00000000000E+00 -0.64750477894E+03  0.64750477894E+03  0.00000000000E+00 0.  1.
          6    2    1    2  501    0  0.64665089786E+01  0.80329821947E+02 -0.50889216479E+03  0.54340540297E+03  0.17269481913E+03 0.  0.
         24    2    3    3    0    0 -0.64425458243E+01  0.11888092039E+03 -0.44583914254E+03  0.46823490009E+03  0.79354905434E+02 0.  0.
         -6    2    1    2    0  502 -0.64665089786E+01 -0.80329821947E+02 -0.47023250453E+02  0.19568873966E+03  0.17201221095E+03 0.  0.
        -24    2    5    5    0    0 -0.57599994645E+02 -0.88261826577E+02 -0.11993428772E+02  0.13302512613E+03  0.80274108121E+02 0.  0.
          5    1    3    3  501    0  0.12909054803E+02 -0.38551098444E+02 -0.63053022252E+02  0.75170502873E+02  0.47000000000E+01 0. -1.
        -13    1    4    4    0    0  0.11637117175E+02  0.17070621917E+02 -0.20627909816E+03  0.20731110672E+03  0.00000000000E+00 0.  1.
         14    1    4    4    0    0 -0.18079663000E+02  0.10181029847E+03 -0.23956004437E+03  0.26092379338E+03  0.00000000000E+00 0. -1.
         -5    1    5    5    0  502  0.51133485666E+02  0.79320046301E+01 -0.35029821680E+02  0.62663613531E+02  0.47000000000E+01 0.  1.
         13    1    6    6    0    0 -0.53104824836E+02 -0.60889365595E+02 -0.42915573975E+02  0.91484336108E+02  0.00000000000E+00 0. -1.
        -14    1    6    6    0    0 -0.44951698091E+01 -0.27372460981E+02  0.30922145203E+02  0.41540790023E+02  0.00000000000E+00 0.  1.
</event>
<event>
12    1  0.8563264E-002  0.1946638E+03  0.7818608E-02  0.1154520E+00
         21   -1    0    0  503  502  0.00000000000E+00  0.00000000000E+00  0.25107468553E+04  0.25107468553E+04  0.00000000000E+00 0. -1.
         21   -1    0    0  501  503 -0.00000000000E+00 -0.00000000000E+00 -0.18625022478E+02  0.18625022478E+02  0.00000000000E+00 0. -1.
          6    2    1    2  501    0 -0.74232009928E+02  0.52631023657E+02  0.68749988624E+03  0.71428114554E+03  0.17105860209E+03 0.  0.
         24    2    3    3    0    0 -0.46952760456E+02  0.84719720171E+02  0.30981982945E+03  0.33423094203E+03  0.79624136966E+02 0.  0.
         -6    2    1    2    0  502  0.74232009928E+02 -0.52631023657E+02  0.18046219466E+04  0.18150907322E+04  0.17208596750E+03 0.  0.
        -24    2    5    5    0    0 -0.80447633901E+01 -0.38023530748E+02  0.13450116047E+04  0.13479220233E+04  0.79542799255E+02 0.  0.
          5    1    3    3  501    0 -0.27279249472E+02 -0.32088696514E+02  0.37768005679E+03  0.38005020352E+03  0.47000000000E+01 0. -1.
        -13    1    4    4    0    0 -0.57367208324E+01 -0.36480391937E+01  0.12571745476E+03  0.12590113815E+03  0.00000000000E+00 0.  1.
         14    1    4    4    0    0 -0.41216039623E+02  0.88367759365E+02  0.18410237469E+03  0.20832980388E+03  0.00000000000E+00 0. -1.
         -5    1    5    5    0  502  0.82276773318E+02 -0.14607492909E+02  0.45961034186E+03  0.46716870895E+03  0.47000000000E+01 0.  1.
         13    1    6    6    0    0 -0.22854944208E+01 -0.11099694136E+02  0.23162433356E+02  0.25786139952E+02  0.00000000000E+00 0. -1.
        -14    1    6    6    0    0 -0.57592689694E+01 -0.26923836612E+02  0.13218491714E+04  0.13221358833E+04  0.00000000000E+00 0.  1.
</event>
<event>
12    1  0.8563264E-002  0.1741397E+03  0.7818608E-02  0.1173649E+00
         21   -1    0    0  501  502  0.00000000000E+00  0.00000000000E+00  0.32349318858E+03  0.32349318858E+03  0.00000000000E+00 0.  1.
         21   -1    0    0  502  503 -0.00000000000E+00 -0.00000000000E+00 -0.11859640995E+03  0.11859640995E+03  0.00000000000E+00 0.  1.
         -6    2    1    2    0  503  0.19664382040E+02 -0.15177759216E+01  0.10807385769E+01  0.17414308855E+03  0.17301923514E+03 0.  0.
        -24    2    3    3    0    0  0.72416227958E+02 -0.25115302705E+02 -0.15690360769E+02  0.11378614785E+03  0.82620890329E+02 0.  0.
          6    2    1    2  501    0 -0.19664382040E+02  0.15177759216E+01  0.20381604005E+03  0.26794650998E+03  0.17281597862E+03 0.  0.
         24    2    5    5    0    0  0.38764999402E+02 -0.40985125097E+02  0.12060684802E+03  0.15764533660E+03  0.84401034976E+02 0.  0.
          5    1    5    5  501    0 -0.58429381441E+02  0.42502901019E+02  0.83209192034E+02  0.11030117338E+03  0.47000000000E+01 0. -1.
        -11    1    6    6    0    0  0.43470303379E+02  0.62158062853E+01  0.24052200396E+02  0.50068072337E+02  0.00000000000E+00 0.  1.
         12    1    6    6    0    0 -0.47053039773E+01 -0.47200931383E+02  0.96554647625E+02  0.10757726427E+03  0.00000000000E+00 0. -1.
         -5    1    3    3    0  503 -0.52751845918E+02  0.23597526783E+02  0.16771099346E+02  0.60356940705E+02  0.47000000000E+01 0.  1.
         13    1    4    4    0    0  0.31459055624E+02 -0.50155162660E+02  0.88658548114E+01  0.59864980612E+02  0.00000000000E+00 0. -1.
        -14    1    4    4    0    0  0.40957172334E+02  0.25039859955E+02 -0.24556215580E+02  0.53921167233E+02  0.00000000000E+00 0.  1.
</event>
<event>
12    1  0.8563264E-002  0.2246139E+03  0.7818608E-02  0.1130641E+00
         21   -1    0    0  503  502  0.00000000000E+00  0.00000000000E+00  0.68814570667E+02  0.68814570667E+02  0.00000000000E+00 0. -1.
         21   -1    0    0  501  503 -0.00000000000E+00 -0.00000000000E+00 -0.73153137776E+03  0.73153137776E+03  0.00000000000E+00 0. -1.
          6    2    1    2  501    0  0.14008024000E+03  0.34403996015E+02 -0.31642415156E+03  0.38804077651E+03  0.17217808213E+03 0.  0.
         24    2    3    3    0    0  0.97578153015E+02  0.33859103692E+02 -0.91367319309E+02  0.15895696641E+03  0.79065765572E+02 0.  0.
         -6    2    1    2    0  502 -0.14008024000E+03 -0.34403996015E+02 -0.34629265554E+03  0.41230517192E+03  0.17108723778E+03 0.  0.
        -24    2    5    5    0    0 -0.81546703925E+02  0.17561444535E+02 -0.30529413073E+03  0.32382042242E+03  0.68533863628E+02 0.  0.
          5    1    3    3  501    0  0.42502086985E+02  0.54489232281E+00 -0.22505683225E+03  0.22908381009E+03  0.47000000000E+01 0. -1.
        -13    1    4    4    0    0 -0.24829136661E+01  0.24643198668E+02 -0.26442479856E+01  0.24908716311E+02  0.00000000000E+00 0.  1.
         14    1    4    4    0    0  0.10006106668E+03  0.92159050241E+01 -0.88723071324E+02  0.13404825010E+03  0.00000000000E+00 0. -1.
         -5    1    5    5    0  502 -0.58533536074E+02 -0.51965440550E+02 -0.40998524803E+02  0.88484749494E+02  0.47000000000E+01 0.  1.
         11    1    6    6    0    0  0.52058532603E+01 -0.14197016842E+02 -0.54233181319E+02  0.56301813038E+02  0.00000000000E+00 0. -1.
        -12    1    6    6    0    0 -0.86752557185E+02  0.31758461377E+02 -0.25106094941E+03  0.26751860939E+03  0.00000000000E+00 0.  1.
</event>
<event>
12    1  0.8563264E-002  0.1923824E+03  0.7818608E-02  0.1160191E+00
         21   -1    0    0  501  502  0.00000000000E+00  0.00000000000E+00  0.19963681917E+03  0.19963681917E+03  0.00000000000E+00 0. -1.
         21   -1    0    0  502  503 -0.00000000000E+00 -0.00000000000E+00 -0.17026347551E+03  0.17026347551E+03  0.00000000000E+00 0. -1.
         -6    2    1    2    0  503  0.38459997987E+02  0.14589555299E+02  0.24139625689E+02  0.17744670735E+03  0.17091689750E+03 0.  0.
        -24    2    3    3    0    0 -0.10175446045E+02 -0.42974134885E+02  0.41668807201E+02  0.99933179186E+02  0.79372758786E+02 0.  0.
          6    2    1    2  501    0 -0.38459997987E+02 -0.14589555299E+02  0.52337179689E+01  0.19245358733E+03  0.18793340550E+03 0.  0.
         24    2    5    5    0    0 -0.20941244244E+02  0.57948161396E+02  0.41509411278E+02  0.10934737215E+03  0.80232733046E+02 0.  0.
          5    1    5    5  501    0 -0.17518753743E+02 -0.72537716696E+02 -0.36275693309E+02  0.83106215178E+02  0.47000000000E+01 0. -1.
        -13    1    6    6    0    0  0.26071811268E+02 -0.59530699899E+00  0.10695748100E+02  0.28186747962E+02  0.00000000000E+00 0.  1.
         14    1    6    6    0    0 -0.47013055513E+02  0.58543468395E+02  0.30813663179E+02  0.81160624190E+02  0.00000000000E+00 0. -1.
         -5    1    3    3    0  503  0.48635444032E+02  0.57563690184E+02 -0.17529181512E+02  0.77513528163E+02  0.47000000000E+01 0.  1.
         13    1    4    4    0    0  0.29698924737E+02  0.30207430817E+01  0.11453724269E+02  0.31974033510E+02  0.00000000000E+00 0. -1.
        -14    1    4    4    0    0 -0.39874370782E+02 -0.45994877967E+02  0.30215082932E+02  0.67959145676E+02  0.00000000000E+00 0.  1.
</event>
<event>
12    1  0.8563264E-002  0.2140980E+03  0.7818608E-02  0.1138661E+00
         21   -1    0    0  503  502  0.00000000000E+00  0.00000000000E+00  0.10380429950E+03  0.10380429950E+03  0.00000000000E+00 0.  1.
         21   -1    0    0  501  503 -0.00000000000E+00 -0.00000000000E+00 -0.60197451223E+03  0.60197451223E+03  0.00000000000E+00 0.  1.
          6    2    1    2  501    0 -0.53044866116E+02  0.11258683007E+03 -0.43369536599E+03  0.48366271546E+03  0.17420792094E+03 0.  0.
         24    2    3    3    0    0 -0.18736402822E+02  0.13418674885E+03 -0.25691006997E+03  0.30222744316E+03  0.83555412681E+02 0.  0.
         -6    2    1    2    0  502  0.53044866116E+02 -0.11258683007E+03 -0.64474846734E+02  0.22211609627E+03  0.17230496869E+03 0.  0.
        -24    2    5    5    0    0 -0.30835740879E+01 -0.94916608816E+02 -0.95464938223E+02  0.15544440596E+03  0.77657825463E+02 0.  0.
          5    1    3    3  501    0 -0.34308463294E+02 -0.21599918784E+02 -0.17678529602E+03  0.18143527230E+03  0.47000000000E+01 0. -1.
        -13    1    4    4    0    0 -0.29555398211E+02  0.63003985049E+02 -0.19576671055E+03  0.20776820896E+03  0.00000000000E+00 0.  1.
         14    1    4    4    0    0  0.10818995389E+02  0.71182763806E+02 -0.61143359421E+02  0.94459234200E+02  0.00000000000E+00 0. -1.
         -5    1    5    5    0  502  0.56128440204E+02 -0.17670221254E+02  0.30990091489E+02  0.66671690315E+02  0.47000000000E+01 0.  1.
         13    1    6    6    0    0  0.44821060076E+01  0.55951401150E+01 -0.39517040489E+02  0.40162063645E+02  0.00000000000E+00 0. -1.
        -14    1    6    6    0    0 -0.75656800955E+01 -0.10051174893E+03 -0.55947897733E+02  0.11528234231E+03  0.00000000000E+00 0.  1.
</event>
<event>
12    1  0.8563264E-002  0.1741613E+03  0.7818608E-02  0.1173697E+00
         21   -1    0    0  503  502  0.00000000000E+00  0.00000000000E+00  0.47345744381E+03  0.47345744381E+03  0.00000000000E+00 0.  1.
         21   -1    0    0  501  503 -0.00000000000E+00 -0.00000000000E+00 -0.75560254440E+02  0.75560254440E+02  0.00000000000E+00 0.  1.
          6    2    1    2  501    0  0.11987025967E+02  0.27388648771E+02  0.30660088281E+03  0.35237798474E+03  0.17109154251E+03 0.  0.
         24    2    3    3    0    0  0.58719351988E+02  0.52809716762E+02  0.14730108293E+03  0.18436412449E+03  0.77818332589E+02 0.  0.
         -6    2    1    2    0  502 -0.11987025967E+02 -0.27388648771E+02  0.91296306559E+02  0.19663971351E+03  0.17157603114E+03 0.  0.
        -24    2    5    5    0    0  0.47995870205E+02 -0.48495490409E+02  0.78227318726E+02  0.13155257929E+03  0.80815540441E+02 0.  0.
          5    1    3    3  501    0 -0.46732326021E+02 -0.25421067991E+02  0.15929979988E+03  0.16801386025E+03  0.47000000000E+01 0. -1.
        -11    1    4    4    0    0  0.95060756628E+01  0.26893940202E+02  0.17846917648E+01  0.28580318731E+02  0.00000000000E+00 0.  1.
         12    1    4    4    0    0  0.49213276325E+02  0.25915776560E+02  0.14551639116E+03  0.15578380576E+03  0.00000000000E+00 0. -1.
         -5    1    5    5    0  502 -0.59982896172E+02  0.21106841638E+02  0.13068987834E+02  0.65087134213E+02  0.47000000000E+01 0.  1.
         11    1    6    6    0    0  0.41989078343E+02 -0.11750391176E+02 -0.14273869556E+01  0.43625586832E+02  0.00000000000E+00 0. -1.
        -12    1    6    6    0    0  0.60067918622E+01 -0.36745099232E+02  0.79654705681E+02  0.87926992461E+02  0.00000000000E+00 0.  1.
</event>
<event>
12    1  0.8563264E-002  0.2828709E+03  0.7818608E-02  0.1094331E+00
         21   -1    0    0  501  502  0.00000000000E+00  0.00000000000E+00  0.47582514278E+03  0.47582514278E+03  0.00000000000E+00 0.  1.
         21   -1    0    0  502  503 -0.00000000000E+00 -0.00000000000E+00 -0.28406151513E+03  0.28406151513E+03  0.00000000000E+00 0.  1.
         -6    2    1    2    0  503  0.18376582175E+03 -0.12507953279E+03 -0.14757856937E+03  0.31905390416E+03  0.17493196636E+03 0.  0.
        -24    2    3    3    0    0  0.39049105486E+02 -0.38103696632E+02 -0.61258911100E+01  0.98738960889E+02  0.82067847049E+02 0.  0.
          6    2    1    2  501    0 -0.18376582175E+03  0.12507953279E+03  0.33934219703E+03  0.44083275375E+03  0.17252716694E+03 0.  0.
         24    2    5    5    0    0 -0.11396351221E+03  0.26133317158E+02  0.26117634374E+03  0.29662905538E+03  0.78135021508E+02 0.  0.
          5    1    5    5  501    0 -0.69802309534E+02  0.98946215631E+02  0.78165853289E+02  0.14420369837E+03  0.47000000000E+01 0. -1.
        -11    1    6    6    0    0 -0.42400032361E+02  0.43251322760E+02  0.74759570827E+02  0.96215555369E+02  0.00000000000E+00 0.  1.
         12    1    6    6    0    0 -0.71563479852E+02 -0.17118005602E+02  0.18641677291E+03  0.20041350001E+03  0.00000000000E+00 0. -1.
         -5    1    3    3    0  503  0.14471671626E+03 -0.86975836157E+02 -0.14145267826E+03  0.22031494327E+03  0.47000000000E+01 0.  1.
         11    1    4    4    0    0  0.28479907312E+02  0.21516903583E+02 -0.12578927895E+02  0.37845893929E+02  0.00000000000E+00 0. -1.
        -12    1    4    4    0    0  0.10569198174E+02 -0.59620600215E+02  0.64530367854E+01  0.60893066960E+02  0.00000000000E+00 0.  1.
</event>
<event>
12    1  0.8563264E-002  0.2268882E+03  0.7818608E-02  0.1128916E+00
         21   -1    0    0  503  502  0.00000000000E+00  0.00000000000E+00  0.10237725583E+03  0.10237725583E+03  0.00000000000E+00 0.  1.
         21   -1    0    0  501  503 -0.00000000000E+00 -0.00000000000E+00 -0.60773865365E+03  0.60773865365E+03  0.00000000000E+00 0.  1.
          6    2    1    2  501    0 -0.13186177987E+03 -0.65174622424E+02 -0.40060675772E+03  0.46021238249E+03  0.17226259684E+03 0.  0.
         24    2    3    3    0    0 -0.14138545203E+03 -0.29559668393E+01 -0.30986924101E+03  0.34968072018E+03  0.79114320821E+02 0.  0.
         -6    2    1    2    0  502  0.13186177987E+03  0.65174622424E+02 -0.10475464011E+03  0.24990352699E+03  0.17275120196E+03 0.  0.
        -24    2    5    5    0    0  0.83545522766E+02  0.10776812751E+03 -0.95330315508E+02  0.18463810528E+03  0.80059585227E+02 0.  0.
          5    1    3    3  501    0  0.95236721551E+01 -0.62218655585E+02 -0.90737516704E+02  0.11053166230E+03  0.47000000000E+01 0. -1.
        -11    1    4    4    0    0 -0.10999796588E+03 -0.34400776257E+02 -0.24841212834E+03  0.27384585338E+03  0.00000000000E+00 0.  1.
         12    1    4    4    0    0 -0.31387486151E+02  0.31444809417E+02 -0.61457112670E+02  0.75834866809E+02  0.00000000000E+00 0. -1.
         -5    1    5    5    0  502  0.48316257105E+02 -0.42593505088E+02 -0.94243245984E+01  0.65265421706E+02  0.47000000000E+01 0.  1.
         13    1    6    6    0    0  0.70216552029E+02  0.10821958039E+03 -0.51635803237E+02  0.13895358194E+03  0.00000000000E+00 0. -1.
        -14    1    6    6    0    0  0.13328970737E+02 -0.45145287658E+00 -0.43694512270E+02  0.45684523344E+02  0.00000000000E+00 0.  1.
</event>
<event>
12    1  0.8563264E-002  0.2343017E+03  0.7818608E-02  0.1124066E+00
         21   -1    0    0  503  502  0.00000000000E+00  0.00000000000E+00  0.28002719609E+03  0.28002719609E+03  0.00000000000E+00 0. -1.
         21   -1    0    0  501  503 -0.00000000000E+00 -0.00000000000E+00 -0.19428510616E+03  0.19428510616E+03  0.00000000000E+00 0. -1.
          6    2    1    2  501    0 -0.20931204353E+02 -0.15352678607E+03  0.34393162754E+02  0.23681251803E+03  0.17575178432E+03 0.  0.
         24    2    3    3    0    0 -0.12261323472E+02 -0.29595211357E+00  0.14602201805E+02  0.81994471774E+02  0.79746106257E+02 0.  0.
         -6    2    1    2    0  502  0.20931204353E+02  0.15352678607E+03  0.51348927169E+02  0.23749978422E+03  0.17251332072E+03 0.  0.
        -24    2    5    5    0    0 -0.53774660367E+01  0.15816295503E+03  0.87982568985E+02  0.19191739822E+03  0.63615389726E+02 0.  0.
          5    1    3    3  501    0 -0.86698808808E+01 -0.15323083396E+03  0.19790960949E+02  0.15481804625E+03  0.47000000000E+01 0. -1.
        -13    1    4    4    0    0 -0.10606658341E+02  0.13889489910E+02  0.45073185626E+02  0.48342643635E+02  0.00000000000E+00 0.  1.
         14    1    4    4    0    0 -0.16546651305E+01 -0.14185442024E+02 -0.30470983821E+02  0.33651828140E+02  0.00000000000E+00 0. -1.
         -5    1    5    5    0  502  0.26308670389E+02 -0.46361689607E+01 -0.36633641816E+02  0.45582385995E+02  0.47000000000E+01 0.  1.
         11    1    6    6    0    0  0.19299456622E+02  0.10837934300E+03  0.79315234459E+02  0.13568145574E+03  0.00000000000E+00 0. -1.
        -12    1    6    6    0    0 -0.24676922658E+02  0.49783612036E+02  0.86673345255E+01  0.56235942483E+02  0.00000000000E+00 0.  1.
</event>
<event>
12    1  0.8563264E-002  0.1728939E+03  0.7818608E-02  0.1175056E+00
         21   -1    0    0  503  502  0.00000000000E+00  0.00000000000E+00  0.16700129127E+03  0.16700129127E+03  0.00000000000E+00 0.  1.
         21   -1    0    0  501  503 -0.00000000000E+00 -0.00000000000E+00 -0.31781732825E+03  0.31781732825E+03  0.00000000000E+00 0.  1.
          6    2    1    2  501    0  0.24673068889E+01 -0.12442915449E+02 -0.23597518000E+03  0.29208984458E+03  0.17167200699E+03 0.  0.
         24    2    3    3    0    0 -0.15808392609E+02 -0.47242605747E+02 -0.23432091342E+03  0.25246855945E+03  0.79701405078E+02 0.  0.
         -6    2    1    2    0  502 -0.24673068889E+01  0.12442915449E+02  0.85159143024E+02  0.19272877494E+03  0.17242791915E+03 0.  0.
        -24    2    5    5    0    0 -0.40933490882E+02  0.48436602813E+02  0.95007212932E+02  0.13893037978E+03  0.79079863106E+02 0.  0.
          5    1    3    3  501    0  0.18275699498E+02  0.34799690298E+02 -0.16542665761E+01  0.39621285125E+02  0.47000000000E+01 0. -1.
        -11    1    4    4    0    0 -0.16813836007E+02 -0.62035227550E+02 -0.11104787358E+03  0.12830707215E+03  0.00000000000E+00 0.  1.
         12    1    4    4    0    0  0.10054433973E+01  0.14792621803E+02 -0.12327303985E+03  0.12416148730E+03  0.00000000000E+00 0. -1.
         -5    1    5    5    0  502  0.38466183993E+02 -0.35993687364E+02 -0.98480699082E+01  0.53798395162E+02  0.47000000000E+01 0.  1.
         11    1    6    6    0    0 -0.28341770507E+02  0.11968644310E+01 -0.38672349134E+01  0.28629424475E+02  0.00000000000E+00 0. -1.
        -12    1    6    6    0    0 -0.12591720376E+02  0.47239738382E+02  0.98874447846E+02  0.11030095531E+03  0.00000000000E+00 0.  1.
</event>
<event>
12    1  0.8563264E-002  0.2096592E+03  0.7818608E-02  0.1142510E+00
         21   -1    0    0  503  502  0.00000000000E+00  0.00000000000E+00  0.79643556960E+03  0.79643556960E+03  0.00000000000E+00 0. -1.
         21   -1    0    0  501  503 -0.00000000000E+00 -0.00000000000E+00 -0.17266415625E+03  0.17266415625E+03  0.00000000000E+00 0. -1.
          6    2    1    2  501    0  0.76354264912E+02  0.91175306397E+02 -0.88487831073E+02  0.22756778110E+03  0.17266756638E+03 0.  0.
         24    2    3    3    0    0  0.10313973253E+02  0.43031255862E+02  0.20027352564E+02  0.91638369993E+02  0.77707328991E+02 0.  0.
         -6    2    1    2    0  502 -0.76354264912E+02 -0.91175306397E+02  0.71225924443E+03  0.74153194475E+03  0.16856299576E+03 0.  0.
        -24    2    5    5    0    0 -0.37109216092E+01 -0.96818869786E+02  0.35543918121E+03  0.37731833620E+03  0.81513500784E+02 0.  0.
          5    1    3    3  501    0  0.66040291659E+02  0.48144050535E+02 -0.10851518364E+03  0.13592941111E+03  0.47000000000E+01 0. -1.
        -11    1    4    4    0    0  0.43165865775E+02  0.20359665623E+02  0.19935785624E+02  0.51722756122E+02  0.00000000000E+00 0.  1.
         12    1    4    4    0    0 -0.32851892522E+02  0.22671590239E+02  0.91566939290E-01  0.39915613871E+02  0.00000000000E+00 0. -1.
         -5    1    5    5    0  502 -0.72643343303E+02  0.56435633892E+01  0.35682006322E+03  0.36421360854E+03  0.47000000000E+01 0.  1.
         13    1    6    6    0    0 -0.36912569762E+02 -0.44477431993E+02  0.23327632069E+03  0.24033023438E+03  0.00000000000E+00 0. -1.
        -14    1    6    6    0    0  0.33201648153E+02 -0.52341437793E+02  0.12216286052E+03  0.13698810182E+03  0.00000000000E+00 0.  1.
</event>
<event>
12    1  0.8563264E-002  0.1801353E+03  0.7818608E-02  0.1167805E+00
         21   -1    0    0  501  502  0.00000000000E+00  0.00000000000E+00  0.33037448337E+03  0.33037448337E+03  0.00000000000E+00 0.  1.
         21   -1    0    0  502  503 -0.00000000000E+00 -0.00000000000E+00 -0.10211255483E+03  0.10211255483E+03  0.00000000000E+00 0.  1.
         -6    2    1    2    0  503  0.21842633223E+02  0.49059739985E+02  0.70479352073E+02  0.19343233701E+03  0.17194409329E+03 0.  0.
        -24    2    3    3    0    0 -0.38141461570E+02 -0.17982824983E+02  0.34838458679E+02  0.96555299337E+02  0.79567924077E+02 0.  0.
          6    2    1    2  501    0 -0.21842633223E+02 -0.49059739985E+02  0.15778257646E+03  0.23905470119E+03  0.17137050509E+03 0.  0.
         24    2    5    5    0    0  0.71029602055E+01  0.32748572533E+02  0.11081355925E+03  0.14026894335E+03  0.79201076430E+02 0.  0.
          5    1    5    5  501    0 -0.28945593429E+02 -0.81808312518E+02  0.46969017211E+02  0.98785757848E+02  0.47000000000E+01 0. -1.
        -11    1    6    6    0    0 -0.62966265942E+01 -0.25473452348E+02  0.35000328526E+02  0.43744339953E+02  0.00000000000E+00 0.  1.
         12    1    6    6    0    0  0.13399586800E+02  0.58222024881E+02  0.75813230721E+02  0.96524603392E+02  0.00000000000E+00 0. -1.
         -5    1    3    3    0  503  0.59984094793E+02  0.67042564968E+02  0.35640893395E+02  0.96877037670E+02  0.47000000000E+01 0.  1.
         11    1    4    4    0    0 -0.39202086987E+02  0.14676092599E+02 -0.80612735053E+01  0.42628340909E+02  0.00000000000E+00 0. -1.
        -12    1    4    4    0    0  0.10606254165E+01 -0.32658917582E+02  0.42899732184E+02  0.53926958428E+02  0.00000000000E+00 0.  1.
</event>
<event>
12    1  0.8563264E-002  0.2749688E+03  0.7818608E-02  0.1099299E+00
         21   -1    0    0  501  502  0.00000000000E+00  0.00000000000E+00  0.33200871141E+03  0.33200871141E+03  0.00000000000E+00 0.  1.
         21   -1    0    0  502  503 -0.00000000000E+00 -0.00000000000E+00 -0.26807750917E+03  0.26807750917E+03  0.00000000000E+00 0.  1.
         -6    2    1    2    0  503  0.20024487885E+03  0.54881096719E+02  0.15542524223E+03  0.31585571884E+03  0.18027169195E+03 0.  0.
        -24    2    3    3    0    0  0.13927928992E+03  0.83603602943E+02  0.45381792254E+02  0.18673005802E+03  0.80126927288E+02 0.  0.
          6    2    1    2  501    0 -0.20024487885E+03 -0.54881096719E+02 -0.91494039987E+02  0.28423050174E+03  0.17118958053E+03 0.  0.
         24    2    5    5    0    0 -0.88234587124E+02  0.24808667195E+02 -0.44501747832E+02  0.13887875787E+03  0.94372090649E+02 0.  0.
          5    1    5    5  501    0 -0.11201029173E+03 -0.79689763913E+02 -0.46992292155E+02  0.14535174387E+03  0.47000000000E+01 0. -1.
        -11    1    6    6    0    0 -0.30885818191E+02 -0.40061274051E+01 -0.64524065013E+02  0.71647315287E+02  0.00000000000E+00 0.  1.
         12    1    6    6    0    0 -0.57348768933E+02  0.28814794600E+02  0.20022317180E+02  0.67231442579E+02  0.00000000000E+00 0. -1.
         -5    1    3    3    0  503  0.60965588934E+02 -0.28722506224E+02  0.11004344998E+03  0.12912566081E+03  0.47000000000E+01 0.  1.
         11    1    4    4    0    0  0.12282325093E+03  0.34606242033E+02  0.20055988401E+02  0.12917192275E+03  0.00000000000E+00 0. -1.
        -12    1    4    4    0    0  0.16456038987E+02  0.48997360910E+02  0.25325803852E+02  0.57558135272E+02  0.00000000000E+00 0.  1.
</event>
<event>
12    1  0.8563264E-002  0.3561061E+03  0.7818608E-02  0.1060314E+00
         21   -1    0    0  501  502  0.00000000000E+00  0.00000000000E+00  0.10972090037E+03  0.10972090037E+03  0.00000000000E+00 0.  1.
         21   -1    0    0  502  503 -0.00000000000E+00 -0.00000000000E+00 -0.15992830627E+04  0.15992830627E+04  0.00000000000E+00 0.  1.
         -6    2    1    2    0  503  0.30978606884E+03 -0.14283694718E+02 -0.11989962562E+04  0.12507612109E+04  0.17504328537E+03 0.  0.
        -24    2    3    3    0    0  0.21082292410E+03 -0.76668372081E+02 -0.84230681235E+03  0.87534810326E+03  0.80182237025E+02 0.  0.
          6    2    1    2  501    0 -0.30978606884E+03  0.14283694718E+02 -0.29056590606E+03  0.45824275217E+03  0.17142474081E+03 0.  0.
         24    2    5    5    0    0 -0.25174382599E+03  0.24002402955E+02 -0.14853551467E+03  0.30443092777E+03  0.81635295012E+02 0.  0.
          5    1    5    5  501    0 -0.58042242855E+02 -0.97187082364E+01 -0.14203039139E+03  0.15381182440E+03  0.47000000000E+01 0.  1.
        -13    1    6    6    0    0 -0.12565979637E+03  0.37399975425E+00 -0.28722124158E+02  0.12890106561E+03  0.00000000000E+00 0.  1.
         14    1    6    6    0    0 -0.12608402962E+03  0.23628403200E+02 -0.11981339051E+03  0.17552986216E+03  0.00000000000E+00 0. -1.
         -5    1    3    3    0  503  0.98963144740E+02  0.62384677363E+02 -0.35668944389E+03  0.37541310762E+03  0.47000000000E+01 0.  1.
         11    1    4    4    0    0  0.25634343001E+02 -0.17395720398E+02 -0.25069981785E+03  0.25260666915E+03  0.00000000000E+00 0. -1.
        -12    1    4    4    0    0  0.18518858110E+03 -0.59272651683E+02 -0.59160699451E+03  0.62274143411E+03  0.00000000000E+00 0.  1.
</event>
<event>
12    1  0.8563264E-002  0.1935339E+03  0.7818608E-02  0.1155439E+00
         21   -1    0    0  503  502  0.00000000000E+00  0.00000000000E+00  0.54424583477E+03  0.54424583477E+03  0.00000000000E+00 0. -1.
         21   -1    0    0  501  503 -0.00000000000E+00 -0.00000000000E+00 -0.22096040271E+03  0.22096040271E+03  0.00000000000E+00 0. -1.
          6    2    1    2  501    0  0.10724174606E+02  0.90027482680E+02 -0.15612273822E+03  0.24820763387E+03  0.17033133758E+03 0.  0.
         24    2    3    3    0    0  0.22420326732E+02 -0.12904567908E+02 -0.95192836714E+02  0.12793149363E+03  0.81459142992E+02 0.  0.
         -6    2    1    2    0  502 -0.10724174606E+02 -0.90027482680E+02  0.47940817029E+03  0.51699860362E+03  0.17098364496E+03 0.  0.
        -24    2    5    5    0    0  0.41279393162E+02 -0.44764543360E+01  0.28209269198E+03  0.29568697380E+03  0.78297334979E+02 0.  0.
          5    1    3    3  501    0 -0.11696152126E+02  0.10293205059E+03 -0.60929901507E+02  0.12027614024E+03  0.47000000000E+01 0. -1.
        -13    1    4    4    0    0  0.28509825299E+02 -0.27997321062E+02 -0.10255824439E+03  0.11006749573E+03  0.00000000000E+00 0.  1.
         14    1    4    4    0    0 -0.60894985670E+01  0.15092753154E+02  0.73654076748E+01  0.17863997895E+02  0.00000000000E+00 0. -1.
         -5    1    5    5    0  502 -0.52003567768E+02 -0.85551028344E+02  0.19731547831E+03  0.22131162981E+03  0.47000000000E+01 0.  1.
         13    1    6    6    0    0  0.19500449136E+02  0.32728519208E+02  0.19284885617E+03  0.19657595177E+03  0.00000000000E+00 0. -1.
        -14    1    6    6    0    0  0.21778944026E+02 -0.37204973544E+02  0.89243835804E+02  0.99111022032E+02  0.00000000000E+00 0.  1.
</event>
<event>
12    1  0.8563264E-002  0.1985688E+03  0.7818608E-02  0.1151170E+00
         21   -1    0    0  501  502  0.00000000000E+00  0.00000000000E+00  0.52078013314E+03  0.52078013314E+03  0.00000000000E+00 0. -1.
         21   -1    0    0  502  503 -0.00000000000E+00 -0.00000000000E+00 -0.21944620105E+03  0.21944620105E+03  0.00000000000E+00 0. -1.
         -6    2    1    2    0  503  0.12224585276E+02 -0.97941564079E+02 -0.14914028161E+03  0.24833923065E+03  0.17230078184E+03 0.  0.
        -24    2    3    3    0    0  0.62295832839E+02 -0.78251675102E+02 -0.14741622617E+03  0.19430328033E+03  0.77576578688E+02 0.  0.
          6    2    1    2  501    0 -0.12224585276E+02  0.97941564079E+02  0.45047421369E+03  0.49188710354E+03  0.17112543635E+03 0.  0.
         24    2    5    5    0    0 -0.20284832063E+02  0.10053936650E+03  0.18028262834E+03  0.22152198199E+03  0.77785112940E+02 0.  0.
          5    1    5    5  501    0  0.80602467872E+01 -0.25978024216E+01  0.27019158535E+03  0.27036512155E+03  0.47000000000E+01 0. -1.
        -11    1    6    6    0    0 -0.33640695334E+02  0.32826462814E+02  0.28973332279E+02  0.55215278925E+02  0.00000000000E+00 0.  1.
         12    1    6    6    0    0  0.13355863271E+02  0.67712903686E+02  0.15130929606E+03  0.16630670307E+03  0.00000000000E+00 0. -1.
         -5    1    3    3    0  503 -0.50071247563E+02 -0.19689888977E+02 -0.17240554375E+01  0.54035950326E+02  0.47000000000E+01 0.  1.
         13    1    4    4    0    0  0.68877521578E+02 -0.89845854414E+02 -0.13330052086E+03  0.17488687600E+03  0.00000000000E+00 0. -1.
        -14    1    4    4    0    0 -0.65816887396E+01  0.11594179312E+02 -0.14115705310E+02  0.19416404327E+02  0.00000000000E+00 0.  1.
</event>
<event>
12    1  0.8563264E-002  0.1770496E+03  0.7818608E-02  0.1170921E+00
         21   -1    0    0  503  502  0.00000000000E+00  0.00000000000E+00  0.33315373360E+04  0.33315373360E+04  0.00000000000E+00 0. -1.
         21   -1    0    0  501  503 -0.00000000000E+00 -0.00000000000E+00 -0.18868380506E+02  0.18868380506E+02  0.00000000000E+00 0. -1.
          6    2    1    2  501    0 -0.67974597409E+01 -0.42832785615E+02  0.46928062234E+03  0.50156841575E+03  0.17165581898E+03 0.  0.
         24    2    3    3    0    0 -0.15413898938E+01 -0.91060195358E+02  0.29658766258E+03  0.32212912888E+03  0.86652172600E+02 0.  0.
         -6    2    1    2    0  502  0.67974597409E+01  0.42832785615E+02  0.28433883332E+04  0.28488373008E+04  0.17069241372E+03 0.  0.
        -24    2    5    5    0    0 -0.77070520283E+01  0.80072228871E+02  0.25714049700E+04  0.25738933122E+04  0.79575765911E+02 0.  0.
          5    1    3    3  501    0 -0.52560698471E+01  0.48227409743E+02  0.17269295976E+03  0.17943928687E+03  0.47000000000E+01 0. -1.
        -13    1    4    4    0    0 -0.24864047694E+02 -0.72177924052E+02  0.27436681766E+03  0.28478943840E+03  0.00000000000E+00 0.  1.
         14    1    4    4    0    0  0.23322657801E+02 -0.18882271306E+02  0.22220844922E+02  0.37339690486E+02  0.00000000000E+00 0. -1.
         -5    1    5    5    0  502  0.14504511769E+02 -0.37239443256E+02  0.27198336320E+03  0.27494398858E+03  0.47000000000E+01 0.  1.
         11    1    6    6    0    0  0.29071801233E+02  0.97315572982E+01  0.47656795091E+03  0.47755301765E+03  0.00000000000E+00 0. -1.
        -12    1    6    6    0    0 -0.36778853262E+02  0.70340671573E+02  0.20948370191E+04  0.20963402946E+04  0.00000000000E+00 0.  1.
</event>
<event>
12    1  0.8563264E-002  0.1841035E+03  0.7818608E-02  0.1164362E+00
         21   -1    0    0  501  502  0.00000000000E+00  0.00000000000E+00  0.10748915386E+03  0.10748915386E+03  0.00000000000E+00 0.  1.
         21   -1    0    0  502  503 -0.00000000000E+00 -0.00000000000E+00 -0.40861425070E+03  0.40861425070E+03  0.00000000000E+00 0.  1.
         -6    2    1    2    0  503 -0.53112021665E+02  0.31326179764E+02 -0.27672522765E+03  0.33237172141E+03  0.17347015073E+03 0.  0.
        -24    2    3    3    0    0  0.13693240065E+02 -0.37048368213E+02 -0.87204122259E+02  0.12005506829E+03  0.72447043222E+02 0.  0.
          6    2    1    2  501    0  0.53112021665E+02 -0.31326179764E+02 -0.24399869192E+02  0.18373168314E+03  0.17134690365E+03 0.  0.
         24    2    5    5    0    0 -0.24674442353E+02  0.23694138015E+02 -0.14289010337E+02  0.87803122123E+02  0.79592538321E+02 0.  0.
          5    1    5    5  501    0  0.77786464018E+02 -0.55020317779E+02 -0.10110858854E+02  0.95928561022E+02  0.47000000000E+01 0. -1.
        -13    1    6    6    0    0  0.12203577432E+02  0.25444134074E+02 -0.35402120316E+02  0.45272965264E+02  0.00000000000E+00 0.  1.
         14    1    6    6    0    0 -0.36878019785E+02 -0.17499960598E+01  0.21113109979E+02  0.42530156859E+02  0.00000000000E+00 0. -1.
         -5    1    3    3    0  503 -0.66805261730E+02  0.68374547977E+02 -0.18952110539E+03  0.21231665313E+03  0.47000000000E+01 0.  1.
         11    1    4    4    0    0 -0.49256427815E+01 -0.38304698337E+01  0.12147109183E+02  0.13656013967E+02  0.00000000000E+00 0. -1.
        -12    1    4    4    0    0  0.18618882847E+02 -0.33217898379E+02 -0.99351231442E+02  0.10639905432E+03  0.00000000000E+00 0.  1.
</event>
<event>
12    1  0.8563264E-002  0.1766803E+03  0.7818608E-02  0.1172314E+00
         21   -1    0    0  503  502  0.00000000000E+00  0.00000000000E+00  0.29748847677E+02  0.29748847677E+02  0.00000000000E+00 0. -1.
         21   -1    0    0  501  503 -0.00000000000E+00 -0.00000000000E+00 -0.11953902375E+04  0.11953902375E+04  0.00000000000E+00 0. -1.
          6    2    1    2  501    0  0.32299820900E+01  0.12260868300E+02 -0.82468695747E+03  0.84340056763E+03  0.17622479387E+03 0.  0.
         24    2    3    3    0    0  0.14512069502E+02 -0.58410515355E+02 -0.58380169823E+03  0.59206507852E+03  0.78065651110E+02 0.  0.
         -6    2    1    2    0  502 -0.32299820900E+01 -0.12260868300E+02 -0.34095443238E+03  0.38173851758E+03  0.17121217588E+03 0.  0.
        -24    2    5    5    0    0 -0.15335797570E+02 -0.98281762986E+01 -0.35404473382E+03  0.36313973401E+03  0.78682991366E+02 0.  0.
          5    1    3    3  501    0 -0.11282087412E+02  0.70671383655E+02 -0.24088525924E+03  0.25133548911E+03  0.47000000000E+01 0. -1.
        -13    1    4    4    0    0 -0.24073908411E+02 -0.26683786869E+02 -0.39950233419E+03  0.40111556012E+03  0.00000000000E+00 0.  1.
         14    1    4    4    0    0  0.38585977913E+02 -0.31726728485E+02 -0.18429936404E+03  0.19094951840E+03  0.00000000000E+00 0. -1.
         -5    1    5    5    0  502  0.12105815480E+02 -0.24326920017E+01  0.13090301438E+02  0.18598783577E+02  0.47000000000E+01 0.  1.
         11    1    6    6    0    0 -0.29656773707E+02 -0.31116110095E+02 -0.11585752329E+03  0.12357468283E+03  0.00000000000E+00 0. -1.
        -12    1    6    6    0    0  0.14320976137E+02  0.21287933797E+02 -0.23818721053E+03  0.23956505117E+03  0.00000000000E+00 0.  1.
</event>
<event>
12    1  0.8563264E-002  0.1985760E+03  0.7818608E-02  0.1153432E+00
         21   -1    0    0  501  502  0.00000000000E+00  0.00000000000E+00  0.48129092589E+02  0.48129092589E+02  0.00000000000E+00 0. -1.
         21   -1    0    0  502  503 -0.00000000000E+00 -0.00000000000E+00 -0.10788770030E+04  0.10788770030E+04  0.00000000000E+00 0. -1.
         -6    2    1    2    0  503  0.51283404993E+02 -0.83305101716E+02 -0.80435068318E+03  0.82586138658E+03  0.15967867959E+03 0.  0.
        -24    2    3    3    0    0  0.31323456544E+02 -0.26587699337E+02 -0.20790087100E+03  0.22637015919E+03  0.79577711209E+02 0.  0.
          6    2    1    2  501    0 -0.51283404993E+02  0.83305101716E+02 -0.22639722724E+03  0.30114470902E+03  0.17280828588E+03 0.  0.
         24    2    5    5    0    0 -0.38921240458E+02 -0.20774784059E+02 -0.84590379856E+02  0.12474539581E+03  0.80370559287E+02 0.  0.
          5    1    5    5  501    0 -0.12362164535E+02  0.10407988577E+03 -0.14180684739E+03  0.17639931321E+03  0.47000000000E+01 0. -1.
        -11    1    6    6    0    0  0.65904061495E+01 -0.38361045833E+02 -0.55988274291E+02  0.68188636508E+02  0.00000000000E+00 0.  1.
         12    1    6    6    0    0 -0.45511646607E+02  0.17586261774E+02 -0.28602105565E+02  0.56556759303E+02  0.00000000000E+00 0. -1.
         -5    1    3    3    0  503  0.19959948448E+02 -0.56717402379E+02 -0.59644981218E+03  0.59949122740E+03  0.47000000000E+01 0.  1.
         13    1    4    4    0    0  0.19250940924E+02 -0.43995950973E+02 -0.19655870979E+03  0.20234023036E+03  0.00000000000E+00 0. -1.
        -14    1    4    4    0    0  0.12072515621E+02  0.17408251635E+02 -0.11342161211E+02  0.24029928825E+02  0.00000000000E+00 0.  1.
</event>
<event>
12    1  0.8563264E-002  0.2026646E+03  0.7818608E-02  0.1148006E+00
         21   -1    0    0  501  502  0.00000000000E+00  0.00000000000E+00  0.29737118917E+04  0.29737118917E+04  0.00000000000E+00 0.  1.
         21   -1    0    0  502  503 -0.00000000000E+00 -0.00000000000E+00 -0.56223340082E+02  0.56223340082E+02  0.00000000000E+00 0. -1.
         -6    2    1    2    0  503 -0.17418818187E+02 -0.10097403133E+03  0.14254788804E+03  0.24777578555E+03  0.17485356528E+03 0.  0.
        -24    2    3    3    0    0  0.27872246042E+02  0.47932978851E+01  0.39703604263E+02  0.93383282063E+02  0.79650633226E+02 0.  0.
          6    2    1    2  501    0  0.17418818187E+02  0.10097403133E+03  0.27749406636E+04  0.27821594463E+04  0.17209395000E+03 0.  0.
         24    2    5    5    0    0  0.11896613319E+02  0.12984898627E+03  0.26169085983E+04  0.26213475020E+04  0.79055837419E+02 0.  0.
          5    1    5    5  501    0  0.55222048681E+01 -0.28874954940E+02  0.15803206526E+03  0.16081194427E+03  0.47000000000E+01 0. -1.
        -13    1    6    6    0    0  0.24214723483E+02  0.10171487409E+03  0.13412461390E+04  0.13453153808E+04  0.00000000000E+00 0.  1.
         14    1    6    6    0    0 -0.12318110164E+02  0.28134112183E+02  0.12756624593E+04  0.12760321212E+04  0.00000000000E+00 0. -1.
         -5    1    3    3    0  503 -0.45291064228E+02 -0.10576732922E+03  0.10284428378E+03  0.15439250349E+03  0.47000000000E+01 0.  1.
         13    1    4    4    0    0  0.10600976710E+02 -0.26938457781E+02 -0.11133621689E+02  0.31016427047E+02  0.00000000000E+00 0. -1.
        -14    1    4    4    0    0  0.17271269332E+02  0.31731755666E+02  0.50837225953E+02  0.62366855016E+02  0.00000000000E+00 0.  1.
</event>
<event>
12    1  0.8563264E-002  0.1843482E+03  0.7818608E-02  0.1163769E+00
         21   -1    0    0  503  502  0.00000000000E+00  0.00000000000E+00  0.31409254101E+03  0.31409254101E+03  0.00000000000E+00 0. -1.
         21   -1    0    0  501  503 -0.00000000000E+00 -0.00000000000E+00 -0.12051651829E+03  0.12051651829E+03  0.00000000000E+00 0. -1.
          6    2    1    2  501    0  0.59856320586E+02 -0.39400900433E+02  0.26661467518E+02  0.18626614446E+03  0.16985002989E+03 0.  0.
         24    2    3    3    0    0 -0.26804564039E+01 -0.39730988419E+02 -0.37304271328E+02  0.96685660088E+02  0.79817115458E+02 0.  0.
         -6    2    1    2    0  502 -0.59856320586E+02  0.39400900433E+02  0.16691455521E+03  0.24834291484E+03  0.16934734879E+03 0.  0.
        -24    2    5    5    0    0 -0.59683380212E+02  0.54954646670E+02  0.41761968841E+02  0.12213986890E+03  0.81190926030E+02 0.  0.
          5    1    3    3  501    0  0.62536776990E+02  0.33008798575E+00  0.63965738846E+02  0.89580484373E+02  0.47000000000E+01 0. -1.
        -13    1    4    4    0    0  0.29308604224E+02 -0.52300116679E+01 -0.39644309331E+02  0.49578408263E+02  0.00000000000E+00 0.  1.
         14    1    4    4    0    0 -0.31989060628E+02 -0.34500976751E+02  0.23400380028E+01  0.47107251824E+02  0.00000000000E+00 0. -1.
         -5    1    5    5    0  502 -0.17294037376E+00 -0.15553746238E+02  0.12515258637E+03  0.12620304594E+03  0.47000000000E+01 0.  1.
         11    1    6    6    0    0 -0.54170795635E+02  0.44817171101E+01 -0.30198196369E+01  0.54439693227E+02  0.00000000000E+00 0. -1.
        -12    1    6    6    0    0 -0.55125845770E+01  0.50472929560E+02  0.44781788478E+02  0.67700175675E+02  0.00000000000E+00 0.  1.
</event>
<event>
12    1  0.8563264E-002  0.1744294E+03  0.7818608E-02  0.1173941E+00
         21   -1    0    0  503  502  0.00000000000E+00  0.00000000000E+00  0.25844319379E+03  0.25844319379E+03  0.00000000000E+00 0. -1.
         21   -1    0    0  501  503 -0.00000000000E+00 -0.00000000000E+00 -0.99963598584E+03  0.99963598584E+03  0.00000000000E+00 0. -1.
          6    2    1    2  501    0 -0.52141369587E+01  0.27802834175E+02 -0.96168600685E+03  0.97693352092E+03  0.16958462106E+03 0.  0.
         24    2    3    3    0    0  0.27307388138E+02  0.17762414954E+02 -0.25728334756E+03  0.27169338023E+03  0.81002315391E+02 0.  0.
         -6    2    1    2    0  502  0.52141369587E+01 -0.27802834175E+02  0.22049321480E+03  0.28114565871E+03  0.17212041955E+03 0.  0.
        -24    2    5    5    0    0 -0.71091107369E+01  0.48258803289E+02  0.87067561934E+02  0.12699725628E+03  0.78537196360E+02 0.  0.
          5    1    3    3  501    0 -0.32521525097E+02  0.10040419222E+02 -0.70440265930E+03  0.70524014069E+03  0.47000000000E+01 0. -1.
        -11    1    4    4    0    0  0.20679380552E+02 -0.19253966137E+02 -0.20691621169E+03  0.20883646869E+03  0.00000000000E+00 0.  1.
         12    1    4    4    0    0  0.66280075859E+01  0.37016381091E+02 -0.50367135863E+02  0.62856911542E+02  0.00000000000E+00 0. -1.
         -5    1    5    5    0  502  0.12323247696E+02 -0.76061637464E+02  0.13342565287E+03  0.15414840243E+03  0.47000000000E+01 0.  1.
         13    1    6    6    0    0 -0.25233036865E+02 -0.47373069195E+00 -0.40278002572E+00  0.25240697335E+02  0.00000000000E+00 0. -1.
        -14    1    6    6    0    0  0.18123926129E+02  0.48732533981E+02  0.87470341959E+02  0.10175655895E+03  0.00000000000E+00 0.  1.
</event>
<event>
12    1  0.8563264E-002  0.4131503E+03  0.7818608E-02  0.1039370E+00
         21   -1    0    0  503  502  0.00000000000E+00  0.00000000000E+00  0.64626811367E+03  0.64626811367E+03  0.00000000000E+00 0.  1.
         21   -1    0    0  501  503 -0.00000000000E+00 -0.00000000000E+00 -0.94616445137E+03  0.94616445137E+03  0.00000000000E+00 0. -1.
          6    2    1    2  501    0 -0.37359542732E+03  0.26856811567E+02 -0.82618436604E+03  0.92372821577E+03  0.17435130711E+03 0.  0.
         24    2    3    3    0    0 -0.31475235173E+03  0.25961049899E+02 -0.53308721689E+03  0.62474437211E+03  0.79878223815E+02 0.  0.
         -6    2    1    2    0  502  0.37359542732E+03 -0.26856811567E+02  0.52628802834E+03  0.66870434927E+03  0.17289183415E+03 0.  0.
        -24    2    5    5    0    0  0.16702112473E+03 -0.63448845553E+02  0.31541561957E+03  0.37121286667E+03  0.79938521379E+02 0.  0.
          5    1    3    3  501    0 -0.58843075592E+02  0.89576166713E+00 -0.29309714915E+03  0.29898384367E+03  0.47000000000E+01 0. -1.
        -11    1    4    4    0    0 -0.12408132326E+02  0.19776229657E+02 -0.36834821562E+02  0.43610378201E+02  0.00000000000E+00 0.  1.
         12    1    4    4    0    0 -0.30234421940E+03  0.61848202424E+01 -0.49625239533E+03  0.58113399391E+03  0.00000000000E+00 0. -1.
         -5    1    5    5    0  502  0.20657430259E+03  0.36592033987E+02  0.21087240876E+03  0.29749148260E+03  0.47000000000E+01 0.  1.
         11    1    6    6    0    0  0.59837298112E+02 -0.58520097493E+02  0.98846105953E+02  0.12952087368E+03  0.00000000000E+00 0. -1.
        -12    1    6    6    0    0  0.10718382661E+03 -0.49287480606E+01  0.21656951362E+03  0.24169199299E+03  0.00000000000E+00 0.  1.
</event>
<event>
12    1  0.8563264E-002  0.2243443E+03  0.7818608E-02  0.1131030E+00
         21   -1    0    0  503  502  0.00000000000E+00  0.00000000000E+00  0.31482791308E+03  0.31482791308E+03  0.00000000000E+00 0. -1.
         21   -1    0    0  501  503 -0.00000000000E+00 -0.00000000000E+00 -0.18063424240E+03  0.18063424240E+03  0.00000000000E+00 0.  1.
          6    2    1    2  501    0 -0.90173157536E+02  0.11230976729E+03  0.15352297950E+03  0.27028665636E+03  0.16953138117E+03 0.  0.
         24    2    3    3    0    0 -0.34112122898E+02  0.26525885574E+01  0.24492314726E+02  0.91853086354E+02  0.81648287413E+02 0.  0.
         -6    2    1    2    0  502  0.90173157536E+02 -0.11230976729E+03 -0.19329308814E+02  0.22517549913E+03  0.17200494487E+03 0.  0.
        -24    2    5    5    0    0  0.12477663811E+02 -0.10007574481E+03  0.29019434042E+02  0.13273118082E+03  0.81268641033E+02 0.  0.
          5    1    3    3  501    0 -0.56061034638E+02  0.10965717873E+03  0.12903066477E+03  0.17843357000E+03  0.47000000000E+01 0. -1.
        -11    1    4    4    0    0 -0.59813057024E+02  0.39329563115E+01  0.61598627929E+01  0.60257894467E+02  0.00000000000E+00 0.  1.
         12    1    4    4    0    0  0.25700934126E+02 -0.12803677541E+01  0.18332451933E+02  0.31595191888E+02  0.00000000000E+00 0. -1.
         -5    1    5    5    0  502  0.77695493725E+02 -0.12234022474E+02 -0.48348742856E+02  0.92444318305E+02  0.47000000000E+01 0.  1.
         11    1    6    6    0    0 -0.30203134310E+02 -0.63359111800E+02  0.30217127053E+02  0.76417806417E+02  0.00000000000E+00 0. -1.
        -12    1    6    6    0    0  0.42680798121E+02 -0.36716633014E+02 -0.11976930108E+01  0.56313374403E+02  0.00000000000E+00 0.  1.
</event>
<event>
12    1  0.8563264E-002  0.3210978E+03  0.7818608E-02  0.1075355E+00
         21   -1    0    0  501  502  0.00000000000E+00  0.00000000000E+00  0.62805301850E+03  0.62805301850E+03  0.00000000000E+00 0.  1.
         21   -1    0    0  502  503 -0.00000000000E+00 -0.00000000000E+00 -0.28847287533E+03  0.28847287533E+03  0.00000000000E+00 0.  1.
         -6    2    1    2    0  503 -0.87347694030E+02  0.25502628399E+03 -0.13243569411E+03  0.34564697601E+03  0.17106897374E+03 0.  0.
        -24    2    3    3    0    0 -0.17506444229E+02  0.37298551774E+02 -0.50438174395E+02  0.10268844295E+03  0.79393005520E+02 0.  0.
          6    2    1    2  501    0  0.87347694030E+02 -0.25502628399E+03  0.47201583728E+03  0.57087891781E+03  0.17445848499E+03 0.  0.
         24    2    5    5    0    0  0.11335287894E+03 -0.23878312907E+03  0.46198675940E+03  0.53827857844E+03  0.80285766230E+02 0.  0.
          5    1    5    5  501    0 -0.26005184910E+02 -0.16243154919E+02  0.10029077881E+02  0.32600339370E+02  0.47000000000E+01 0. -1.
        -13    1    6    6    0    0  0.61962865814E+02 -0.20632078231E+03  0.35660160567E+03  0.41662017128E+03  0.00000000000E+00 0.  1.
         14    1    6    6    0    0  0.51390013125E+02 -0.32462346752E+02  0.10538515373E+03  0.12165840716E+03  0.00000000000E+00 0. -1.
         -5    1    3    3    0  503 -0.69841249801E+02  0.21772773221E+03 -0.81997519712E+02  0.24295853306E+03  0.47000000000E+01 0.  1.
         11    1    4    4    0    0 -0.39811867394E+02 -0.49435628701E+01 -0.32613589404E+02  0.51701738975E+02  0.00000000000E+00 0. -1.
        -12    1    4    4    0    0  0.22305423166E+02  0.42242114645E+02 -0.17824584991E+02  0.50986703976E+02  0.00000000000E+00 0.  1.
</event>
<event>
12    1  0.8563264E-002  0.2072677E+03  0.7818608E-02  0.1143793E+00
         21   -1    0    0  503  502  0.00000000000E+00  0.00000000000E+00  0.22352948873E+03  0.22352948873E+03  0.00000000000E+00 0.  1.
         21   -1    0    0  501  503 -0.00000000000E+00 -0.00000000000E+00 -0.31374996322E+03  0.31374996322E+03  0.00000000000E+00 0. -1.
          6    2    1    2  501    0  0.10388612892E+03 -0.49384157650E+02  0.12223073461E+03  0.24062473915E+03  0.17242038684E+03 0.  0.
         24    2    3    3    0    0  0.48021497967E+02 -0.88075136705E+02  0.11469406235E+03  0.17209197122E+03  0.79985152666E+02 0.  0.
         -6    2    1    2    0  502 -0.10388612892E+03  0.49384157650E+02 -0.21245120910E+03  0.29665471279E+03  0.17215510323E+03 0.  0.
        -24    2    5    5    0    0 -0.68727161508E+02 -0.22743643289E+02 -0.18114009861E+03  0.21039320169E+03  0.78821747977E+02 0.  0.
          5    1    3    3  501    0  0.55864630952E+02  0.38690979055E+02  0.75366722593E+01  0.68532767932E+02  0.47000000000E+01 0. -1.
        -13    1    4    4    0    0  0.52348568933E+02 -0.39174382844E+02  0.25304961914E+02  0.70109528867E+02  0.00000000000E+00 0.  1.
         14    1    4    4    0    0 -0.43270709658E+01 -0.48900753862E+02  0.89389100435E+02  0.10198244235E+03  0.00000000000E+00 0. -1.
         -5    1    5    5    0  502 -0.35158967411E+02  0.72127800938E+02 -0.31311110482E+02  0.86261511100E+02  0.47000000000E+01 0.  1.
         11    1    6    6    0    0 -0.71807415299E+02  0.10033128951E+02 -0.14038161308E+03  0.15799989196E+03  0.00000000000E+00 0. -1.
        -12    1    6    6    0    0  0.30802537909E+01 -0.32776772240E+02 -0.40758485537E+02  0.52393309737E+02  0.00000000000E+00 0.  1.
</event>
<event>
12    1  0.8563264E-002  0.1919851E+03  0.7818608E-02  0.1156889E+00
         21   -1    0    0  503  502  0.00000000000E+00  0.00000000000E+00  0.86666574971E+02  0.86666574971E+02  0.00000000000E+00 0. -1.
         21   -1    0    0  501  503 -0.00000000000E+00 -0.00000000000E+00 -0.43561073024E+03  0.43561073024E+03  0.00000000000E+00 0. -1.
          6    2    1    2  501    0 -0.21470530033E+02 -0.43732665899E+02 -0.13087675138E+03  0.23235102674E+03  0.18570068888E+03 0.  0.
         24    2    3    3    0    0 -0.39026454703E+02  0.29089342998E+02 -0.12740657477E+03  0.15721523236E+03  0.78198081491E+02 0.  0.
         -6    2    1    2    0  502  0.21470530033E+02  0.43732665899E+02 -0.21806740390E+03  0.28992627848E+03  0.18474394329E+03 0.  0.
        -24    2    5    5    0    0  0.80050902128E+02  0.33720138474E+02 -0.19364835125E+03  0.22550352759E+03  0.76203427359E+02 0.  0.
          5    1    3    3  501    0  0.17555924670E+02 -0.72822008896E+02 -0.34701766021E+01  0.75135794375E+02  0.47000000000E+01 0. -1.
        -13    1    4    4    0    0 -0.44024453371E+02 -0.65387072115E+01 -0.30795155835E+02  0.54122535136E+02  0.00000000000E+00 0.  1.
         14    1    4    4    0    0  0.49979986676E+01  0.35628050209E+02 -0.96611418939E+02  0.10309269723E+03  0.00000000000E+00 0. -1.
         -5    1    5    5    0  502 -0.58580372095E+02  0.10012527425E+02 -0.24419052646E+02  0.64422750891E+02  0.47000000000E+01 0.  1.
         13    1    6    6    0    0  0.57215231615E+01  0.20885417523E+02 -0.11308735648E+03  0.11514202833E+03  0.00000000000E+00 0. -1.
        -14    1    6    6    0    0  0.74329378967E+02  0.12834720951E+02 -0.80560994771E+02  0.11036149926E+03  0.00000000000E+00 0.  1.
</event>
<event>
12    1  0.8563264E-002  0.2387446E+03  0.7818608E-02  0.1120777E+00
         21   -1    0    0  503  502  0.00000000000E+00  0.00000000000E+00  0.36584337265E+03  0.36584337265E+03  0.00000000000E+00 0. -1.
         21   -1    0    0  501  503 -0.00000000000E+00 -0.00000000000E+00 -0.17380677702E+03  0.17380677702E+03  0.00000000000E+00 0.  1.
          6    2    1    2  501    0  0.12361457516E+03 -0.10892776476E+03  0.76707543511E+01  0.23800511975E+03  0.17158605838E+03 0.  0.
         24    2    3    3    0    0  0.45403183997E+02 -0.52546061483E+01 -0.37677772710E+02  0.10036891656E+03  0.81026198551E+02 0.  0.
         -6    2    1    2    0  502 -0.12361457516E+03  0.10892776476E+03  0.18436584127E+03  0.30164502992E+03  0.17278061095E+03 0.  0.
        -24    2    5    5    0    0 -0.27027353265E+02 -0.12723843055E+02  0.81672877235E+02  0.11537603094E+03  0.75820812670E+02 0.  0.
          5    1    3    3  501    0  0.78211391161E+02 -0.10367315861E+03  0.45348527061E+02  0.13763620320E+03  0.47000000000E+01 0. -1.
        -13    1    4    4    0    0  0.31744767553E+02 -0.42284123103E+02 -0.27554158553E+02  0.59623057513E+02  0.00000000000E+00 0.  1.
         14    1    4    4    0    0  0.13658416444E+02  0.37029516955E+02 -0.10123614157E+02  0.40745859045E+02  0.00000000000E+00 0. -1.
         -5    1    5    5    0  502 -0.96587221893E+02  0.12165160781E+03  0.10269296403E+03  0.18626899897E+03  0.47000000000E+01 0.  1.
         13    1    6    6    0    0 -0.18165663761E+00 -0.10344170752E+02  0.87243999995E+02  0.87855281018E+02  0.00000000000E+00 0. -1.
        -14    1    6    6    0    0 -0.26845696627E+02 -0.23796723037E+01 -0.55711227602E+01  0.27520749926E+02  0.00000000000E+00 0.  1.
</event>
<event>
12    1  0.8563264E-002  0.2173784E+03  0.7818608E-02  0.1136071E+00
         21   -1    0    0  501  502  0.00000000000E+00  0.00000000000E+00  0.31522053370E+02  0.31522053370E+02  0.00000000000E+00 0.  1.
         21   -1    0    0  502  503 -0.00000000000E+00 -0.00000000000E+00 -0.14985674623E+04  0.14985674623E+04  0.00000000000E+00 0.  1.
         -6    2    1    2    0  503 -0.12748948659E+03 -0.27206754704E+02 -0.78546904307E+03  0.81468771825E+03  0.17251285158E+03 0.  0.
        -24    2    3    3    0    0 -0.12561388244E+03  0.32408912410E+02 -0.48611432428E+03  0.50941262377E+03  0.79780322838E+02 0.  0.
          6    2    1    2  501    0  0.12748948659E+03  0.27206754704E+02 -0.68157636589E+03  0.71540179744E+03  0.17395290326E+03 0.  0.
         24    2    5    5    0    0  0.86051281332E+02 -0.24130384325E+02 -0.59526822192E+03  0.60666444225E+03  0.75567129075E+02 0.  0.
          5    1    5    5  501    0  0.41438205261E+02  0.51337139029E+02 -0.86308143965E+02  0.10873735519E+03  0.47000000000E+01 0. -1.
        -13    1    6    6    0    0  0.27109768392E+01  0.61843049349E+01 -0.25312066623E+03  0.25321071600E+03  0.00000000000E+00 0.  1.
         14    1    6    6    0    0  0.83340304493E+02 -0.30314689260E+02 -0.34214755569E+03  0.35345372626E+03  0.00000000000E+00 0. -1.
         -5    1    3    3    0  503 -0.18756041552E+01 -0.59615667114E+02 -0.29935471878E+03  0.30527509448E+03  0.47000000000E+01 0.  1.
         11    1    4    4    0    0 -0.10577110444E+03  0.21968909650E+02 -0.46879468008E+03  0.48108067057E+03  0.00000000000E+00 0. -1.
        -12    1    4    4    0    0 -0.19842778001E+02  0.10440002759E+02 -0.17319644202E+02  0.28331953192E+02  0.00000000000E+00 0.  1.
</event>
<event>
12    1  0.8563264E-002  0.2002299E+03  0.7818608E-02  0.1149700E+00
         21   -1    0    0  501  502  0.00000000000E+00  0.00000000000E+00  0.11544372996E+03  0.11544372996E+03  0.00000000000E+00 0. -1.
         21   -1    0    0  502  503 -0.00000000000E+00 -0.00000000000E+00 -0.80425996650E+03  0.80425996650E+03  0.00000000000E+00 0. -1.
         -6    2    1    2    0  503  0.77589165312E+02 -0.62855442142E+02 -0.69179026301E+03  0.72018455171E+03  0.17355441609E+03 0.  0.
        -24    2    3    3    0    0  0.11395873646E+03 -0.32722769373E+02 -0.39888330141E+03  0.42345689572E+03  0.78425003278E+02 0.  0.
          6    2    1    2  501    0 -0.77589165312E+02  0.62855442142E+02  0.29740264657E+01  0.19951914475E+03  0.17270830642E+03 0.  0.
         24    2    5    5    0    0 -0.31608646708E+02 -0.12763749437E+02  0.48861798326E+02  0.99718103509E+02  0.79963772956E+02 0.  0.
          5    1    5    5  501    0 -0.45980518603E+02  0.75619191579E+02 -0.45887771860E+02  0.99801041239E+02  0.47000000000E+01 0. -1.
        -11    1    6    6    0    0  0.99655500285E+01  0.25523052642E+02  0.28783524403E+02  0.39739522903E+02  0.00000000000E+00 0.  1.
         12    1    6    6    0    0 -0.41574196737E+02 -0.38286802079E+02  0.20078273923E+02  0.59978580606E+02  0.00000000000E+00 0. -1.
         -5    1    3    3    0  503 -0.36369571148E+02 -0.30132672769E+02 -0.29290696160E+03  0.29672765599E+03  0.47000000000E+01 0.  1.
         13    1    4    4    0    0  0.64927227241E+02 -0.39030412566E+02 -0.33052963253E+03  0.33909992027E+03  0.00000000000E+00 0. -1.
        -14    1    4    4    0    0  0.49031509220E+02  0.63076431932E+01 -0.68353668879E+02  0.84356975457E+02  0.00000000000E+00 0.  1.
</event>
<event>
12    1  0.8563264E-002  0.2142087E+03  0.7818608E-02  0.1138489E+00
         21   -1    0    0  501  502  0.00000000000E+00  0.00000000000E+00  0.18414353820E+03  0.18414353820E+03  0.00000000000E+00 0.  1.
         21   -1    0    0  502  503 -0.00000000000E+00 -0.00000000000E+00 -0.25337278171E+03  0.25337278171E+03  0.00000000000E+00 0. -1.
         -6    2    1    2    0  503  0.65905334721E+02 -0.10855278970E+03 -0.23859791833E+01  0.21312067889E+03  0.17113593888E+03 0.  0.
        -24    2    3    3    0    0 -0.26011361647E+02 -0.73512277951E+02  0.91838498916E+01  0.11396187958E+03  0.82597342297E+02 0.  0.
          6    2    1    2  501    0 -0.65905334721E+02  0.10855278970E+03 -0.66843264324E+02  0.22439564103E+03  0.17250553739E+03 0.  0.
         24    2    5    5    0    0 -0.10138293310E+03  0.45084097290E+02 -0.57958540256E+02  0.15099289431E+03  0.84430958729E+02 0.  0.
          5    1    5    5  501    0  0.35477598383E+02  0.63468692411E+02 -0.88847240682E+01  0.73402746714E+02  0.47000000000E+01 0. -1.
        -13    1    6    6    0    0 -0.16078073090E+00 -0.11186923604E+02  0.11422450291E+02  0.15988917437E+02  0.00000000000E+00 0.  1.
         14    1    6    6    0    0 -0.10122215237E+03  0.56271020894E+02 -0.69380990547E+02  0.13500397688E+03  0.00000000000E+00 0. -1.
         -5    1    3    3    0  503  0.91916696368E+02 -0.35040511750E+02 -0.11569829075E+02  0.99158799305E+02  0.47000000000E+01 0.  1.
         11    1    4    4    0    0 -0.36365519956E+02 -0.23914585114E+02 -0.27433098607E+02  0.51448355873E+02  0.00000000000E+00 0. -1.
        -12    1    4    4    0    0  0.10354158309E+02 -0.49597692837E+02  0.36616948499E+02  0.62513523708E+02  0.00000000000E+00 0.  1.
</event>
<event>
12    1  0.8563264E-002  0.1769311E+03  0.7818608E-02  0.1170845E+00
         21   -1    0    0  503  502  0.00000000000E+00  0.00000000000E+00  0.21443499350E+03  0.21443499350E+03  0.00000000000E+00 0.  1.
         21   -1    0    0  501  503 -0.00000000000E+00 -0.00000000000E+00 -0.56051216851E+03  0.56051216851E+03  0.00000000000E+00 0.  1.
          6    2    1    2  501    0  0.36488706261E+02 -0.23423506404E+02 -0.50632456498E+03  0.53634800553E+03  0.17153580266E+03 0.  0.
         24    2    3    3    0    0 -0.84071549877E+01 -0.54250590911E+02 -0.43913196019E+03  0.44972881807E+03  0.80033271064E+02 0.  0.
         -6    2    1    2    0  502 -0.36488706261E+02  0.23423506404E+02  0.16024738997E+03  0.23859915648E+03  0.17137749311E+03 0.  0.
        -24    2    5    5    0    0  0.42369033660E+02  0.18566994443E+02  0.11482883141E+03  0.14734640685E+03  0.79908915599E+02 0.  0.
          5    1    3    3  501    0  0.44895861249E+02  0.30827084507E+02 -0.67192604794E+02  0.86619187456E+02  0.47000000000E+01 0. -1.
        -13    1    4    4    0    0 -0.10903105024E+02 -0.15786206297E+02 -0.37063548171E+03  0.37113170480E+03  0.00000000000E+00 0.  1.
         14    1    4    4    0    0  0.24959500366E+01 -0.38464384614E+02 -0.68496478483E+02  0.78597113274E+02  0.00000000000E+00 0. -1.
         -5    1    5    5    0  502 -0.78857739920E+02  0.48565119613E+01  0.45418558563E+02  0.91252749634E+02  0.47000000000E+01 0.  1.
         11    1    6    6    0    0  0.27172734195E+02  0.50271947157E+02  0.72852060592E+02  0.92590760268E+02  0.00000000000E+00 0. -1.
        -12    1    6    6    0    0  0.15196299465E+02 -0.31704952714E+02  0.41976770816E+02  0.54755646578E+02  0.00000000000E+00 0.  1.
</event>
<event>
12    1  0.8563264E-002  0.2133736E+03  0.7818608E-02  0.1143862E+00
         21   -1    0    0  501  502  0.00000000000E+00  0.00000000000E+00  0.56232785945E+02  0.56232785945E+02  0.00000000000E+00 0. -1.
         21   -1    0    0  502  503 -0.00000000000E+00 -0.00000000000E+00 -0.87143228601E+03  0.87143228601E+03  0.00000000000E+00 0. -1.
         -6    2    1    2    0  503  0.52614591451E+01  0.88635659819E+02 -0.57971665281E+03  0.60989084995E+03  0.16736632923E+03 0.  0.
        -24    2    3    3    0    0 -0.35581046714E+02 -0.77581451137E+00 -0.33095019128E+03  0.34236633816E+03  0.80125324468E+02 0.  0.
          6    2    1    2  501    0 -0.52614591451E+01 -0.88635659819E+02 -0.23548284726E+03  0.31777422201E+03  0.19402144644E+03 0.  0.
         24    2    5    5    0    0  0.74003935674E+02 -0.73830376237E+02 -0.14846152216E+03  0.19904343300E+03  0.81547272837E+02 0.  0.
          5    1    5    5  501    0 -0.79265394819E+02 -0.14805283583E+02 -0.87021325099E+02  0.11873078901E+03  0.47000000000E+01 0. -1.
        -13    1    6    6    0    0  0.61821028139E+02 -0.77463852776E+02 -0.15558540375E+03  0.18447033872E+03  0.00000000000E+00 0.  1.
         14    1    6    6    0    0  0.12182907535E+02  0.36334765390E+01  0.71238815956E+01  0.14573094275E+02  0.00000000000E+00 0. -1.
         -5    1    3    3    0  503  0.40842505859E+02  0.89411474331E+02 -0.24876646153E+03  0.26752451179E+03  0.47000000000E+01 0.  1.
         11    1    4    4    0    0 -0.35432110093E+01 -0.10132538732E+02 -0.28689535693E+03  0.28709609630E+03  0.00000000000E+00 0. -1.
        -12    1    4    4    0    0 -0.32037835704E+02  0.93567242210E+01 -0.44054834351E+02  0.55270241852E+02  0.00000000000E+00 0.  1.
</event>
<event>
12    1  0.8563264E-002  0.1812573E+03  0.7818608E-02  0.1168350E+00
         21   -1    0    0  501  502  0.00000000000E+00  0.00000000000E+00  0.98748532221E+03  0.98748532221E+03  0.00000000000E+00 0.  1.
         21   -1    0    0  502  503 -0.00000000000E+00 -0.00000000000E+00 -0.73382633555E+02  0.73382633555E+02  0.00000000000E+00 0.  1.
         -6    2    1    2    0  503 -0.10769809367E+02 -0.21541444790E+02  0.62615172356E+02  0.19176778898E+03  0.17965022250E+03 0.  0.
        -24    2    3    3    0    0 -0.40027704194E+02  0.53478002999E+02  0.40990037699E+02  0.10825923610E+03  0.74684436813E+02 0.  0.
          6    2    1    2  501    0  0.10769809367E+02  0.21541444790E+02  0.85148751630E+03  0.86910016678E+03  0.17240674827E+03 0.  0.
         24    2    5    5    0    0 -0.38695324911E+02 -0.11753388133E+02  0.71859794475E+03  0.72337071322E+03  0.72434192501E+02 0.  0.
          5    1    5    5  501    0  0.49465134278E+02  0.33294832923E+02  0.13288957155E+03  0.14572945356E+03  0.47000000000E+01 0. -1.
        -13    1    6    6    0    0 -0.18901553950E+02 -0.13471040593E+02  0.67566336759E+03  0.67606192318E+03  0.00000000000E+00 0.  1.
         14    1    6    6    0    0 -0.19793770961E+02  0.17176524603E+01  0.42934577165E+02  0.47308790041E+02  0.00000000000E+00 0. -1.
         -5    1    3    3    0  503  0.29257894828E+02 -0.75019447789E+02  0.21625134657E+02  0.83508552887E+02  0.47000000000E+01 0.  1.
         11    1    4    4    0    0  0.15111110931E+02  0.16483511694E+02  0.35074895239E+02  0.41596876173E+02  0.00000000000E+00 0. -1.
        -12    1    4    4    0    0 -0.55138815126E+02  0.36994491305E+02  0.59151424597E+01  0.66662359924E+02  0.00000000000E+00 0.  1.
</event>
<event>
12    1  0.8563264E-002  0.1830743E+03  0.7818608E-02  0.1165021E+00
         21   -1    0    0  501  502  0.00000000000E+00  0.00000000000E+00  0.20000124006E+03  0.20000124006E+03  0.00000000000E+00 0. -1.
         21   -1    0    0  502  503 -0.00000000000E+00 -0.00000000000E+00 -0.95457356683E+03  0.95457356683E+03  0.00000000000E+00 0.  1.
         -6    2    1    2    0  503  0.42653731876E+02 -0.42387846948E+02 -0.90154071174E+03  0.91980707574E+03  0.17220142633E+03 0.  0.
        -24    2    3    3    0    0  0.21496580103E+02 -0.85397124958E+02 -0.78139160750E+03  0.79036473214E+03  0.79679317416E+02 0.  0.
          6    2    1    2  501    0 -0.42653731876E+02  0.42387846948E+02  0.14696838497E+03  0.23476773116E+03  0.17291648563E+03 0.  0.
         24    2    5    5    0    0 -0.30968168757E+02 -0.41823647135E+02  0.69395180635E+02  0.11958170704E+03  0.82315543052E+02 0.  0.
          5    1    5    5  501    0 -0.11685563120E+02  0.84211494082E+02  0.77573204340E+02  0.11518602412E+03  0.47000000000E+01 0. -1.
        -11    1    6    6    0    0  0.48810410114E+01  0.19848639049E+02  0.34663432089E+02  0.40241105323E+02  0.00000000000E+00 0.  1.
         12    1    6    6    0    0 -0.35849209768E+02 -0.61672286183E+02  0.34731748546E+02  0.79340601719E+02  0.00000000000E+00 0. -1.
         -5    1    3    3    0  503  0.21157151773E+02  0.43009278011E+02 -0.12014910424E+03  0.12944234360E+03  0.47000000000E+01 0.  1.
         11    1    4    4    0    0 -0.79874395040E+01 -0.80058848496E+02 -0.41347995865E+03  0.42123496367E+03  0.00000000000E+00 0. -1.
        -12    1    4    4    0    0  0.29484019607E+02 -0.53382764619E+01 -0.36791164886E+03  0.36912976847E+03  0.00000000000E+00 0.  1.
</event>
<event>
12    1  0.8563264E-002  0.1837329E+03  0.7818608E-02  0.1165643E+00
         21   -1    0    0  503  502  0.00000000000E+00  0.00000000000E+00  0.22415771667E+04  0.22415771667E+04  0.00000000000E+00 0.  1.
         21   -1    0    0  501  503 -0.00000000000E+00 -0.00000000000E+00 -0.19547649969E+02  0.19547649969E+02  0.00000000000E+00 0.  1.
          6    2    1    2  501    0 -0.21110233046E+02 -0.36301878482E+02  0.55476475679E+03  0.58439860723E+03  0.17886958501E+03 0.  0.
         24    2    3    3    0    0  0.14476987041E+02  0.46016406985E+02  0.27927715856E+03  0.29464309455E+03  0.80571266618E+02 0.  0.
         -6    2    1    2    0  502  0.21110233046E+02  0.36301878482E+02  0.16672647599E+04  0.16767262094E+04  0.17284540300E+03 0.  0.
        -24    2    5    5    0    0  0.20530528435E+02  0.35197704944E+01  0.35823504037E+03  0.36727750888E+03  0.78272172562E+02 0.  0.
          5    1    3    3  501    0 -0.35587220088E+02 -0.82318285467E+02  0.27548759823E+03  0.28975551269E+03  0.47000000000E+01 0. -1.
        -11    1    4    4    0    0  0.47471885321E+02  0.24786061479E+02  0.13825044902E+03  0.14826029608E+03  0.00000000000E+00 0.  1.
         12    1    4    4    0    0 -0.32994898280E+02  0.21230345506E+02  0.14102670954E+03  0.14638279847E+03  0.00000000000E+00 0. -1.
         -5    1    5    5    0  502  0.57970461117E+00  0.32782107988E+02  0.13090297196E+04  0.13094487006E+04  0.47000000000E+01 0.  1.
         13    1    6    6    0    0  0.21309350974E+01 -0.35476290521E+02  0.20644706147E+03  0.20948388307E+03  0.00000000000E+00 0. -1.
        -14    1    6    6    0    0  0.18399593338E+02  0.38996061015E+02  0.15178797889E+03  0.15779362581E+03  0.00000000000E+00 0.  1.
</event>
<event>
12    1  0.8563264E-002  0.2020050E+03  0.7818608E-02  0.1148460E+00
         21   -1    0    0  503  502  0.00000000000E+00  0.00000000000E+00  0.17975211605E+03  0.17975211605E+03  0.00000000000E+00 0.  1.
         21   -1    0    0  501  503 -0.00000000000E+00 -0.00000000000E+00 -0.29141764407E+03  0.29141764407E+03  0.00000000000E+00 0. -1.
          6    2    1    2  501    0 -0.74993237052E+02 -0.67007412573E+02 -0.16862290315E+03  0.26313441997E+03  0.17519149684E+03 0.  0.
         24    2    3    3    0    0  0.12013021284E+02 -0.18735380579E+01 -0.11908410015E+03  0.14359909632E+03  0.79321212352E+02 0.  0.
         -6    2    1    2    0  502  0.74993237052E+02  0.67007412573E+02  0.56957375133E+02  0.20803534015E+03  0.17297566658E+03 0.  0.
        -24    2    5    5    0    0  0.94173195751E+02  0.41937934180E+02 -0.13565989227E+02  0.13062743046E+03  0.79070275095E+02 0.  0.
          5    1    3    3  501    0 -0.87006258336E+02 -0.65133874515E+02 -0.49538803003E+02  0.11953532366E+03  0.47000000000E+01 0. -1.
        -13    1    4    4    0    0  0.31745869901E+02  0.15723116830E+02 -0.19239984555E+02  0.40313690780E+02  0.00000000000E+00 0.  1.
         14    1    4    4    0    0 -0.19732848617E+02 -0.17596654888E+02 -0.99844115595E+02  0.10328540554E+03  0.00000000000E+00 0. -1.
         -5    1    5    5    0  502 -0.19179958700E+02  0.25069478393E+02  0.70523364359E+02  0.77407909694E+02  0.47000000000E+01 0.  1.
         13    1    6    6    0    0 -0.10566112298E+02  0.19408783970E+02 -0.74408476769E+01  0.23317586463E+02  0.00000000000E+00 0. -1.
        -14    1    6    6    0    0  0.10473930805E+03  0.22529150210E+02 -0.61251415499E+01  0.10730984400E+03  0.00000000000E+00 0.  1.
</event>
<event>
12    1  0.8563264E-002  0.2344344E+03  0.7818608E-02  0.1124326E+00
         21   -1    0    0  503  502  0.00000000000E+00  0.00000000000E+00  0.15651068563E+04  0.15651068563E+04  0.00000000000E+00 0.  1.
         21   -1    0    0  501  503 -0.00000000000E+00 -0.00000000000E+00 -0.37609202069E+02  0.37609202069E+02  0.00000000000E+00 0. -1.
          6    2    1    2  501    0  0.14585764859E+03 -0.62328658378E+02  0.98915279778E+03  0.10155409062E+04  0.16655557461E+03 0.  0.
         24    2    3    3    0    0  0.15688944197E+03 -0.48048848682E+02  0.97514994072E+03  0.99222174160E+03  0.81630807678E+02 0.  0.
         -6    2    1    2    0  502 -0.14585764859E+03  0.62328658378E+02  0.53834485642E+03  0.58717515217E+03  0.17262722724E+03 0.  0.
        -24    2    5    5    0    0 -0.75306870063E+02  0.79437828403E+02  0.20518341175E+03  0.24616375314E+03  0.80714730041E+02 0.  0.
          5    1    3    3  501    0 -0.11031793376E+02 -0.14279809696E+02  0.14002857057E+02  0.23319164561E+02  0.47000000000E+01 0. -1.
        -13    1    4    4    0    0  0.10880246230E+03 -0.56466572180E+02  0.51035709938E+03  0.52487219251E+03  0.00000000000E+00 0.  1.
         14    1    4    4    0    0  0.48086979674E+02  0.84177234981E+01  0.46479284133E+03  0.46734954909E+03  0.00000000000E+00 0. -1.
         -5    1    5    5    0  502 -0.70550778532E+02 -0.17109170024E+02  0.33316144467E+03  0.34101139903E+03  0.47000000000E+01 0.  1.
         13    1    6    6    0    0  0.91847891827E+01  0.10670071148E+02  0.25777752038E+00  0.14081094414E+02  0.00000000000E+00 0. -1.
        -14    1    6    6    0    0 -0.84491659246E+02  0.68767757254E+02  0.20492563423E+03  0.23208265873E+03  0.00000000000E+00 0.  1.
</event>
<event>
12    1  0.8563264E-002  0.2044374E+03  0.7818608E-02  0.1147308E+00
         21   -1    0    0  501  502  0.00000000000E+00  0.00000000000E+00  0.45842703975E+03  0.45842703975E+03  0.00000000000E+00 0.  1.
         21   -1    0    0  502  503 -0.00000000000E+00 -0.00000000000E+00 -0.90426002665E+02  0.90426002665E+02  0.00000000000E+00 0.  1.
         -6    2    1    2    0  503 -0.11103719669E+03 -0.15715872820E+02  0.14659146156E+03  0.25156255609E+03  0.17093395016E+03 0.  0.
        -24    2    3    3    0    0 -0.46162752109E+02 -0.21699952882E+02  0.56444342514E+01  0.96215662715E+02  0.81386156539E+02 0.  0.
          6    2    1    2  501    0  0.11103719669E+03  0.15715872820E+02  0.22140957553E+03  0.29729048633E+03  0.16365569168E+03 0.  0.
         24    2    5    5    0    0  0.13318760287E+03 -0.12158515159E+02  0.20692206663E+03  0.25856581831E+03  0.78439618127E+02 0.  0.
          5    1    5    5  501    0 -0.22150406177E+02  0.27874387979E+02  0.14487508901E+02  0.38724668018E+02  0.47000000000E+01 0. -1.
        -11    1    6    6    0    0  0.50794754280E+02  0.14296244329E+02  0.27817387770E+02  0.59651460390E+02  0.00000000000E+00 0.  1.
         12    1    6    6    0    0  0.82392848589E+02 -0.26454759488E+02  0.17910467886E+03  0.19891435792E+03  0.00000000000E+00 0. -1.
         -5    1    3    3    0  503 -0.64874444584E+02  0.59840800628E+01  0.14094702731E+03  0.15534689337E+03  0.47000000000E+01 0.  1.
         13    1    4    4    0    0 -0.43777979494E+02  0.20101391340E+02 -0.13715827506E+02  0.50086937884E+02  0.00000000000E+00 0. -1.
        -14    1    4    4    0    0 -0.23847726145E+01 -0.41801344222E+02  0.19360261758E+02  0.46128724831E+02  0.00000000000E+00 0.  1.
</event>
<event>
12    1  0.8563264E-002  0.1767436E+03  0.7818608E-02  0.1171572E+00
         21   -1    0    0  501  502  0.00000000000E+00  0.00000000000E+00  0.12506082626E+03  0.12506082626E+03  0.00000000000E+00 0. -1.
         21   -1    0    0  502  503 -0.00000000000E+00 -0.00000000000E+00 -0.31518387504E+03  0.31518387504E+03  0.00000000000E+00 0. -1.
         -6    2    1    2    0  503  0.20930515799E+02  0.34079512653E+02 -0.19829990022E+03  0.26563348552E+03  0.17215922435E+03 0.  0.
        -24    2    3    3    0    0  0.27860323946E+02 -0.16724543995E+02 -0.19552547670E+03  0.21406933287E+03  0.80867541155E+02 0.  0.
          6    2    1    2  501    0 -0.20930515799E+02 -0.34079512653E+02  0.81768514370E+01  0.17461121578E+03  0.16977254225E+03 0.  0.
         24    2    5    5    0    0  0.42927489612E+02  0.11046975215E+02 -0.13135354936E+02  0.93429044689E+02  0.81188939002E+02 0.  0.
          5    1    5    5  501    0 -0.63858005411E+02 -0.45126487869E+02  0.21312206373E+02  0.81182171091E+02  0.47000000000E+01 0. -1.
        -13    1    6    6    0    0  0.64967407345E+02 -0.13636914591E+01 -0.11760855893E+00  0.64981824408E+02  0.00000000000E+00 0.  1.
         14    1    6    6    0    0 -0.22039917733E+02  0.12410666675E+02 -0.13017746377E+02  0.28447220281E+02  0.00000000000E+00 0. -1.
         -5    1    3    3    0  503 -0.69298081465E+01  0.50804056648E+02 -0.27744235161E+01  0.51564152652E+02  0.47000000000E+01 0.  1.
         13    1    4    4    0    0  0.11994765041E+01  0.52540105622E+01 -0.17241835646E+03  0.17250255945E+03  0.00000000000E+00 0. -1.
        -14    1    4    4    0    0  0.26660847442E+02 -0.21978554557E+02 -0.23107120240E+02  0.41566773419E+02  0.00000000000E+00 0.  1.
</event>
<event>
12    1  0.8563264E-002  0.1790465E+03  0.7818608E-02  0.1169161E+00
         21   -1    0    0  503  502  0.00000000000E+00  0.00000000000E+00  0.49911785486E+03  0.49911785486E+03  0.00000000000E+00 0.  1.
         21   -1    0    0  501  503 -0.00000000000E+00 -0.00000000000E+00 -0.16831887869E+03  0.16831887869E+03  0.00000000000E+00 0.  1.
          6    2    1    2  501    0  0.41388385896E+02  0.26137131044E+00 -0.98135319395E+02  0.20263325697E+03  0.17238511860E+03 0.  0.
         24    2    3    3    0    0 -0.23413974219E+02  0.52552245002E+02 -0.34500178623E+02  0.97727573187E+02  0.71066613769E+02 0.  0.
         -6    2    1    2    0  502 -0.41388385896E+02 -0.26137131044E+00  0.42893429556E+03  0.46480347658E+03  0.17419694353E+03 0.  0.
        -24    2    5    5    0    0  0.26475145246E+02 -0.26607374643E+02  0.13059993876E+03  0.15767964293E+03  0.79985249200E+02 0.  0.
          5    1    3    3  501    0  0.64802360115E+02 -0.52290873692E+02 -0.63635140772E+02  0.10490568378E+03  0.47000000000E+01 0. -1.
        -11    1    4    4    0    0 -0.14045271325E+01  0.54352865153E+02 -0.47418347705E+02  0.72143650767E+02  0.00000000000E+00 0.  1.
         12    1    4    4    0    0 -0.22009447087E+02 -0.18006201513E+01  0.12918169082E+02  0.25583922421E+02  0.00000000000E+00 0. -1.
         -5    1    5    5    0  502 -0.67863531142E+02  0.26346003332E+02  0.29833435680E+03  0.30712383365E+03  0.47000000000E+01 0.  1.
         13    1    6    6    0    0 -0.83826598269E+01 -0.33003283383E+02  0.11317744593E+03  0.11818891643E+03  0.00000000000E+00 0. -1.
        -14    1    6    6    0    0  0.34857805073E+02  0.63959087406E+01  0.17422492831E+02  0.39490726501E+02  0.00000000000E+00 0.  1.
</event>
<event>
12    1  0.8563264E-002  0.2953933E+03  0.7818608E-02  0.1087586E+00
         21   -1    0    0  503  502  0.00000000000E+00  0.00000000000E+00  0.62699869128E+02  0.62699869128E+02  0.00000000000E+00 0.  1.
         21   -1    0    0  501  503 -0.00000000000E+00 -0.00000000000E+00 -0.14710472323E+04  0.14710472323E+04  0.00000000000E+00 0. -1.
          6    2    1    2  501    0  0.98814192279E+02  0.21871938609E+03 -0.52540407612E+03  0.60274921873E+03  0.17220558360E+03 0.  0.
         24    2    3    3    0    0  0.10714069635E+03  0.10356356643E+03 -0.23341566151E+03  0.28872769441E+03  0.81708441253E+02 0.  0.
         -6    2    1    2    0  502 -0.98814192279E+02 -0.21871938609E+03 -0.88294328703E+03  0.93099788269E+03  0.17194707034E+03 0.  0.
        -24    2    5    5    0    0 -0.58731806232E+02 -0.15250436964E+03 -0.37532681337E+03  0.41749267297E+03  0.81993337066E+02 0.  0.
          5    1    3    3  501    0 -0.83265040680E+01  0.11515581966E+03 -0.29198841461E+03  0.31402152432E+03  0.47000000000E+01 0. -1.
        -13    1    4    4    0    0 -0.12417692264E+02  0.99081473487E+01 -0.10683521644E+02  0.19144401264E+02  0.00000000000E+00 0.  1.
         14    1    4    4    0    0  0.11955838861E+03  0.93655419085E+02 -0.22273213987E+03  0.26958329314E+03  0.00000000000E+00 0. -1.
         -5    1    5    5    0  502 -0.40082386046E+02 -0.66215016454E+02 -0.50761647366E+03  0.51350520972E+03  0.47000000000E+01 0.  1.
         13    1    6    6    0    0  0.11271486161E+02 -0.61131898885E+02 -0.18392047507E+03  0.19414143456E+03  0.00000000000E+00 0. -1.
        -14    1    6    6    0    0 -0.70003292394E+02 -0.91372470752E+02 -0.19140633830E+03  0.22335123841E+03  0.00000000000E+00 0.  1.
</event>
<event>
12    1  0.8563264E-002  0.2326475E+03  0.7818608E-02  0.1125286E+00
         21   -1    0    0  501  502  0.00000000000E+00  0.00000000000E+00  0.17442980333E+04  0.17442980333E+04  0.00000000000E+00 0. -1.
         21   -1    0    0  502  503 -0.00000000000E+00 -0.00000000000E+00 -0.37626738048E+02  0.37626738048E+02  0.00000000000E+00 0. -1.
         -6    2    1    2    0  503  0.15094116933E+03 -0.45179032330E+02  0.46545726522E+03  0.51909575084E+03  0.16728882579E+03 0.  0.
        -24    2    3    3    0    0  0.62484504012E+02 -0.78474314047E+02  0.32739198903E+03  0.35171215572E+03  0.80333024323E+02 0.  0.
          6    2    1    2  501    0 -0.15094116933E+03  0.45179032330E+02  0.12412140300E+04  0.12628290205E+04  0.17117384474E+03 0.  0.
         24    2    5    5    0    0 -0.28559217529E+02  0.56871936035E+02  0.40333636776E+03  0.41596708780E+03  0.79362122986E+02 0.  0.
          5    1    5    5  501    0 -0.12238195181E+03 -0.11692903706E+02  0.83787766228E+03  0.84686193271E+03  0.47000000000E+01 0. -1.
        -11    1    6    6    0    0 -0.26747986962E+02  0.76802859516E+02  0.30830204987E+03  0.31884837774E+03  0.00000000000E+00 0.  1.
         12    1    6    6    0    0 -0.18112305675E+01 -0.19930923481E+02  0.95034317888E+02  0.97118710058E+02  0.00000000000E+00 0. -1.
         -5    1    3    3    0  503  0.88456665323E+02  0.33295281718E+02  0.13806527619E+03  0.16738359512E+03  0.47000000000E+01 0.  1.
         13    1    4    4    0    0  0.11728349081E+02 -0.72475710893E+02  0.14843072092E+03  0.16559577819E+03  0.00000000000E+00 0. -1.
        -14    1    4    4    0    0  0.50756154931E+02 -0.59986031540E+01  0.17896126810E+03  0.18611637753E+03  0.00000000000E+00 0.  1.
</event>
<event>
12    1  0.8563264E-002  0.2117608E+03  0.7818608E-02  0.1140295E+00
         21   -1    0    0  501  502  0.00000000000E+00  0.00000000000E+00  0.11820239881E+03  0.11820239881E+03  0.00000000000E+00 0.  1.
         21   -1    0    0  502  503 -0.00000000000E+00 -0.00000000000E+00 -0.37894694581E+03  0.37894694581E+03  0.00000000000E+00 0.  1.
         -6    2    1    2    0  503  0.98094791021E+01 -0.12195459007E+03 -0.14037064719E+03  0.25356666557E+03  0.17211329808E+03 0.  0.
        -24    2    3    3    0    0 -0.27192465309E+02 -0.19012943919E+02 -0.10772327820E+03  0.13931226914E+03  0.81869905706E+02 0.  0.
          6    2    1    2  501    0 -0.98094791021E+01  0.12195459007E+03 -0.12037389981E+03  0.24358267905E+03  0.17283951475E+03 0.  0.
         24    2    5    5    0    0  0.43911832091E+02  0.91353266876E+02 -0.28677614531E+02  0.13289067847E+03  0.81017643039E+02 0.  0.
          5    1    5    5  501    0 -0.53721311193E+02  0.30601323190E+02 -0.91696285279E+02  0.11069200057E+03  0.47000000000E+01 0. -1.
        -13    1    6    6    0    0  0.30134297209E+02  0.91463442888E+02 -0.49225021559E+02  0.10815146786E+03  0.00000000000E+00 0.  1.
         14    1    6    6    0    0  0.13777534882E+02 -0.11017601203E+00  0.20547407028E+02  0.24739210613E+02  0.00000000000E+00 0. -1.
         -5    1    3    3    0  503  0.37001944411E+02 -0.10294164615E+03 -0.32647368990E+02  0.11425439643E+03  0.47000000000E+01 0.  1.
         13    1    4    4    0    0  0.15061833162E+02 -0.29361398567E+01  0.63497161241E+01  0.16607186105E+02  0.00000000000E+00 0. -1.
        -14    1    4    4    0    0 -0.42254298471E+02 -0.16076804063E+02 -0.11407299433E+03  0.12270508304E+03  0.00000000000E+00 0.  1.
</event>
<event>
12    1  0.8563264E-002  0.2450373E+03  0.7818608E-02  0.1116580E+00
         21   -1    0    0  503  502  0.00000000000E+00  0.00000000000E+00  0.38107235521E+03  0.38107235521E+03  0.00000000000E+00 0. -1.
         21   -1    0    0  501  503 -0.00000000000E+00 -0.00000000000E+00 -0.16750902976E+03  0.16750902976E+03  0.00000000000E+00 0. -1.
          6    2    1    2  501    0  0.15997931445E+03  0.68759478723E+02  0.17502446529E+03  0.30112597851E+03  0.17240082517E+03 0.  0.
         24    2    3    3    0    0  0.11673370087E+03  0.24396800293E+02  0.34307284027E+02  0.14730255560E+03  0.79366821580E+02 0.  0.
         -6    2    1    2    0  502 -0.15997931445E+03 -0.68759478723E+02  0.38538860164E+02  0.24745540646E+03  0.17154500132E+03 0.  0.
        -24    2    5    5    0    0 -0.10914268041E+03  0.24996278202E+02  0.20486422094E+02  0.13918497727E+03  0.80098850152E+02 0.  0.
          5    1    3    3  501    0  0.43245613580E+02  0.44362678430E+02  0.14071718127E+03  0.15382342291E+03  0.47000000000E+01 0. -1.
        -11    1    4    4    0    0  0.18856685441E+02 -0.16856479437E+02 -0.15840840856E+02  0.29843721682E+02  0.00000000000E+00 0.  1.
         12    1    4    4    0    0  0.97877015427E+02  0.41253279730E+02  0.50148124882E+02  0.11745883392E+03  0.00000000000E+00 0. -1.
         -5    1    5    5    0  502 -0.50836634038E+02 -0.93755756925E+02  0.18052438070E+02  0.10827042919E+03  0.47000000000E+01 0.  1.
         13    1    6    6    0    0 -0.92500278764E+02 -0.13502673435E+02  0.25625284656E+02  0.96929247263E+02  0.00000000000E+00 0. -1.
        -14    1    6    6    0    0 -0.16642401645E+02  0.38498951637E+02 -0.51388625624E+01  0.42255730003E+02  0.00000000000E+00 0.  1.
</event>
<event>
12    1  0.8563264E-002  0.3171520E+03  0.7818608E-02  0.1077729E+00
         21   -1    0    0  501  502  0.00000000000E+00  0.00000000000E+00  0.10486465114E+04  0.10486465114E+04  0.00000000000E+00 0. -1.
         21   -1    0    0  502  503 -0.00000000000E+00 -0.00000000000E+00 -0.99632382886E+02  0.99632382886E+02  0.00000000000E+00 0.  1.
         -6    2    1    2    0  503 -0.96445706108E+02  0.24445020140E+03  0.61597711570E+03  0.69282983782E+03  0.17756041762E+03 0.  0.
        -24    2    3    3    0    0 -0.87695135494E+02  0.19395421454E+03  0.59548189761E+03  0.63743524295E+03  0.80101962847E+02 0.  0.
          6    2    1    2  501    0  0.96445706108E+02 -0.24445020140E+03  0.33303701280E+03  0.45544905646E+03  0.16571818229E+03 0.  0.
         24    2    5    5    0    0  0.84737377282E+02 -0.72751077357E+02  0.12271078353E+03  0.18364602689E+03  0.78706952889E+02 0.  0.
          5    1    5    5  501    0  0.11708328826E+02 -0.17169912405E+03  0.21032622927E+03  0.27180302957E+03  0.47000000000E+01 0. -1.
        -11    1    6    6    0    0 -0.10131570457E+02 -0.85794062686E+01 -0.29712998219E+01  0.13604541686E+02  0.00000000000E+00 0.  1.
         12    1    6    6    0    0  0.94868947738E+02 -0.64171671089E+02  0.12568208335E+03  0.17004148520E+03  0.00000000000E+00 0. -1.
         -5    1    3    3    0  503 -0.87505706144E+01  0.50495986861E+02  0.20495218094E+02  0.55394594861E+02  0.47000000000E+01 0.  1.
         13    1    4    4    0    0 -0.10456965609E+02  0.18689791710E+02  0.16351375405E+03  0.16491029139E+03  0.00000000000E+00 0. -1.
        -14    1    4    4    0    0 -0.77238169885E+02  0.17526442283E+03  0.43196814356E+03  0.47252495157E+03  0.00000000000E+00 0.  1.
</event>
<event>
12    1  0.8563264E-002  0.1933157E+03  0.7818608E-02  0.1155565E+00
         21   -1    0    0  503  502  0.00000000000E+00  0.00000000000E+00  0.33790238119E+03  0.33790238119E+03  0.00000000000E+00 0. -1.
         21   -1    0    0  501  503 -0.00000000000E+00 -0.00000000000E+00 -0.40527334988E+03  0.40527334988E+03  0.00000000000E+00 0. -1.
          6    2    1    2  501    0  0.24280818528E+02 -0.84863089079E+02 -0.35061881007E+03  0.40024673305E+03  0.17167584370E+03 0.  0.
         24    2    3    3    0    0  0.27608074226E+02 -0.50360836334E+02 -0.35243893656E+03  0.36521990140E+03  0.76641716951E+02 0.  0.
         -6    2    1    2    0  502 -0.24280818528E+02  0.84863089079E+02  0.28324784138E+03  0.34292899802E+03  0.17198737164E+03 0.  0.
        -24    2    5    5    0    0  0.94334356039E+00  0.30674389808E+02  0.31434561411E+02  0.84076353744E+02  0.71686076198E+02 0.  0.
          5    1    3    3  501    0 -0.33272556975E+01 -0.34502252745E+02  0.18201264940E+01  0.35026831650E+02  0.47000000000E+01 0. -1.
        -13    1    4    4    0    0  0.48484855747E+02 -0.27432200378E+02 -0.14247580625E+03  0.15297928690E+03  0.00000000000E+00 0.  1.
         14    1    4    4    0    0 -0.20876781522E+02 -0.22928635956E+02 -0.20996313031E+03  0.21224061450E+03  0.00000000000E+00 0. -1.
         -5    1    5    5    0  502 -0.25224162088E+02  0.54188699271E+02  0.25181327996E+03  0.25885264428E+03  0.47000000000E+01 0.  1.
         11    1    6    6    0    0 -0.19683160763E+02  0.22112592020E+02  0.47913830406E+02  0.56321653808E+02  0.00000000000E+00 0. -1.
        -12    1    6    6    0    0  0.20626504323E+02  0.85617977881E+01 -0.16479268995E+02  0.27754699937E+02  0.00000000000E+00 0.  1.
</event>
<event>
12    1  0.8563264E-002  0.2308501E+03  0.7818608E-02  0.1126269E+00
         21   -1    0    0  501  502  0.00000000000E+00  0.00000000000E+00  0.26928897759E+03  0.26928897759E+03  0.00000000000E+00 0.  1.
         21   -1    0    0  502  503 -0.00000000000E+00 -0.00000000000E+00 -0.20408690685E+03  0.20408690685E+03  0.00000000000E+00 0. -1.
         -6    2    1    2    0  503  0.14134237634E+03  0.57283855413E+02 -0.12218624714E+02  0.22988926327E+03  0.17158284045E+03 0.  0.
        -24    2    3    3    0    0  0.59583439604E+02 -0.17559828982E+02  0.37004355931E+02  0.10851755053E+03  0.80920964818E+02 0.  0.
          6    2    1    2  501    0 -0.14134237634E+03 -0.57283855413E+02  0.77420695457E+02  0.24348662116E+03  0.17329934553E+03 0.  0.
         24    2    5    5    0    0 -0.14293579928E+03 -0.89190057698E+02  0.94944347130E+02  0.20674817932E+03  0.73108628037E+02 0.  0.
          5    1    5    5  501    0  0.15934229379E+01  0.31906202285E+02 -0.17523651673E+02  0.36738441841E+02  0.47000000000E+01 0. -1.
        -11    1    6    6    0    0 -0.51950450513E+02 -0.65555621227E+02  0.18697019649E+02  0.85708618743E+02  0.00000000000E+00 0.  1.
         12    1    6    6    0    0 -0.90985348763E+02 -0.23634436471E+02  0.76247327481E+02  0.12103956058E+03  0.00000000000E+00 0. -1.
         -5    1    3    3    0  503  0.81758936734E+02  0.74843684395E+02 -0.49222980644E+02  0.12137171274E+03  0.47000000000E+01 0.  1.
         13    1    4    4    0    0  0.40596566475E+02 -0.30031303035E+02 -0.14237687071E+02  0.52465913741E+02  0.00000000000E+00 0. -1.
        -14    1    4    4    0    0  0.18986873129E+02  0.12471474053E+02  0.51242043001E+02  0.56051636793E+02  0.00000000000E+00 0.  1.
</event>
<event>
12    1  0.8563264E-002  0.1888039E+03  0.7818608E-02  0.1160024E+00
         21   -1    0    0  501  502  0.00000000000E+00  0.00000000000E+00  0.27348290169E+03  0.27348290169E+03  0.00000000000E+00 0. -1.
         21   -1    0    0  502  503 -0.00000000000E+00 -0.00000000000E+00 -0.13928873696E+04  0.13928873696E+04  0.00000000000E+00 0. -1.
         -6    2    1    2    0  503 -0.52682056075E+02  0.60577672788E+02 -0.13531090017E+04  0.13659293903E+04  0.16856475184E+03 0.  0.
        -24    2    3    3    0    0 -0.44426591105E+02  0.10479311074E+03 -0.11339430873E+04  0.11421461343E+04  0.75601249180E+02 0.  0.
          6    2    1    2  501    0  0.52682056075E+02 -0.60577672788E+02  0.23370453373E+03  0.30044088097E+03  0.17088551839E+03 0.  0.
         24    2    5    5    0    0  0.59855331732E+02  0.11776154249E+02  0.19311843180E+03  0.21703911935E+03  0.78037888771E+02 0.  0.
          5    1    5    5  501    0 -0.71732756569E+01 -0.72353827037E+02  0.40586101940E+02  0.83401761619E+02  0.47000000000E+01 0. -1.
        -11    1    6    6    0    0  0.47842996031E+02  0.47381784690E+01  0.37957932085E+02  0.61255262734E+02  0.00000000000E+00 0.  1.
         12    1    6    6    0    0  0.12012335701E+02  0.70379757798E+01  0.15516049971E+03  0.15578385662E+03  0.00000000000E+00 0. -1.
         -5    1    3    3    0  503 -0.82554649701E+01 -0.44215437949E+02 -0.21916591440E+03  0.22378325605E+03  0.47000000000E+01 0.  1.
         11    1    4    4    0    0 -0.65820894350E+02  0.77561240512E+02 -0.81268742659E+03  0.81902929709E+03  0.00000000000E+00 0. -1.
        -12    1    4    4    0    0  0.21394303246E+02  0.27231870225E+02 -0.32125566068E+03  0.32311683721E+03  0.00000000000E+00 0.  1.
</event>
<event>
12    1  0.8563264E-002  0.2382511E+03  0.7818608E-02  0.1121003E+00
         21   -1    0    0  501  502  0.00000000000E+00  0.00000000000E+00  0.59044011769E+02  0.59044011769E+02  0.00000000000E+00 0.  1.
         21   -1    0    0  502  503 -0.00000000000E+00 -0.00000000000E+00 -0.98990727369E+03  0.98990727369E+03  0.00000000000E+00 0.  1.
         -6    2    1    2    0  503 -0.12217223618E+03 -0.11141829058E+03 -0.55617592518E+03  0.60505805127E+03  0.17153278081E+03 0.  0.
        -24    2    3    3    0    0 -0.11375367234E+03 -0.32976154742E+02 -0.45379880360E+03  0.47572435143E+03  0.79705581009E+02 0.  0.
          6    2    1    2  501    0  0.12217223618E+03  0.11141829058E+03 -0.37468733675E+03  0.44389323419E+03  0.17120313161E+03 0.  0.
         24    2    5    5    0    0  0.77291934714E+00  0.41111378749E+02 -0.20886596528E+03  0.22663837644E+03  0.77776727616E+02 0.  0.
          5    1    5    5  501    0  0.12139931683E+03  0.70306911829E+02 -0.16582137147E+03  0.21725485775E+03  0.47000000000E+01 0. -1.
        -11    1    6    6    0    0  0.15313411565E+02 -0.55906719805E+00 -0.16023595752E+03  0.16096700038E+03  0.00000000000E+00 0.  1.
         12    1    6    6    0    0 -0.14540492218E+02  0.41670445947E+02 -0.48630007761E+02  0.65671376064E+02  0.00000000000E+00 0. -1.
         -5    1    3    3    0  503 -0.84185638423E+01 -0.78442135836E+02 -0.10237712158E+03  0.12933369984E+03  0.47000000000E+01 0.  1.
         13    1    4    4    0    0 -0.79589734224E+02 -0.46783206739E+02 -0.40000200104E+03  0.41051771590E+03  0.00000000000E+00 0. -1.
        -14    1    4    4    0    0 -0.34163938115E+02  0.13807051997E+02 -0.53796802556E+02  0.65206635534E+02  0.00000000000E+00 0.  1.
</event>
<event>
12    1  0.8563264E-002  0.2478802E+03  0.7818608E-02  0.1114675E+00
         21   -1    0    0  501  502  0.00000000000E+00  0.00000000000E+00  0.36635541338E+03  0.36635541338E+03  0.00000000000E+00 0. -1.
         21   -1    0    0  502  503 -0.00000000000E+00 -0.00000000000E+00 -0.16807985964E+03  0.16807985964E+03  0.00000000000E+00 0.  1.
         -6    2    1    2    0  503 -0.16978384442E+03 -0.54439344812E+02  0.85222182716E+02  0.26212098210E+03  0.17220450848E+03 0.  0.
        -24    2    3    3    0    0 -0.16120785542E+03  0.54853845431E+01  0.90068279244E+02  0.20121042943E+03  0.79720009345E+02 0.  0.
          6    2    1    2  501    0  0.16978384442E+03  0.54439344812E+02  0.11305337103E+03  0.27231429092E+03  0.17199945420E+03 0.  0.
         24    2    5    5    0    0  0.79665532667E+02  0.45696942750E+02 -0.70202231071E+01  0.12185666327E+03  0.79780669209E+02 0.  0.
          5    1    5    5  501    0  0.90118311755E+02  0.87424020615E+01  0.12007359414E+03  0.15045762765E+03  0.47000000000E+01 0. -1.
        -11    1    6    6    0    0  0.89268245677E+01 -0.81392948126E+01 -0.28021565288E+02  0.30514659397E+02  0.00000000000E+00 0.  1.
         12    1    6    6    0    0  0.70738708099E+02  0.53836237563E+02  0.21001342181E+02  0.91342003875E+02  0.00000000000E+00 0. -1.
         -5    1    3    3    0  503 -0.85759889982E+01 -0.59924729355E+02 -0.48460965283E+01  0.60910552674E+02  0.47000000000E+01 0.  1.
         11    1    4    4    0    0 -0.15906698118E+03 -0.13348944541E+02  0.72326693268E+02  0.17524739479E+03  0.00000000000E+00 0. -1.
        -12    1    4    4    0    0 -0.21408742459E+01  0.18834329084E+02  0.17741585976E+02  0.25963034637E+02  0.00000000000E+00 0.  1.
</event>
<event>
12    1  0.8563264E-002  0.2199754E+03  0.7818608E-02  0.1133914E+00
         21   -1    0    0  503  502  0.00000000000E+00  0.00000000000E+00  0.53842883012E+02  0.53842883012E+02  0.00000000000E+00 0. -1.
         21   -1    0    0  501  503 -0.00000000000E+00 -0.00000000000E+00 -0.16407709918E+04  0.16407709918E+04  0.00000000000E+00 0.  1.
          6    2    1    2  501    0 -0.10243558426E+03 -0.87324811269E+02 -0.13634607760E+04  0.13810917708E+04  0.17398425302E+03 0.  0.
         24    2    3    3    0    0 -0.11973524993E+02  0.53625587503E+01 -0.34622629221E+03  0.35563459588E+03  0.80194750665E+02 0.  0.
         -6    2    1    2    0  502  0.10243558426E+03  0.87324811269E+02 -0.22346733282E+03  0.31352210397E+03  0.17389591500E+03 0.  0.
        -24    2    5    5    0    0  0.40010628108E+02 -0.22502051852E+02 -0.94388146344E+02  0.13285018752E+03  0.81442356631E+02 0.  0.
          5    1    3    3  501    0 -0.90462059270E+02 -0.92687370020E+02 -0.10172344838E+04  0.10254571750E+04  0.47000000000E+01 0. -1.
        -11    1    4    4    0    0 -0.34937293146E+02  0.25967844113E+02 -0.26854920236E+03  0.27205443843E+03  0.00000000000E+00 0.  1.
         12    1    4    4    0    0  0.22963768153E+02 -0.20605285362E+02 -0.77677089852E+02  0.83580157457E+02  0.00000000000E+00 0. -1.
         -5    1    5    5    0  502  0.62424956155E+02  0.10982686312E+03 -0.12907918648E+03  0.18067191645E+03  0.47000000000E+01 0.  1.
         11    1    6    6    0    0  0.13733426107E+02  0.11631247550E+02  0.95251133279E+01  0.20362237012E+02  0.00000000000E+00 0. -1.
        -12    1    6    6    0    0  0.26277202001E+02 -0.34133299402E+02 -0.10391325967E+03  0.11248795050E+03  0.00000000000E+00 0.  1.
</event>
<event>
12    1  0.8563264E-002  0.1993377E+03  0.7818608E-02  0.1151405E+00
         21   -1    0    0  501  502  0.00000000000E+00  0.00000000000E+00  0.31681438917E+04  0.31681438917E+04  0.00000000000E+00 0.  1.
         21   -1    0    0  502  503 -0.00000000000E+00 -0.00000000000E+00 -0.19461512588E+02  0.19461512588E+02  0.00000000000E+00 0.  1.
         -6    2    1    2    0  503  0.12538061291E+02  0.91933128112E+02  0.61514160763E+03  0.64663337661E+03  0.17642738816E+03 0.  0.
        -24    2    3    3    0    0  0.24398766576E+02  0.10046389383E+03  0.25987906059E+03  0.29103948237E+03  0.80489504863E+02 0.  0.
          6    2    1    2  501    0 -0.12538061291E+02 -0.91933128112E+02  0.25335407715E+04  0.25409720277E+04  0.17059044996E+03 0.  0.
         24    2    5    5    0    0 -0.59465070474E+02 -0.10894154244E+03  0.18046037529E+04  0.18103129434E+04  0.72345655233E+02 0.  0.
          5    1    5    5  501    0  0.46927009183E+02  0.17008414333E+02  0.72893701860E+03  0.73065908427E+03  0.47000000000E+01 0. -1.
        -13    1    6    6    0    0 -0.30836259873E+02 -0.62622823566E+02  0.14373929506E+04  0.14390868589E+04  0.00000000000E+00 0.  1.
         14    1    6    6    0    0 -0.28628810601E+02 -0.46318718878E+02  0.36721080229E+03  0.37122608453E+03  0.00000000000E+00 0. -1.
         -5    1    3    3    0  503 -0.11860705285E+02 -0.85307657196E+01  0.35526254704E+03  0.35559389424E+03  0.47000000000E+01 0.  1.
         11    1    4    4    0    0  0.27287255593E+01 -0.37834022149E+01  0.92799182071E+02  0.92916350922E+02  0.00000000000E+00 0. -1.
        -12    1    4    4    0    0  0.21670041017E+02  0.10424729605E+03  0.16707987852E+03  0.19812313145E+03  0.00000000000E+00 0.  1.
</event>
<event>
12    1  0.8563264E-002  0.1831467E+03  0.7818608E-02  0.1165721E+00
         21   -1    0    0  503  502  0.00000000000E+00  0.00000000000E+00  0.12012659847E+04  0.12012659847E+04  0.00000000000E+00 0.  1.
         21   -1    0    0  501  503 -0.00000000000E+00 -0.00000000000E+00 -0.27663015983E+02  0.27663015983E+02  0.00000000000E+00 0.  1.
          6    2    1    2  501    0 -0.54786859492E+02  0.93130335074E+01  0.64757367851E+03  0.67192851524E+03  0.17043452681E+03 0.  0.
         24    2    3    3    0    0  0.31373153376E+02 -0.18737809458E+02  0.28381008856E+03  0.29701994374E+03  0.79607162730E+02 0.  0.
         -6    2    1    2    0  502  0.54786859492E+02 -0.93130335074E+01  0.52602929022E+03  0.55700048546E+03  0.17451187370E+03 0.  0.
        -24    2    5    5    0    0  0.56470292325E+02  0.59002983734E+02  0.33790401114E+03  0.35679278634E+03  0.80322634614E+02 0.  0.
          5    1    3    3  501    0 -0.86160012868E+02  0.28050842965E+02  0.36376358995E+03  0.37490857150E+03  0.47000000000E+01 0. -1.
        -11    1    4    4    0    0 -0.13077271750E+02 -0.20769282825E+02  0.27431099959E+02  0.36808197327E+02  0.00000000000E+00 0.  1.
         12    1    4    4    0    0  0.44450425126E+02  0.20314733676E+01  0.25637898860E+03  0.26021174642E+03  0.00000000000E+00 0. -1.
         -5    1    5    5    0  502 -0.16834328331E+01 -0.68316017242E+02  0.18812527908E+03  0.20020769912E+03  0.47000000000E+01 0.  1.
         11    1    6    6    0    0  0.52072047169E+02  0.42461499983E+01  0.10229109771E+03  0.11486077031E+03  0.00000000000E+00 0. -1.
        -12    1    6    6    0    0  0.43982451556E+01  0.54756833736E+02  0.23561291344E+03  0.24193201603E+03  0.00000000000E+00 0.  1.
</event>
<event>
12    1  0.8563264E-002  0.1739618E+03  0.7818608E-02  0.1175206E+00
         21   -1    0    0  501  502  0.00000000000E+00  0.00000000000E+00  0.61901394383E+02  0.61901394383E+02  0.00000000000E+00 0. -1.
         21   -1    0    0  502  503 -0.00000000000E+00 -0.00000000000E+00 -0.50996161460E+03  0.50996161460E+03  0.00000000000E+00 0. -1.
         -6    2    1    2    0  503 -0.32846676636E+02 -0.17382912035E+02 -0.29718992475E+03  0.34159243244E+03  0.16426341262E+03 0.  0.
        -24    2    3    3    0    0  0.35808170573E+02 -0.43866037360E+02 -0.22456673988E+03  0.23809817678E+03  0.55263612025E+02 0.  0.
          6    2    1    2  501    0  0.32846676636E+02  0.17382912035E+02 -0.15087029547E+03  0.23027057655E+03  0.16994594015E+03 0.  0.
         24    2    5    5    0    0  0.37489080628E+02  0.42240786373E+02 -0.17231886353E+03  0.19678032568E+03  0.76413288409E+02 0.  0.
          5    1    5    5  501    0 -0.46424039917E+01 -0.24857874338E+02  0.21448568064E+02  0.33490250871E+02  0.47000000000E+01 0. -1.
        -13    1    6    6    0    0  0.36444097188E+02 -0.10197859585E+02 -0.43294204294E+02  0.57502666768E+02  0.00000000000E+00 0.  1.
         14    1    6    6    0    0  0.10449834398E+01  0.52438645958E+02 -0.12902465924E+03  0.13927765891E+03  0.00000000000E+00 0. -1.
         -5    1    3    3    0  503 -0.68654847209E+02  0.26483125324E+02 -0.72623184871E+02  0.10349425565E+03  0.47000000000E+01 0.  1.
         13    1    4    4    0    0  0.25224071448E+02 -0.15355847480E+02 -0.18904058612E+03  0.19133321466E+03  0.00000000000E+00 0. -1.
        -14    1    4    4    0    0  0.10584099125E+02 -0.28510189880E+02 -0.35526153759E+02  0.46764962121E+02  0.00000000000E+00 0.  1.
</event>
<event>
12    1  0.8563264E-002  0.1752401E+03  0.7818608E-02  0.1172534E+00
         21   -1    0    0  501  502  0.00000000000E+00  0.00000000000E+00  0.19617647894E+03  0.19617647894E+03  0.00000000000E+00 0. -1.
         21   -1    0    0  502  503 -0.00000000000E+00 -0.00000000000E+00 -0.17797648706E+03  0.17797648706E+03  0.00000000000E+00 0. -1.
         -6    2    1    2    0  503  0.32229219949E+02 -0.84716437568E+01 -0.56067084924E+02  0.18382508610E+03  0.17186521726E+03 0.  0.
        -24    2    3    3    0    0  0.56659779408E+02  0.21240016143E+02  0.15706866747E+02  0.10225778194E+03  0.80922675542E+02 0.  0.
          6    2    1    2  501    0 -0.32229219949E+02  0.84716437568E+01  0.74267076809E+02  0.19032787990E+03  0.17204247092E+03 0.  0.
         24    2    5    5    0    0 -0.83089795862E+02 -0.18321860288E+02  0.41020311445E+02  0.12375365479E+03  0.79954339359E+02 0.  0.
          5    1    5    5  501    0  0.50860575913E+02  0.26793504045E+02  0.33246765364E+02  0.66574225105E+02  0.47000000000E+01 0. -1.
        -13    1    6    6    0    0 -0.23395729103E+02  0.24525907879E+02 -0.87478580931E+01  0.35005789789E+02  0.00000000000E+00 0.  1.
         14    1    6    6    0    0 -0.59694066760E+02 -0.42847768167E+02  0.49768169538E+02  0.88747865002E+02  0.00000000000E+00 0. -1.
         -5    1    3    3    0  503 -0.24430559459E+02 -0.29711659900E+02 -0.71773951671E+02  0.81567304160E+02  0.47000000000E+01 0.  1.
         11    1    4    4    0    0 -0.17063659922E+02  0.15656369599E+02  0.16302674550E+02  0.28320797949E+02  0.00000000000E+00 0. -1.
        -12    1    4    4    0    0  0.73723439330E+02  0.55836465443E+01 -0.59580780353E+00  0.73936983996E+02  0.00000000000E+00 0.  1.
</event>
<event>
12    1  0.8563264E-002  0.2409377E+03  0.7818608E-02  0.1119302E+00
         21   -1    0    0  503  502  0.00000000000E+00  0.00000000000E+00  0.18150991041E+04  0.18150991041E+04  0.00000000000E+00 0. -1.
         21   -1    0    0  501  503 -0.00000000000E+00 -0.00000000000E+00 -0.44804210824E+02  0.44804210824E+02  0.00000000000E+00 0. -1.
          6    2    1    2  501    0 -0.42628974537E+02  0.16214085635E+03  0.38666188600E+03  0.45558578524E+03  0.17304365593E+03 0.  0.
         24    2    3    3    0    0 -0.72154823796E+02  0.17037890999E+03  0.36693873109E+03  0.41883345005E+03  0.80883465184E+02 0.  0.
         -6    2    1    2    0  502  0.42628974537E+02 -0.16214085635E+03  0.13836330073E+04  0.14043175297E+04  0.17193178470E+03 0.  0.
        -24    2    5    5    0    0 -0.24187781589E+02 -0.15002385492E+03  0.99856109967E+03  0.10132756334E+04  0.80690976228E+02 0.  0.
          5    1    3    3  501    0  0.29525849258E+02 -0.82380536424E+01  0.19723154912E+02  0.36752335190E+02  0.47000000000E+01 0. -1.
        -11    1    4    4    0    0 -0.53143953841E+02  0.79834897068E+02  0.26164272877E+03  0.27866612305E+03  0.00000000000E+00 0.  1.
         12    1    4    4    0    0 -0.19010869955E+02  0.90544012925E+02  0.10529600232E+03  0.14016732700E+03  0.00000000000E+00 0. -1.
         -5    1    5    5    0  502  0.66816756126E+02 -0.12117001430E+02  0.38507190759E+03  0.39104189627E+03  0.47000000000E+01 0.  1.
         11    1    6    6    0    0 -0.38233087583E+02 -0.45159649768E+02  0.23103743820E+03  0.23849415255E+03  0.00000000000E+00 0. -1.
        -12    1    6    6    0    0  0.14045305994E+02 -0.10486420515E+03  0.76752366147E+03  0.77478148085E+03  0.00000000000E+00 0.  1.
</event>
<event>
12    1  0.8563264E-002  0.2383316E+03  0.7818608E-02  0.1121441E+00
         21   -1    0    0  503  502  0.00000000000E+00  0.00000000000E+00  0.85058490674E+02  0.85058490674E+02  0.00000000000E+00 0. -1.
         21   -1    0    0  501  503 -0.00000000000E+00 -0.00000000000E+00 -0.66120441094E+03  0.66120441094E+03  0.00000000000E+00 0.  1.
          6    2    1    2  501    0  0.10109475673E+03 -0.12870178412E+03 -0.31139895318E+03  0.39213681692E+03  0.17325609967E+03 0.  0.
         24    2    3    3    0    0  0.27112142234E+02 -0.18176970965E+02 -0.98270167184E+02  0.14086976578E+03  0.95508086686E+02 0.  0.
         -6    2    1    2    0  502 -0.10109475673E+03  0.12870178412E+03 -0.26474696709E+03  0.35412608469E+03  0.16890834262E+03 0.  0.
        -24    2    5    5    0    0  0.53921396107E+01  0.31958555289E+02 -0.14123377229E+03  0.16445186213E+03  0.77762536592E+02 0.  0.
          5    1    3    3  501    0  0.73982614495E+02 -0.11052481315E+03 -0.21312878599E+03  0.25126705114E+03  0.47000000000E+01 0. -1.
        -13    1    4    4    0    0  0.40128752382E+02  0.20124819380E+02 -0.88528184188E+02  0.99260085223E+02  0.00000000000E+00 0.  1.
         14    1    4    4    0    0 -0.13016610148E+02 -0.38301790345E+02 -0.97419829961E+01  0.41609680557E+02  0.00000000000E+00 0. -1.
         -5    1    5    5    0  502 -0.10648689634E+03  0.96743228826E+02 -0.12351319480E+03  0.18967422256E+03  0.47000000000E+01 0.  1.
         13    1    6    6    0    0  0.36778318629E+02  0.60153952433E+01 -0.36861981346E+02  0.52417891696E+02  0.00000000000E+00 0. -1.
        -14    1    6    6    0    0 -0.31386179018E+02  0.25943160046E+02 -0.10437179094E+03  0.11203397043E+03  0.00000000000E+00 0.  1.
</event>
<event>
12    1  0.8563264E-002  0.2195230E+03  0.7818608E-02  0.1134686E+00
         21   -1    0    0  501  502  0.00000000000E+00  0.00000000000E+00  0.13001159450E+03  0.13001159450E+03  0.00000000000E+00 0. -1.
         21   -1    0    0  502  503 -0.00000000000E+00 -0.00000000000E+00 -0.39668480821E+03  0.39668480821E+03  0.00000000000E+00 0.  1.
         -6    2    1    2    0  503  0.75479375371E+02 -0.10876349684E+03 -0.20511806328E+03  0.29870657348E+03  0.17212077970E+03 0.  0.
        -24    2    3    3    0    0  0.71587384167E+02 -0.14230026552E+03 -0.14408398736E+03  0.22879869929E+03  0.78832291904E+02 0.  0.
          6    2    1    2  501    0 -0.75479375371E+02  0.10876349684E+03 -0.61555150424E+02  0.22798982923E+03  0.17511051179E+03 0.  0.
         24    2    5    5    0    0 -0.10520160710E+03  0.41019212138E+02 -0.64197375191E+02  0.15381590848E+03  0.82389785892E+02 0.  0.
          5    1    5    5  501    0  0.29722231726E+02  0.67744284699E+02  0.26422247679E+01  0.74173920753E+02  0.47000000000E+01 0. -1.
        -13    1    6    6    0    0 -0.39400904167E+02  0.40802686507E+02 -0.67210072874E+02  0.87945917308E+02  0.00000000000E+00 0.  1.
         14    1    6    6    0    0 -0.65800702930E+02  0.21652563098E+00  0.30126976827E+01  0.65869991170E+02  0.00000000000E+00 0. -1.
         -5    1    3    3    0  503  0.38919912039E+01  0.33536768681E+02 -0.61034075927E+02  0.69907874187E+02  0.47000000000E+01 0.  1.
         13    1    4    4    0    0  0.35226054255E+02 -0.12919929315E+03 -0.86416472656E+02  0.15937734781E+03  0.00000000000E+00 0. -1.
        -14    1    4    4    0    0  0.36361329912E+02 -0.13100972369E+02 -0.57667514700E+02  0.69421351482E+02  0.00000000000E+00 0.  1.
</event>
<event>
12    1  0.8563264E-002  0.2704415E+03  0.7818608E-02  0.1101487E+00
         21   -1    0    0  503  502  0.00000000000E+00  0.00000000000E+00  0.10267795482E+03  0.10267795482E+03  0.00000000000E+00 0.  1.
         21   -1    0    0  501  503 -0.00000000000E+00 -0.00000000000E+00 -0.20672022310E+04  0.20672022310E+04  0.00000000000E+00 0.  1.
          6    2    1    2  501    0  0.12754914518E+03 -0.16124308427E+03 -0.18653123372E+04  0.18848153015E+04  0.17569999659E+03 0.  0.
         24    2    3    3    0    0  0.66330223019E+02 -0.23785042626E+02 -0.10714163201E+04  0.10767710913E+04  0.80855583496E+02 0.  0.
         -6    2    1    2    0  502 -0.12754914518E+03  0.16124308427E+03 -0.99211939008E+02  0.28506488434E+03  0.17073623747E+03 0.  0.
        -24    2    5    5    0    0 -0.12620975558E+03  0.51362761228E+02 -0.55109519600E+02  0.16656343814E+03  0.78353584024E+02 0.  0.
          5    1    3    3  501    0  0.61218922158E+02 -0.13745804164E+03 -0.79389601705E+03  0.80804421014E+03  0.47000000000E+01 0. -1.
        -11    1    4    4    0    0  0.28683125117E+02 -0.33013642720E+02 -0.21112711529E+03  0.21560909323E+03  0.00000000000E+00 0.  1.
         12    1    4    4    0    0  0.37647097901E+02  0.92286000943E+01 -0.86028920483E+03  0.86116199811E+03  0.00000000000E+00 0. -1.
         -5    1    5    5    0  502 -0.13393896009E+01  0.10988032304E+03 -0.44102419408E+02  0.11850144621E+03  0.47000000000E+01 0.  1.
         13    1    6    6    0    0 -0.89221610632E+02  0.46595809866E+02 -0.73834319841E+02  0.12483257623E+03  0.00000000000E+00 0. -1.
        -14    1    6    6    0    0 -0.36988144944E+02  0.47669513623E+01  0.18724800240E+02  0.41730861909E+02  0.00000000000E+00 0.  1.
</event>
<event>
12    1  0.8563264E-002  0.1839535E+03  0.7818608E-02  0.1164239E+00
         21   -1    0    0  503  502  0.00000000000E+00  0.00000000000E+00  0.29455831481E+03  0.29455831481E+03  0.00000000000E+00 0. -1.
         21   -1    0    0  501  503 -0.00000000000E+00 -0.00000000000E+00 -0.19314655806E+03  0.19314655806E+03  0.00000000000E+00 0. -1.
          6    2    1    2  501    0  0.43532217714E+02 -0.46176857145E+02 -0.10513992890E+03  0.21111405725E+03  0.17171891103E+03 0.  0.
         24    2    3    3    0    0 -0.23845394141E+01 -0.47120069007E+01 -0.12212947513E+03  0.14678352739E+03  0.81252114931E+02 0.  0.
         -6    2    1    2    0  502 -0.43532217714E+02  0.46176857145E+02  0.20655168566E+03  0.27659081562E+03  0.17266014110E+03 0.  0.
        -24    2    5    5    0    0  0.15928891129E+02  0.77075989967E+02  0.98107205717E+02  0.14902641972E+03  0.79933798594E+02 0.  0.
          5    1    3    3  501    0  0.45916757129E+02 -0.41464850244E+02  0.16989546226E+02  0.64330529859E+02  0.47000000000E+01 0. -1.
        -13    1    4    4    0    0  0.11416966703E+02 -0.25404738403E+02 -0.66223909191E+01  0.28628725496E+02  0.00000000000E+00 0.  1.
         14    1    4    4    0    0 -0.13801506117E+02  0.20692731502E+02 -0.11550708421E+03  0.11815480190E+03  0.00000000000E+00 0. -1.
         -5    1    5    5    0  502 -0.59461108844E+02 -0.30899132823E+02  0.10844447994E+03  0.12756439591E+03  0.47000000000E+01 0.  1.
         11    1    6    6    0    0 -0.21752339403E+02  0.68507354953E+02  0.75558019771E+02  0.10428535997E+03  0.00000000000E+00 0. -1.
        -12    1    6    6    0    0  0.37681230532E+02  0.85686350142E+01  0.22549185945E+02  0.44741059746E+02  0.00000000000E+00 0.  1.
</event>
<event>
12    1  0.8563264E-002  0.2591117E+03  0.7818608E-02  0.1107886E+00
         21   -1    0    0  501  502  0.00000000000E+00  0.00000000000E+00  0.67540287501E+03  0.67540287501E+03  0.00000000000E+00 0.  1.
         21   -1    0    0  502  503 -0.00000000000E+00 -0.00000000000E+00 -0.14614271391E+03  0.14614271391E+03  0.00000000000E+00 0.  1.
         -6    2    1    2    0  503 -0.81514475355E+02 -0.17576048625E+03  0.31504817510E+02  0.26101992532E+03  0.17205374064E+03 0.  0.
        -24    2    3    3    0    0 -0.11435091709E+03 -0.89120241549E+02  0.16863348133E+02  0.16709854046E+03  0.81357237048E+02 0.  0.
          6    2    1    2  501    0  0.81514475355E+02  0.17576048625E+03  0.49775534359E+03  0.56052566359E+03  0.16997729041E+03 0.  0.
         24    2    5    5    0    0  0.89381524584E+02  0.19641708735E+03  0.47877192434E+03  0.53101217788E+03  0.78629818645E+02 0.  0.
          5    1    5    5  501    0 -0.78670492296E+01 -0.20656601099E+02  0.18983419250E+02  0.29513485713E+02  0.47000000000E+01 0. -1.
        -13    1    6    6    0    0  0.95108797846E+02  0.17990637528E+03  0.38347016042E+03  0.43412135541E+03  0.00000000000E+00 0.  1.
         14    1    6    6    0    0 -0.57272732618E+01  0.16510712078E+02  0.95301763920E+02  0.96890822469E+02  0.00000000000E+00 0. -1.
         -5    1    3    3    0  503  0.32836441737E+02 -0.86640244706E+02  0.14641469376E+02  0.93921384861E+02  0.47000000000E+01 0.  1.
         11    1    4    4    0    0 -0.62038139636E+02 -0.85965023505E+02  0.35000239278E+02  0.11164108914E+03  0.00000000000E+00 0. -1.
        -12    1    4    4    0    0 -0.52312777456E+02 -0.31552180434E+01 -0.18136891145E+02  0.55457451316E+02  0.00000000000E+00 0.  1.
</event>
<event>
12    1  0.8563264E-002  0.3547834E+03  0.7818608E-02  0.1061956E+00
         21   -1    0    0  503  502  0.00000000000E+00  0.00000000000E+00  0.61369015121E+03  0.61369015121E+03  0.00000000000E+00 0. -1.
         21   -1    0    0  501  503 -0.00000000000E+00 -0.00000000000E+00 -0.26823405655E+03  0.26823405655E+03  0.00000000000E+00 0.  1.
          6    2    1    2  501    0 -0.25241182782E+03 -0.15639738599E+03 -0.55292659260E+02  0.34669449891E+03  0.17019965992E+03 0.  0.
         24    2    3    3    0    0 -0.20704697020E+03 -0.18466485020E+03 -0.46526021138E+02  0.29232572309E+03  0.79499075283E+02 0.  0.
         -6    2    1    2    0  502  0.25241182782E+03  0.15639738599E+03  0.40074875392E+03  0.53522970884E+03  0.19416334436E+03 0.  0.
        -24    2    5    5    0    0  0.25449537979E+03  0.15512316413E+03  0.28718583651E+03  0.42154333745E+03  0.79949898500E+02 0.  0.
          5    1    3    3  501    0 -0.45364857622E+02  0.28267464210E+02 -0.87666381220E+01  0.54368775817E+02  0.47000000000E+01 0. -1.
        -13    1    4    4    0    0 -0.93968462012E+02 -0.36179847497E+02 -0.33081035722E+01  0.10074719235E+03  0.00000000000E+00 0.  1.
         14    1    4    4    0    0 -0.11307850818E+03 -0.14848500270E+03 -0.43217917565E+02  0.19157853074E+03  0.00000000000E+00 0. -1.
         -5    1    5    5    0  502 -0.20835519728E+01  0.12742218588E+01  0.11356291741E+03  0.11368637139E+03  0.47000000000E+01 0.  1.
         11    1    6    6    0    0  0.22837935389E+03  0.14836825374E+03  0.22325675892E+03  0.35215600010E+03  0.00000000000E+00 0. -1.
        -12    1    6    6    0    0  0.26116025902E+02  0.67549103912E+01  0.63929077588E+02  0.69387337351E+02  0.00000000000E+00 0.  1.
</event>
<event>
12    1  0.8563264E-002  0.1915012E+03  0.7818608E-02  0.1157591E+00
         21   -1    0    0  503  502  0.00000000000E+00  0.00000000000E+00  0.28104397070E+03  0.28104397070E+03  0.00000000000E+00 0. -1.
         21   -1    0    0  501  503 -0.00000000000E+00 -0.00000000000E+00 -0.16475667191E+03  0.16475667191E+03  0.00000000000E+00 0. -1.
          6    2    1    2  501    0 -0.77553341436E+02 -0.13698136891E+02 -0.45378143710E+02  0.19680419558E+03  0.17455817296E+03 0.  0.
         24    2    3    3    0    0  0.18693564974E+02  0.28601485920E+00  0.12493898818E+02  0.83533339662E+02  0.80449923253E+02 0.  0.
         -6    2    1    2    0  502  0.77553341436E+02  0.13698136891E+02  0.16166544250E+03  0.24899644703E+03  0.17222472416E+03 0.  0.
        -24    2    5    5    0    0  0.61733737535E+02  0.22724372375E+02  0.28227864821E+02  0.11423959217E+03  0.89030447702E+02 0.  0.
          5    1    3    3  501    0 -0.96246906410E+02 -0.13984151750E+02 -0.57872042528E+02  0.11327085592E+03  0.47000000000E+01 0. -1.
        -11    1    4    4    0    0  0.62100441434E+01 -0.37984593510E+02 -0.64802097008E+01  0.39030591978E+02  0.00000000000E+00 0.  1.
         12    1    4    4    0    0  0.12483520830E+02  0.38270608370E+02  0.18974108519E+02  0.44502747684E+02  0.00000000000E+00 0. -1.
         -5    1    5    5    0  502  0.15819603900E+02 -0.90262354837E+01  0.13343757767E+03  0.13475685485E+03  0.47000000000E+01 0.  1.
         11    1    6    6    0    0  0.69203613540E+02  0.46792295200E+02  0.30511191833E+02  0.88935886144E+02  0.00000000000E+00 0. -1.
        -12    1    6    6    0    0 -0.74698760051E+01 -0.24067922825E+02 -0.22833270122E+01  0.25303706031E+02  0.00000000000E+00 0.  1.
</event>
<event>
12    1  0.8563264E-002  0.2281848E+03  0.7818608E-02  0.1128241E+00
         21   -1    0    0  503  502  0.00000000000E+00  0.00000000000E+00  0.46858007893E+02  0.46858007893E+02  0.00000000000E+00 0.  1.
         21   -1    0    0  501  503 -0.00000000000E+00 -0.00000000000E+00 -0.13097830206E+04  0.13097830206E+04  0.00000000000E+00 0.  1.
          6    2    1    2  501    0 -0.52116282232E+02  0.13854519672E+03 -0.89918857208E+03  0.92725482269E+03  0.17131999190E+03 0.  0.
         24    2    3    3    0    0 -0.13827857593E+02  0.10713665292E+03 -0.32918342970E+03  0.35508312431E+03  0.77799889028E+02 0.  0.
         -6    2    1    2    0  502  0.52116282232E+02 -0.13854519672E+03 -0.36373644060E+03  0.42938620578E+03  0.17365896778E+03 0.  0.
        -24    2    5    5    0    0  0.15580588379E+02 -0.13225824378E+03 -0.16267074481E+03  0.22487731423E+03  0.79831306233E+02 0.  0.
          5    1    3    3  501    0 -0.38288424639E+02  0.31408543792E+02 -0.57000514238E+03  0.57217169838E+03  0.47000000000E+01 0. -1.
        -11    1    4    4    0    0 -0.45712760466E+02  0.61557638451E+02 -0.20995323833E+03  0.22351590907E+03  0.00000000000E+00 0.  1.
         12    1    4    4    0    0  0.31884902873E+02  0.45579014472E+02 -0.11923019137E+03  0.13156721524E+03  0.00000000000E+00 0. -1.
         -5    1    5    5    0  502  0.36535693853E+02 -0.62869529358E+01 -0.20106569578E+03  0.20450889155E+03  0.47000000000E+01 0.  1.
         11    1    6    6    0    0  0.26623178611E+02 -0.15987750874E+02 -0.67198654719E+02  0.74027434194E+02  0.00000000000E+00 0. -1.
        -12    1    6    6    0    0 -0.11042590232E+02 -0.11627049291E+03 -0.95472090095E+02  0.15084988004E+03  0.00000000000E+00 0.  1.
</event>
<event>
12    1  0.8563264E-002  0.2262797E+03  0.7818608E-02  0.1129554E+00
         21   -1    0    0  501  502  0.00000000000E+00  0.00000000000E+00  0.34637787381E+03  0.34637787381E+03  0.00000000000E+00 0.  1.
         21   -1    0    0  502  503 -0.00000000000E+00 -0.00000000000E+00 -0.17389025117E+03  0.17389025117E+03  0.00000000000E+00 0.  1.
         -6    2    1    2    0  503 -0.96446665626E+02 -0.10788329112E+03 -0.16088180279E+02  0.22685091673E+03  0.17395903271E+03 0.  0.
        -24    2    3    3    0    0 -0.43894438419E+02 -0.72966131441E+01 -0.57009468730E+02  0.10611956944E+03  0.77661581268E+02 0.  0.
          6    2    1    2  501    0  0.96446665626E+02  0.10788329112E+03  0.18857580292E+03  0.29341720824E+03  0.17202343106E+03 0.  0.
         24    2    5    5    0    0  0.25167979935E+02  0.59885412362E+02  0.89594872833E+01  0.94247536252E+02  0.67695168583E+02 0.  0.
          5    1    5    5  501    0  0.71278685691E+02  0.47997878760E+02  0.17961631563E+03  0.19916967199E+03  0.47000000000E+01 0. -1.
        -13    1    6    6    0    0  0.46750789347E+01  0.67051984304E+02  0.19677734235E+02  0.70035977803E+02  0.00000000000E+00 0.  1.
         14    1    6    6    0    0  0.20492901000E+02 -0.71665719428E+01 -0.10718246952E+02  0.24211558449E+02  0.00000000000E+00 0. -1.
         -5    1    3    3    0  503 -0.52552227207E+02 -0.10058667798E+03  0.40921288451E+02  0.12073134729E+03  0.47000000000E+01 0.  1.
         13    1    4    4    0    0  0.14012524492E+02 -0.38990451835E+01 -0.44449646880E+02  0.46768841163E+02  0.00000000000E+00 0. -1.
        -14    1    4    4    0    0 -0.57906962911E+02 -0.33975679606E+01 -0.12559821850E+02  0.59350728273E+02  0.00000000000E+00 0.  1.
</event>
<event>
12    1  0.8563264E-002  0.1790825E+03  0.7818608E-02  0.1168816E+00
         21   -1    0    0  503  502  0.00000000000E+00  0.00000000000E+00  0.12149814047E+03  0.12149814047E+03  0.00000000000E+00 0.  1.
         21   -1    0    0  501  503 -0.00000000000E+00 -0.00000000000E+00 -0.27785022968E+03  0.27785022968E+03  0.00000000000E+00 0.  1.
          6    2    1    2  501    0 -0.37000590446E+02  0.31762010163E+02 -0.12389141388E+03  0.21734776695E+03  0.17179377282E+03 0.  0.
         24    2    3    3    0    0 -0.30781767790E+02  0.72452602994E+02 -0.31730034751E+02  0.11630219355E+03  0.79514201311E+02 0.  0.
         -6    2    1    2    0  502  0.37000590446E+02 -0.31762010163E+02 -0.32460675325E+02  0.18200060320E+03  0.17231556848E+03 0.  0.
        -24    2    5    5    0    0  0.31196109364E+02 -0.74580600692E+02 -0.62294010193E+02  0.12928209066E+03  0.79359007172E+02 0.  0.
          5    1    3    3  501    0 -0.62188226560E+01 -0.40690592831E+02 -0.92161379132E+02  0.10104557340E+03  0.47000000000E+01 0. -1.
        -13    1    4    4    0    0 -0.35284576898E+01 -0.16998246548E+02 -0.10903392379E+02  0.20500594253E+02  0.00000000000E+00 0.  1.
         14    1    4    4    0    0 -0.27253310100E+02  0.89450849542E+02 -0.20826642372E+02  0.95801599296E+02  0.00000000000E+00 0. -1.
         -5    1    5    5    0  502  0.58044810813E+01  0.42818590529E+02  0.29833334868E+02  0.52718512544E+02  0.47000000000E+01 0.  1.
         11    1    6    6    0    0 -0.26649061177E+02 -0.30125855283E+02 -0.19440928478E+02  0.44673138666E+02  0.00000000000E+00 0. -1.
        -12    1    6    6    0    0  0.57845170542E+02 -0.44454745409E+02 -0.42853081715E+02  0.84608951990E+02  0.00000000000E+00 0.  1.
</event>
<event>
12    1  0.8563264E-002  0.1797591E+03  0.7818608E-02  0.1168120E+00
         21   -1    0    0  501  502  0.00000000000E+00  0.00000000000E+00  0.60745316783E+02  0.60745316783E+02  0.00000000000E+00 0. -1.
         21   -1    0    0  502  503 -0.00000000000E+00 -0.00000000000E+00 -0.55935280476E+03  0.55935280476E+03  0.00000000000E+00 0. -1.
         -6    2    1    2    0  503 -0.30865683079E+01 -0.50920276858E+02 -0.31897326253E+03  0.36596867239E+03  0.17200792267E+03 0.  0.
        -24    2    3    3    0    0 -0.58479493390E+02 -0.32485815375E+02 -0.26991588647E+03  0.28956892327E+03  0.80748970315E+02 0.  0.
          6    2    1    2  501    0  0.30865683079E+01  0.50920276858E+02 -0.17963422545E+03  0.25412944916E+03  0.17236856000E+03 0.  0.
         24    2    5    5    0    0 -0.65176694458E+02  0.37472383072E+02 -0.10486763433E+03  0.15189025883E+03  0.80132696224E+02 0.  0.
          5    1    5    5  501    0  0.68263262766E+02  0.13447893786E+02 -0.74766591121E+02  0.10223919033E+03  0.47000000000E+01 0. -1.
        -13    1    6    6    0    0 -0.14732608845E+02  0.58917575495E+01 -0.88853547713E+02  0.90259157494E+02  0.00000000000E+00 0.  1.
         14    1    6    6    0    0 -0.50444085613E+02  0.31580625523E+02 -0.16014086617E+02  0.61631101337E+02  0.00000000000E+00 0. -1.
         -5    1    3    3    0  503  0.55392925083E+02 -0.18434461483E+02 -0.49057376053E+02  0.76399749114E+02  0.47000000000E+01 0.  1.
         13    1    4    4    0    0 -0.74405757139E+02 -0.26083122485E+02 -0.16056390707E+03  0.17887793108E+03  0.00000000000E+00 0. -1.
        -14    1    4    4    0    0  0.15926263748E+02 -0.64026928899E+01 -0.10935197940E+03  0.11069099219E+03  0.00000000000E+00 0.  1.
</event>
<event>
12    1  0.8563264E-002  0.1801671E+03  0.7818608E-02  0.1167780E+00
         21   -1    0    0  501  502  0.00000000000E+00  0.00000000000E+00  0.11283848554E+03  0.11283848554E+03  0.00000000000E+00 0.  1.
         21   -1    0    0  502  503 -0.00000000000E+00 -0.00000000000E+00 -0.29346746721E+03  0.29346746721E+03  0.00000000000E+00 0. -1.
         -6    2    1    2    0  503 -0.37098300418E+02 -0.38100366293E+02 -0.59454582857E+02  0.18918058604E+03  0.17154161275E+03 0.  0.
        -24    2    3    3    0    0  0.43823099607E+02 -0.34042950863E+02 -0.46077175058E+02  0.10692622055E+03  0.78934935340E+02 0.  0.
          6    2    1    2  501    0  0.37098300418E+02  0.38100366293E+02 -0.12117439882E+03  0.21712536671E+03  0.17214025716E+03 0.  0.
         24    2    5    5    0    0  0.21353640364E+01  0.68970803828E+02 -0.13200983993E+03  0.16901208770E+03  0.79855847559E+02 0.  0.
          5    1    5    5  501    0  0.34962936382E+02 -0.30870437535E+02  0.10835441104E+02  0.48113279019E+02  0.47000000000E+01 0. -1.
        -13    1    6    6    0    0 -0.27163340051E+02 -0.28427739339E+01 -0.26435913227E+02  0.38010339573E+02  0.00000000000E+00 0.  1.
         14    1    6    6    0    0  0.29298704087E+02  0.71813577762E+02 -0.10557392670E+03  0.13100174812E+03  0.00000000000E+00 0. -1.
         -5    1    3    3    0  503 -0.80921400026E+02 -0.40574154302E+01 -0.13377407799E+02  0.82254365486E+02  0.47000000000E+01 0.  1.
         11    1    4    4    0    0  0.33097827263E+02  0.21707149473E+02 -0.16153817324E+02  0.42750582709E+02  0.00000000000E+00 0. -1.
        -12    1    4    4    0    0  0.10725272344E+02 -0.55750100335E+02 -0.29923357734E+02  0.64175637841E+02  0.00000000000E+00 0.  1.
</event>
<event>
12    1  0.8563264E-002  0.1975539E+03  0.7818608E-02  0.1152287E+00
         21   -1    0    0  503  502  0.00000000000E+00  0.00000000000E+00  0.52182549083E+02  0.52182549083E+02  0.00000000000E+00 0. -1.
         21   -1    0    0  501  503 -0.00000000000E+00 -0.00000000000E+00 -0.88498242451E+03  0.88498242451E+03  0.00000000000E+00 0.  1.
          6    2    1    2  501    0  0.50663017256E+02  0.83654179765E+02 -0.60432650864E+03  0.63512587274E+03  0.16914367287E+03 0.  0.
         24    2    3    3    0    0  0.24833023702E+02  0.14624675446E+02 -0.12869149400E+03  0.15379125090E+03  0.79118190240E+02 0.  0.
         -6    2    1    2    0  502 -0.50663017256E+02 -0.83654179765E+02 -0.22847336679E+03  0.30203910085E+03  0.17164724292E+03 0.  0.
        -24    2    5    5    0    0 -0.13168031717E+02 -0.12054105992E+03 -0.17248391812E+03  0.22507531567E+03  0.78769610423E+02 0.  0.
          5    1    3    3  501    0  0.25829993555E+02  0.69029504320E+02 -0.47563501464E+03  0.48133462184E+03  0.47000000000E+01 0. -1.
        -11    1    4    4    0    0  0.15052279821E+02  0.37687517249E+02 -0.12094160303E+03  0.12756877136E+03  0.00000000000E+00 0.  1.
         12    1    4    4    0    0  0.97807438811E+01 -0.23062841803E+02 -0.77498909725E+01  0.26222479535E+02  0.00000000000E+00 0. -1.
         -5    1    5    5    0  502 -0.37494985539E+02  0.36886880155E+02 -0.55989448670E+02  0.76963785189E+02  0.47000000000E+01 0.  1.
         13    1    6    6    0    0 -0.32591098629E+02 -0.23375159783E+02 -0.80199095270E+02  0.89668682866E+02  0.00000000000E+00 0. -1.
        -14    1    6    6    0    0  0.19423066912E+02 -0.97165900138E+02 -0.92284822848E+02  0.13540663280E+03  0.00000000000E+00 0.  1.
</event>
<event>
12    1  0.8563264E-002  0.2091525E+03  0.7818608E-02  0.1142282E+00
         21   -1    0    0  501  502  0.00000000000E+00  0.00000000000E+00  0.14544776122E+03  0.14544776122E+03  0.00000000000E+00 0. -1.
         21   -1    0    0  502  503 -0.00000000000E+00 -0.00000000000E+00 -0.62828630092E+03  0.62828630092E+03  0.00000000000E+00 0. -1.
         -6    2    1    2    0  503 -0.71599935678E+02 -0.93719627744E+02 -0.52093460368E+03  0.56135340180E+03  0.17272770764E+03 0.  0.
        -24    2    3    3    0    0 -0.35264069126E+02 -0.39832714302E+02 -0.46717139874E+03  0.47687460656E+03  0.79561767761E+02 0.  0.
          6    2    1    2  501    0  0.71599935678E+02  0.93719627744E+02  0.38096063977E+02  0.21238066034E+03  0.17246540343E+03 0.  0.
         24    2    5    5    0    0  0.52319712261E+02  0.11955687249E+03  0.66962251299E+02  0.16885323218E+03  0.83643725818E+02 0.  0.
          5    1    5    5  501    0  0.19280223417E+02 -0.25837244749E+02 -0.28866187322E+02  0.43527428154E+02  0.47000000000E+01 0. -1.
        -13    1    6    6    0    0 -0.56942387938E+01  0.57342020275E-01 -0.12729444995E+02  0.13945121492E+02  0.00000000000E+00 0.  1.
         14    1    6    6    0    0  0.58013951055E+02  0.11949953047E+03  0.79691696293E+02  0.15490811069E+03  0.00000000000E+00 0. -1.
         -5    1    3    3    0  503 -0.36335866552E+02 -0.53886913443E+02 -0.53763204944E+02  0.84478795235E+02  0.47000000000E+01 0.  1.
         13    1    4    4    0    0 -0.52280089704E-02 -0.43899042056E+02 -0.11795287489E+03  0.12585708806E+03  0.00000000000E+00 0. -1.
        -14    1    4    4    0    0 -0.35258841117E+02  0.40663277540E+01 -0.34921852385E+03  0.35101751850E+03  0.00000000000E+00 0.  1.
</event>
<event>
12    1  0.8563264E-002  0.2001880E+03  0.7818608E-02  0.1149686E+00
         21   -1    0    0  503  502  0.00000000000E+00  0.00000000000E+00  0.43698535444E+02  0.43698535444E+02  0.00000000000E+00 0. -1.
         21   -1    0    0  501  503 -0.00000000000E+00 -0.00000000000E+00 -0.96016754175E+03  0.96016754175E+03  0.00000000000E+00 0. -1.
          6    2    1    2  501    0 -0.48379656679E+01  0.10276683985E+03 -0.56789674760E+03  0.60214778924E+03  0.17172889933E+03 0.  0.
         24    2    3    3    0    0  0.33984894285E+02  0.24934482956E+01 -0.33155427464E+03  0.34245215578E+03  0.78638741386E+02 0.  0.
         -6    2    1    2    0  502  0.48379656679E+01 -0.10276683985E+03 -0.34857225871E+03  0.40171828796E+03  0.17114477513E+03 0.  0.
        -24    2    5    5    0    0 -0.14647446214E+02 -0.15760241637E+02 -0.27157580446E+03  0.28381844327E+03  0.79602501708E+02 0.  0.
          5    1    3    3  501    0 -0.38822859953E+02  0.10027339156E+03 -0.23634247296E+03  0.25969563346E+03  0.47000000000E+01 0. -1.
        -13    1    4    4    0    0  0.26322605012E+02  0.29270892439E+02 -0.28850671022E+03  0.29117998990E+03  0.00000000000E+00 0.  1.
         14    1    4    4    0    0  0.76622892737E+01 -0.26777444143E+02 -0.43047564420E+02  0.51272165882E+02  0.00000000000E+00 0. -1.
         -5    1    5    5    0  502  0.19485411882E+02 -0.87006598217E+02 -0.76996454253E+02  0.11789984469E+03  0.47000000000E+01 0.  1.
         13    1    6    6    0    0 -0.22133964382E+02 -0.12028820739E+02 -0.20163956184E+02  0.32267476452E+02  0.00000000000E+00 0. -1.
        -14    1    6    6    0    0  0.74865181673E+01 -0.37314208978E+01 -0.25141184827E+03  0.25155096682E+03  0.00000000000E+00 0.  1.
</event>
<event>
12    1  0.8563264E-002  0.2380434E+03  0.7818608E-02  0.1121140E+00
         21   -1    0    0  503  502  0.00000000000E+00  0.00000000000E+00  0.56673896429E+02  0.56673896429E+02  0.00000000000E+00 0. -1.
         21   -1    0    0  501  503 -0.00000000000E+00 -0.00000000000E+00 -0.12330520514E+04  0.12330520514E+04  0.00000000000E+00 0.  1.
          6    2    1    2  501    0 -0.14111763689E+03 -0.83179022848E+02 -0.86896831257E+03  0.90092591509E+03  0.17241994936E+03 0.  0.
         24    2    3    3    0    0 -0.17035495992E+03 -0.62707571373E+02 -0.67315762213E+03  0.70183342936E+03  0.80473141201E+02 0.  0.
         -6    2    1    2    0  502  0.14111763689E+03  0.83179022848E+02 -0.30740984235E+03  0.38880003269E+03  0.17271860630E+03 0.  0.
        -24    2    5    5    0    0  0.91625890649E+02 -0.65864475748E+01 -0.99455361827E+02  0.15690689222E+03  0.79307746798E+02 0.  0.
          5    1    3    3  501    0  0.29237323025E+02 -0.20471451475E+02 -0.19581069044E+03  0.19909248573E+03  0.47000000000E+01 0. -1.
        -13    1    4    4    0    0 -0.75101855670E+02 -0.69924217782E+02 -0.32558216672E+03  0.34136993460E+03  0.00000000000E+00 0.  1.
         14    1    4    4    0    0 -0.95253104249E+02  0.72166464092E+01 -0.34757545541E+03  0.36046349476E+03  0.00000000000E+00 0. -1.
         -5    1    5    5    0  502  0.49491746245E+02  0.89765470423E+02 -0.20795448052E+03  0.23189314047E+03  0.47000000000E+01 0.  1.
         13    1    6    6    0    0  0.80657801768E+02  0.26974556815E+02 -0.60754711415E+02  0.10452005865E+03  0.00000000000E+00 0. -1.
        -14    1    6    6    0    0  0.10968088881E+02 -0.33561004390E+02 -0.38700650412E+02  0.52386833572E+02  0.00000000000E+00 0.  1.
</event>
<event>
12    1  0.8563264E-002  0.1747532E+03  0.7818608E-02  0.1173284E+00
         21   -1    0    0  503  502  0.00000000000E+00  0.00000000000E+00  0.40021058767E+03  0.40021058767E+03  0.00000000000E+00 0. -1.
         21   -1    0    0  501  503 -0.00000000000E+00 -0.00000000000E+00 -0.76268884865E+02  0.76268884865E+02  0.00000000000E+00 0. -1.
          6    2    1    2  501    0  0.14381157726E+02 -0.13367210812E+02  0.14346665370E+03  0.22610032399E+03  0.17364669810E+03 0.  0.
         24    2    3    3    0    0 -0.25162593452E+02  0.50960209896E+02  0.76489599444E+02  0.12505706044E+03  0.80984630887E+02 0.  0.
         -6    2    1    2    0  502 -0.14381157726E+02  0.13367210812E+02  0.18047504910E+03  0.25037914855E+03  0.17243252204E+03 0.  0.
        -24    2    5    5    0    0  0.34230248416E+02 -0.42075097342E+02  0.69412593142E+02  0.11698545505E+03  0.76977041278E+02 0.  0.
          5    1    3    3  501    0  0.39543751178E+02 -0.64327420708E+02  0.66977054259E+02  0.10104326355E+03  0.47000000000E+01 0. -1.
        -11    1    4    4    0    0  0.22471829658E+01 -0.15110040290E+02 -0.55131139459E+01  0.16240614959E+02  0.00000000000E+00 0.  1.
         12    1    4    4    0    0 -0.27409776417E+02  0.66070250186E+02  0.82002713390E+02  0.10881644548E+03  0.00000000000E+00 0. -1.
         -5    1    5    5    0  502 -0.48611406142E+02  0.55442308154E+02  0.11106245596E+03  0.13339369349E+03  0.47000000000E+01 0.  1.
         11    1    6    6    0    0  0.12287671750E+01 -0.31476548315E+02 -0.77112641344E+01  0.32430642256E+02  0.00000000000E+00 0. -1.
        -12    1    6    6    0    0  0.33001481241E+02 -0.10598549027E+02  0.77123857277E+02  0.84554812795E+02  0.00000000000E+00 0.  1.
</event>
<event>
12    1  0.8563264E-002  0.1778549E+03  0.7818608E-02  0.1170105E+00
         21   -1    0    0  501  502  0.00000000000E+00  0.00000000000E+00  0.17162505768E+04  0.17162505768E+04  0.00000000000E+00 0. -1.
         21   -1    0    0  502  503 -0.00000000000E+00 -0.00000000000E+00 -0.75066196041E+02  0.75066196041E+02  0.00000000000E+00 0. -1.
         -6    2    1    2    0  503 -0.89049484759E+01 -0.40740254469E+02  0.41539113930E+02  0.18181457120E+03  0.17202317830E+03 0.  0.
        -24    2    3    3    0    0 -0.88186788172E+01 -0.57859850202E+02  0.87341461950E+02  0.13269193808E+03  0.80951146345E+02 0.  0.
          6    2    1    2  501    0  0.89049484759E+01  0.40740254469E+02  0.15996452668E+04  0.16095022016E+04  0.17289676387E+03 0.  0.
         24    2    5    5    0    0 -0.60263006854E+02  0.38493211957E+02  0.84738247153E+03  0.85404825967E+03  0.78917801744E+02 0.  0.
          5    1    5    5  501    0  0.69167955330E+02  0.22470425122E+01  0.75226279528E+03  0.75545394195E+03  0.47000000000E+01 0. -1.
        -13    1    6    6    0    0 -0.21932986661E+02  0.39992494897E+02  0.18441452160E+03  0.18997150136E+03  0.00000000000E+00 0.  1.
         14    1    6    6    0    0 -0.38330020194E+02 -0.14992829403E+01  0.66296794992E+03  0.66407675830E+03  0.00000000000E+00 0. -1.
         -5    1    3    3    0  503 -0.86269658705E-01  0.17119595733E+02 -0.45802348019E+02  0.49122633120E+02  0.47000000000E+01 0.  1.
         11    1    4    4    0    0 -0.38229785392E+02 -0.52625330384E+02  0.38930675182E+02  0.75805932217E+02  0.00000000000E+00 0. -1.
        -12    1    4    4    0    0  0.29411106574E+02 -0.52345198175E+01  0.48410786768E+02  0.56886005864E+02  0.00000000000E+00 0.  1.
</event>
<event>
12    1  0.8563264E-002  0.1738390E+03  0.7818608E-02  0.1174421E+00
         21   -1    0    0  503  502  0.00000000000E+00  0.00000000000E+00  0.15140226432E+03  0.15140226432E+03  0.00000000000E+00 0. -1.
         21   -1    0    0  501  503 -0.00000000000E+00 -0.00000000000E+00 -0.21380157359E+03  0.21380157359E+03  0.00000000000E+00 0. -1.
          6    2    1    2  501    0 -0.90374022597E+01 -0.10146076573E+02 -0.81801893116E+02  0.19028544467E+03  0.17126699398E+03 0.  0.
         24    2    3    3    0    0 -0.45974090205E+02 -0.57129219438E+02 -0.68746727254E+02  0.12893186298E+03  0.80746195580E+02 0.  0.
         -6    2    1    2    0  502  0.90374022597E+01  0.10146076573E+02  0.19402583843E+02  0.17491839324E+03  0.17330714505E+03 0.  0.
        -24    2    5    5    0    0  0.22185075083E+02  0.81165800460E+01  0.78501245313E+02  0.11415885124E+03  0.79446468596E+02 0.  0.
          5    1    3    3  501    0  0.36936687946E+02  0.46983142864E+02 -0.13055165862E+02  0.61353581684E+02  0.47000000000E+01 0. -1.
        -13    1    4    4    0    0  0.15382535151E+02 -0.10115074564E+02 -0.44117995168E+02  0.47805173557E+02  0.00000000000E+00 0.  1.
         14    1    4    4    0    0 -0.61356625356E+02 -0.47014144873E+02 -0.24628732085E+02  0.81126689427E+02  0.00000000000E+00 0. -1.
         -5    1    5    5    0  502 -0.13147672824E+02  0.20294965271E+01 -0.59098661471E+02  0.60759542003E+02  0.47000000000E+01 0.  1.
         13    1    6    6    0    0 -0.22910205331E+01 -0.32843134191E+02  0.45420297489E+02  0.56097447915E+02  0.00000000000E+00 0. -1.
        -14    1    6    6    0    0  0.24476095616E+02  0.40959714237E+02  0.33080947824E+02  0.58061403324E+02  0.00000000000E+00 0.  1.
</event>
<event>
12    1  0.8563264E-002  0.2880218E+03  0.7818608E-02  0.1091788E+00
         21   -1    0    0  503  502  0.00000000000E+00  0.00000000000E+00  0.22979459448E+03  0.22979459448E+03  0.00000000000E+00 0. -1.
         21   -1    0    0  501  503 -0.00000000000E+00 -0.00000000000E+00 -0.57882284042E+03  0.57882284042E+03  0.00000000000E+00 0.  1.
          6    2    1    2  501    0  0.19165548586E+03  0.12344350858E+03 -0.42411109354E+03  0.51097003987E+03  0.17102642168E+03 0.  0.
         24    2    3    3    0    0  0.99723432320E+02  0.21688043514E+02 -0.29699654112E+03  0.32392492078E+03  0.79405759750E+02 0.  0.
         -6    2    1    2    0  502 -0.19165548586E+03 -0.12344350858E+03  0.75082847598E+02  0.29764739503E+03  0.17602957903E+03 0.  0.
        -24    2    5    5    0    0 -0.16009412737E+02 -0.56462432910E+02  0.28825071130E+02  0.10399853914E+03  0.80873381234E+02 0.  0.
          5    1    3    3  501    0  0.91932053538E+02  0.10175546506E+03 -0.12711455241E+03  0.18704511908E+03  0.47000000000E+01 0. -1.
        -11    1    4    4    0    0  0.10877269417E+03  0.33738646951E+02 -0.26937623068E+03  0.29246085029E+03  0.00000000000E+00 0.  1.
         12    1    4    4    0    0 -0.90492618528E+01 -0.12050603437E+02 -0.27620310441E+02  0.31464070496E+02  0.00000000000E+00 0. -1.
         -5    1    5    5    0  502 -0.17564607312E+03 -0.66981075668E+02  0.46257776468E+02  0.19364885588E+03  0.47000000000E+01 0.  1.
         13    1    6    6    0    0  0.17217498697E+02 -0.60366368434E+02  0.50919791680E+01  0.62979909107E+02  0.00000000000E+00 0. -1.
        -14    1    6    6    0    0 -0.33226911434E+02  0.39039355239E+01  0.23733091962E+02  0.41018630037E+02  0.00000000000E+00 0.  1.
</event>
<event>
12    1  0.8563264E-002  0.2219854E+03  0.7818608E-02  0.1132507E+00
         21   -1    0    0  501  502  0.00000000000E+00  0.00000000000E+00  0.17976845524E+03  0.17976845524E+03  0.00000000000E+00 0.  1.
         21   -1    0    0  502  503 -0.00000000000E+00 -0.00000000000E+00 -0.27850032748E+03  0.27850032748E+03  0.00000000000E+00 0.  1.
         -6    2    1    2    0  503 -0.11254873241E+03 -0.82571119525E+02 -0.18656229162E+02  0.22276802523E+03  0.17260455160E+03 0.  0.
        -24    2    3    3    0    0  0.12871305289E+02 -0.32412510853E+02 -0.18507983230E+02  0.87608179649E+02  0.78207457051E+02 0.  0.
          6    2    1    2  501    0  0.11254873241E+03  0.82571119525E+02 -0.80075643073E+02  0.23550075749E+03  0.17193978951E+03 0.  0.
         24    2    5    5    0    0  0.12035874838E+03  0.30149844730E+02 -0.10623938445E+02  0.14801009698E+03  0.79992995267E+02 0.  0.
          5    1    5    5  501    0 -0.78100159640E+01  0.52421274795E+02 -0.69451704628E+02  0.87490660509E+02  0.47000000000E+01 0. -1.
        -13    1    6    6    0    0  0.86915979228E+02  0.33660073128E+02 -0.41804592207E+02  0.10215190599E+03  0.00000000000E+00 0.  1.
         14    1    6    6    0    0  0.33442769150E+02 -0.35102283973E+01  0.31180653762E+02  0.45858190990E+02  0.00000000000E+00 0. -1.
         -5    1    3    3    0  503 -0.12542003770E+03 -0.50158608673E+02 -0.14824593173E+00  0.13515984558E+03  0.47000000000E+01 0.  1.
         13    1    4    4    0    0 -0.17718368291E+02  0.17982926983E+02 -0.13007630270E+02  0.28399378215E+02  0.00000000000E+00 0. -1.
        -14    1    4    4    0    0  0.30589673581E+02 -0.50395437836E+02 -0.55003529608E+01  0.59208801433E+02  0.00000000000E+00 0.  1.
</event>
<event>
12    1  0.8563264E-002  0.2170262E+03  0.7818608E-02  0.1136234E+00
         21   -1    0    0  501  502  0.00000000000E+00  0.00000000000E+00  0.64053903742E+02  0.64053903742E+02  0.00000000000E+00 0.  1.
         21   -1    0    0  502  503 -0.00000000000E+00 -0.00000000000E+00 -0.73842366143E+03  0.73842366143E+03  0.00000000000E+00 0.  1.
         -6    2    1    2    0  503  0.13199159826E+03  0.10013437994E+02 -0.37113131216E+03  0.42992886806E+03  0.17198351600E+03 0.  0.
        -24    2    3    3    0    0  0.98532895698E+02  0.28235940750E+02 -0.12311197846E+03  0.17895631125E+03  0.79767175024E+02 0.  0.
          6    2    1    2  501    0 -0.13199159826E+03 -0.10013437994E+02 -0.30323844552E+03  0.37254869710E+03  0.17122186169E+03 0.  0.
         24    2    5    5    0    0 -0.50262264470E+02  0.48198695561E+02 -0.10080497366E+03  0.14656255367E+03  0.80433388215E+02 0.  0.
          5    1    5    5  501    0 -0.81729333788E+02 -0.58212133555E+02 -0.20243347186E+03  0.22598614344E+03  0.47000000000E+01 0. -1.
        -13    1    6    6    0    0  0.11334517185E+02 -0.14036384703E+02 -0.10980909489E+02  0.21120410710E+02  0.00000000000E+00 0.  1.
         14    1    6    6    0    0 -0.61596781655E+02  0.62235080264E+02 -0.89824064169E+02  0.12544214296E+03  0.00000000000E+00 0. -1.
         -5    1    3    3    0  503  0.33458702560E+02 -0.18222502756E+02 -0.24801933370E+03  0.25097255681E+03  0.47000000000E+01 0.  1.
         13    1    4    4    0    0  0.72366778588E+02 -0.16557138707E+02 -0.92922312281E+02  0.11893546824E+03  0.00000000000E+00 0. -1.
        -14    1    4    4    0    0  0.26166117110E+02  0.44793079457E+02 -0.30189666178E+02  0.60020843012E+02  0.00000000000E+00 0.  1.
</event>
<event>
12    1  0.8563264E-002  0.2104839E+03  0.7818608E-02  0.1142128E+00
         21   -1    0    0  503  502  0.00000000000E+00  0.00000000000E+00  0.16308003482E+03  0.16308003482E+03  0.00000000000E+00 0.  1.
         21   -1    0    0  501  503 -0.00000000000E+00 -0.00000000000E+00 -0.36702033672E+03  0.36702033672E+03  0.00000000000E+00 0.  1.
          6    2    1    2  501    0 -0.34685659793E+02  0.10611331620E+03 -0.24045797671E+03  0.31647212401E+03  0.17283354953E+03 0.  0.
         24    2    3    3    0    0 -0.49923204983E+02  0.10670020758E+03 -0.25545102203E+03  0.29457672192E+03  0.87424022740E+02 0.  0.
         -6    2    1    2    0  502  0.34685659793E+02 -0.10611331620E+03  0.36517674807E+02  0.21362824753E+03  0.17843866369E+03 0.  0.
        -24    2    5    5    0    0 -0.41581703515E+02 -0.97522249967E+02  0.11430357204E+02  0.13274573626E+03  0.79064215186E+02 0.  0.
          5    1    3    3  501    0  0.15237545190E+02 -0.58689137981E+00  0.14993045312E+02  0.21895402089E+02  0.47000000000E+01 0. -1.
        -11    1    4    4    0    0  0.23281486838E+02  0.38941936055E+02 -0.10089030765E+03  0.11062258445E+03  0.00000000000E+00 0.  1.
         12    1    4    4    0    0 -0.73204691821E+02  0.67758271526E+02 -0.15456071438E+03  0.18395413747E+03  0.00000000000E+00 0. -1.
         -5    1    5    5    0  502  0.76267363308E+02 -0.85910662345E+01  0.25087317603E+02  0.80882511271E+02  0.47000000000E+01 0.  1.
         11    1    6    6    0    0 -0.35429214112E+02 -0.36759695497E+02  0.40442865395E+02  0.65131634303E+02  0.00000000000E+00 0. -1.
        -12    1    6    6    0    0 -0.61524894031E+01 -0.60762554471E+02 -0.29012508191E+02  0.67614101955E+02  0.00000000000E+00 0.  1.
</event>
<event>
12    1  0.8563264E-002  0.4285454E+03  0.7818608E-02  0.1034347E+00
         21   -1    0    0  503  502  0.00000000000E+00  0.00000000000E+00  0.28084159396E+03  0.28084159396E+03  0.00000000000E+00 0.  1.
         21   -1    0    0  501  503 -0.00000000000E+00 -0.00000000000E+00 -0.67092187390E+03  0.67092187390E+03  0.00000000000E+00 0. -1.
          6    2    1    2  501    0  0.32291330020E+03 -0.22301212221E+03 -0.11825030276E+03  0.44456082789E+03  0.17217371894E+03 0.  0.
         24    2    3    3    0    0  0.20989590012E+03 -0.11897413091E+03 -0.55964369035E+01  0.25400947039E+03  0.79236091698E+02 0.  0.
         -6    2    1    2    0  502 -0.32291330020E+03  0.22301212221E+03 -0.27182997719E+03  0.50720263996E+03  0.17133468823E+03 0.  0.
        -24    2    5    5    0    0 -0.10895676773E+03  0.13881444334E+03 -0.18579543261E+03  0.26166103499E+03  0.52967230810E+02 0.  0.
          5    1    3    3  501    0  0.11301740008E+03 -0.10403799130E+03 -0.11265386585E+03  0.19055135751E+03  0.47000000000E+01 0. -1.
        -13    1    4    4    0    0  0.11275283441E+03 -0.81774221975E+02 -0.39197451676E+02  0.14469507685E+03  0.00000000000E+00 0.  1.
         14    1    4    4    0    0  0.97143065712E+02 -0.37199908932E+02  0.33601014772E+02  0.10931439354E+03  0.00000000000E+00 0. -1.
         -5    1    5    5    0  502 -0.21395653247E+03  0.84197678869E+02 -0.86034544580E+02  0.24554160497E+03  0.47000000000E+01 0.  1.
         13    1    6    6    0    0 -0.10179275062E+03  0.93592173056E+02 -0.13448661203E+03  0.19289351402E+03  0.00000000000E+00 0. -1.
        -14    1    6    6    0    0 -0.71640171089E+01  0.45222270287E+02 -0.51308820580E+02  0.68767520970E+02  0.00000000000E+00 0.  1.
</event>
<event>
12    1  0.8563264E-002  0.1869072E+03  0.7818608E-02  0.1161407E+00
         21   -1    0    0  503  502  0.00000000000E+00  0.00000000000E+00  0.12320471597E+03  0.12320471597E+03  0.00000000000E+00 0.  1.
         21   -1    0    0  501  503 -0.00000000000E+00 -0.00000000000E+00 -0.52309531510E+03  0.52309531510E+03  0.00000000000E+00 0.  1.
          6    2    1    2  501    0  0.41930550490E+02  0.55140311538E+02 -0.41916356014E+03  0.45894705927E+03  0.17359633650E+03 0.  0.
         24    2    3    3    0    0  0.36652226574E+00  0.71295370865E+02 -0.39303720451E+03  0.40705071217E+03  0.78287124774E+02 0.  0.
         -6    2    1    2    0  502 -0.41930550490E+02 -0.55140311538E+02  0.19272961010E+02  0.18735297180E+03  0.17300596520E+03 0.  0.
        -24    2    5    5    0    0 -0.26742615988E+02 -0.33875864569E+02 -0.55941583841E+02  0.10758977341E+03  0.81137887759E+02 0.  0.
          5    1    3    3  501    0  0.41564028224E+02 -0.16155059327E+02 -0.26126355632E+02  0.51896347104E+02  0.47000000000E+01 0. -1.
        -11    1    4    4    0    0  0.29215623442E+02  0.31498840317E+02 -0.28672140282E+03  0.28992221790E+03  0.00000000000E+00 0.  1.
         12    1    4    4    0    0 -0.28849101177E+02  0.39796530548E+02 -0.10631580168E+03  0.11712849427E+03  0.00000000000E+00 0. -1.
         -5    1    5    5    0  502 -0.15187934502E+02 -0.21264446969E+02  0.75214544851E+02  0.79763198384E+02  0.47000000000E+01 0.  1.
         13    1    6    6    0    0 -0.14397710834E+02  0.83025316580E+01  0.16139917875E+02  0.23167284222E+02  0.00000000000E+00 0. -1.
        -14    1    6    6    0    0 -0.12344905153E+02 -0.42178396227E+02 -0.72081501716E+02  0.84422489190E+02  0.00000000000E+00 0.  1.
</event>
<event>
12    1  0.8563264E-002  0.2519336E+03  0.7818608E-02  0.1113814E+00
         21   -1    0    0  503  502  0.00000000000E+00  0.00000000000E+00  0.73164832995E+03  0.73164832995E+03  0.00000000000E+00 0.  1.
         21   -1    0    0  501  503 -0.00000000000E+00 -0.00000000000E+00 -0.94540408247E+02  0.94540408247E+02  0.00000000000E+00 0.  1.
          6    2    1    2  501    0  0.67717745139E+02 -0.15794398728E+03  0.45623475528E+03  0.51605065354E+03  0.16919257952E+03 0.  0.
         24    2    3    3    0    0  0.84061489230E+02 -0.11798666579E+03  0.43781159605E+03  0.46887853987E+03  0.84740216185E+02 0.  0.
         -6    2    1    2    0  502 -0.67717745139E+02  0.15794398728E+03  0.18087316642E+03  0.31013808466E+03  0.18422413821E+03 0.  0.
        -24    2    5    5    0    0 -0.78006506898E+02  0.17441224678E+03  0.19578619426E+03  0.28520716833E+03  0.80661316990E+02 0.  0.
          5    1    3    3  501    0 -0.16343744091E+02 -0.39957321490E+02  0.18423159226E+02  0.47172113663E+02  0.47000000000E+01 0. -1.
        -11    1    4    4    0    0  0.33080477754E+02 -0.10616720268E+03  0.34309223108E+03  0.36066337763E+03  0.00000000000E+00 0.  1.
         12    1    4    4    0    0  0.50981011477E+02 -0.11819463116E+02  0.94719364971E+02  0.10821516225E+03  0.00000000000E+00 0. -1.
         -5    1    5    5    0  502  0.10288761758E+02 -0.16468259501E+02 -0.14913027840E+02  0.24930916326E+02  0.47000000000E+01 0.  1.
         11    1    6    6    0    0 -0.53482596143E+02  0.31015387948E+02  0.54648567300E+02  0.82515503317E+02  0.00000000000E+00 0. -1.
        -12    1    6    6    0    0 -0.24523910755E+02  0.14339685884E+03  0.14113762696E+03  0.20269166502E+03  0.00000000000E+00 0.  1.
</event>
<event>
12    1  0.8563264E-002  0.3058999E+03  0.7818608E-02  0.1082371E+00
         21   -1    0    0  503  502  0.00000000000E+00  0.00000000000E+00  0.34710814505E+03  0.34710814505E+03  0.00000000000E+00 0. -1.
         21   -1    0    0  501  503 -0.00000000000E+00 -0.00000000000E+00 -0.84870046826E+03  0.84870046826E+03  0.00000000000E+00 0.  1.
          6    2    1    2  501    0 -0.35637606283E+02 -0.25046903938E+03 -0.74487253451E+03  0.80523898547E+03  0.17195915908E+03 0.  0.
         24    2    3    3    0    0 -0.21099060051E+02 -0.23768248659E+03 -0.49839560464E+03  0.55795810830E+03  0.77336518727E+02 0.  0.
         -6    2    1    2    0  502  0.35637606283E+02  0.25046903938E+03  0.24328021129E+03  0.39056962784E+03  0.17133182516E+03 0.  0.
        -24    2    5    5    0    0 -0.16161643497E+02  0.79292478661E+02  0.39286193085E+02  0.11923915280E+03  0.78269244928E+02 0.  0.
          5    1    3    3  501    0 -0.14538546232E+02 -0.12786552795E+02 -0.24647692986E+03  0.24728087717E+03  0.47000000000E+01 0. -1.
        -11    1    4    4    0    0 -0.20410999184E+02 -0.18791775099E+03 -0.45193739365E+03  0.48987457354E+03  0.00000000000E+00 0.  1.
         12    1    4    4    0    0 -0.68806086693E+00 -0.49764735600E+02 -0.46458210998E+02  0.68083534766E+02  0.00000000000E+00 0. -1.
         -5    1    5    5    0  502  0.51799249780E+02  0.17117656072E+03  0.20399401821E+03  0.27133047503E+03  0.47000000000E+01 0.  1.
         11    1    6    6    0    0  0.20297903292E+02  0.17464487092E+02  0.39186676769E+02  0.47461656351E+02  0.00000000000E+00 0. -1.
        -12    1    6    6    0    0 -0.36459546789E+02  0.61827991569E+02  0.99516315868E-01  0.71777496453E+02  0.00000000000E+00 0.  1.
</event>
<event>
12    1  0.8563264E-002  0.1855455E+03  0.7818608E-02  0.1162813E+00
         21   -1    0    0  501  502  0.00000000000E+00  0.00000000000E+00  0.96414280565E+02  0.96414280565E+02  0.00000000000E+00 0.  1.
         21   -1    0    0  502  503 -0.00000000000E+00 -0.00000000000E+00 -0.58059224212E+03  0.58059224212E+03  0.00000000000E+00 0.  1.
         -6    2    1    2    0  503  0.62527811439E+02  0.24551932438E+01 -0.45363156071E+03  0.49011092074E+03  0.17467503135E+03 0.  0.
        -24    2    3    3    0    0 -0.31848573126E+02  0.13362944438E+02 -0.20181110784E+03  0.22092416125E+03  0.82987118773E+02 0.  0.
          6    2    1    2  501    0 -0.62527811439E+02 -0.24551932438E+01 -0.30546400846E+02  0.18689560195E+03  0.17343911971E+03 0.  0.
         24    2    5    5    0    0 -0.36676414681E+02  0.66328597340E+02 -0.12208202503E+02  0.11101487923E+03  0.80191152779E+02 0.  0.
          5    1    5    5  501    0 -0.25851396758E+02 -0.68783790584E+02 -0.18338198343E+02  0.75880722716E+02  0.47000000000E+01 0. -1.
        -11    1    6    6    0    0 -0.48979975378E+02  0.50441741383E+02  0.19958935297E+02  0.73087388515E+02  0.00000000000E+00 0.  1.
         12    1    6    6    0    0  0.12303560697E+02  0.15886855957E+02 -0.32167137800E+02  0.37927490719E+02  0.00000000000E+00 0. -1.
         -5    1    3    3    0  503  0.94376384565E+02 -0.10907751194E+02 -0.25182045287E+03  0.26918675948E+03  0.47000000000E+01 0.  1.
         13    1    4    4    0    0 -0.36676911883E+01 -0.28484140244E+02 -0.13017411403E+03  0.13330453168E+03  0.00000000000E+00 0. -1.
        -14    1    4    4    0    0 -0.28180881938E+02  0.41847084682E+02 -0.71636993814E+02  0.87619629570E+02  0.00000000000E+00 0.  1.
</event>
<event>
12    1  0.8563264E-002  0.2699830E+03  0.7818608E-02  0.1101770E+00
         21   -1    0    0  503  502  0.00000000000E+00  0.00000000000E+00  0.91520529116E+03  0.91520529116E+03  0.00000000000E+00 0. -1.
         21   -1    0    0  501  503 -0.00000000000E+00 -0.00000000000E+00 -0.11030436949E+03  0.11030436949E+03  0.00000000000E+00 0.  1.
          6    2    1    2  501    0 -0.11915759507E+03 -0.16629177230E+03  0.12961045369E+03  0.29948240825E+03  0.17617989995E+03 0.  0.
         24    2    3    3    0    0 -0.28166534012E+02 -0.84640313097E+02  0.13019602816E+03  0.17713549623E+03  0.80427868540E+02 0.  0.
         -6    2    1    2    0  502  0.11915759507E+03  0.16629177230E+03  0.67529046799E+03  0.72602725241E+03  0.17101716021E+03 0.  0.
        -24    2    5    5    0    0  0.13727703508E+03  0.92330166797E+02  0.39591595823E+03  0.43642262555E+03  0.79658132356E+02 0.  0.
          5    1    3    3  501    0 -0.90991061058E+02 -0.81651459202E+02 -0.58557447135E+00  0.12234691202E+03  0.47000000000E+01 0. -1.
        -13    1    4    4    0    0  0.12912432751E+02 -0.62515326658E+02  0.39297023189E+02  0.74961009987E+02  0.00000000000E+00 0.  1.
         14    1    4    4    0    0 -0.41078966763E+02 -0.22124986439E+02  0.90899004969E+02  0.10217448625E+03  0.00000000000E+00 0. -1.
         -5    1    5    5    0  502 -0.18119440012E+02  0.73961605502E+02  0.27937450976E+03  0.28960462686E+03  0.47000000000E+01 0.  1.
         11    1    6    6    0    0  0.39074929412E+02 -0.82035605131E+01  0.12503613011E+03  0.13125617070E+03  0.00000000000E+00 0. -1.
        -12    1    6    6    0    0  0.98202105670E+02  0.10053372731E+03  0.27087982812E+03  0.30516645485E+03  0.00000000000E+00 0.  1.
</event>
<event>
12    1  0.8563264E-002  0.1967868E+03  0.7818608E-02  0.1152578E+00
         21   -1    0    0  501  502  0.00000000000E+00  0.00000000000E+00  0.18409144461E+03  0.18409144461E+03  0.00000000000E+00 0.  1.
         21   -1    0    0  502  503 -0.00000000000E+00 -0.00000000000E+00 -0.87671511404E+03  0.87671511404E+03  0.00000000000E+00 0.  1.
         -6    2    1    2    0  503 -0.86353526646E+01 -0.96240997104E+02 -0.80879893936E+03  0.83228578746E+03  0.17090058177E+03 0.  0.
        -24    2    3    3    0    0  0.17589474547E+02  0.13668155926E+02 -0.30886687783E+03  0.31972172353E+03  0.79542593465E+02 0.  0.
          6    2    1    2  501    0  0.86353526646E+01  0.96240997104E+02  0.11617526993E+03  0.22852077119E+03  0.17142972521E+03 0.  0.
         24    2    5    5    0    0  0.95854043393E+00  0.11154364687E+03  0.14198988360E+03  0.19719045337E+03  0.79246727998E+02 0.  0.
          5    1    5    5  501    0  0.76768122307E+01 -0.15302649767E+02 -0.25814613671E+02  0.31330317823E+02  0.47000000000E+01 0. -1.
        -11    1    6    6    0    0 -0.12896629795E+02  0.37987075729E+02  0.10756732386E+03  0.11480448661E+03  0.00000000000E+00 0.  1.
         12    1    6    6    0    0  0.13855170229E+02  0.73556571141E+02  0.34422559735E+02  0.82385966759E+02  0.00000000000E+00 0. -1.
         -5    1    3    3    0  503 -0.26224827212E+02 -0.10990915303E+03 -0.49993206154E+03  0.51256406393E+03  0.47000000000E+01 0.  1.
         13    1    4    4    0    0 -0.28108825145E+02  0.34084025139E+01 -0.18759715591E+03  0.18972194434E+03  0.00000000000E+00 0. -1.
        -14    1    4    4    0    0  0.45698299692E+02  0.10259753412E+02 -0.12126972192E+03  0.12999977919E+03  0.00000000000E+00 0.  1.
</event>
<event>
12    1  0.8563264E-002  0.2278767E+03  0.7818608E-02  0.1128177E+00
         21   -1    0    0  501  502  0.00000000000E+00  0.00000000000E+00  0.88057199998E+03  0.88057199998E+03  0.00000000000E+00 0. -1.
         21   -1    0    0  502  503 -0.00000000000E+00 -0.00000000000E+00 -0.19326240875E+03  0.19326240875E+03  0.00000000000E+00 0.  1.
         -6    2    1    2    0  503  0.13215706863E+03 -0.70683317575E+02 -0.10403644406E+03  0.25033192139E+03  0.17140847995E+03 0.  0.
        -24    2    3    3    0    0  0.47621762870E+02 -0.62237092196E+02  0.47083283496E+01  0.11225559405E+03  0.80236289151E+02 0.  0.
          6    2    1    2  501    0 -0.13215706863E+03  0.70683317575E+02  0.79134603529E+03  0.82350248734E+03  0.17165714934E+03 0.  0.
         24    2    5    5    0    0 -0.10305098708E+03  0.90859341417E+02  0.40575376730E+03  0.43625873587E+03  0.82526596225E+02 0.  0.
          5    1    5    5  501    0 -0.29106081551E+02 -0.20176023843E+02  0.38559226799E+03  0.38724375148E+03  0.47000000000E+01 0. -1.
        -11    1    6    6    0    0 -0.16897469279E+02  0.68101486361E+02  0.20310973376E+03  0.21488811243E+03  0.00000000000E+00 0.  1.
         12    1    6    6    0    0 -0.86153517801E+02  0.22757855056E+02  0.20264403353E+03  0.22137062344E+03  0.00000000000E+00 0. -1.
         -5    1    3    3    0  503  0.84535305760E+02 -0.84462253790E+01 -0.10874477241E+03  0.13807632733E+03  0.47000000000E+01 0.  1.
         13    1    4    4    0    0 -0.92973629564E+01 -0.35741704911E+02 -0.23130461521E+02  0.43576698797E+02  0.00000000000E+00 0. -1.
        -14    1    4    4    0    0  0.56919125826E+02 -0.26495387284E+02  0.27838789870E+02  0.68678895256E+02  0.00000000000E+00 0.  1.
</event>
<event>
12    1  0.8563264E-002  0.2039605E+03  0.7818608E-02  0.1147064E+00
         21   -1    0    0  503  502  0.00000000000E+00  0.00000000000E+00  0.34126497341E+03  0.34126497341E+03  0.00000000000E+00 0. -1.
         21   -1    0    0  501  503 -0.00000000000E+00 -0.00000000000E+00 -0.12052845981E+03  0.12052845981E+03  0.00000000000E+00 0.  1.
          6    2    1    2  501    0  0.32549141219E+02  0.10147104588E+03  0.12487040664E+03  0.23914955304E+03  0.17390822442E+03 0.  0.
         24    2    3    3    0    0  0.80427943370E+02  0.62413077090E+02  0.43366863123E+02  0.13676389865E+03  0.80371841395E+02 0.  0.
         -6    2    1    2    0  502 -0.32549141219E+02 -0.10147104588E+03  0.95866106964E+02  0.22264388018E+03  0.17036480614E+03 0.  0.
        -24    2    5    5    0    0  0.40476978263E+02 -0.18897497822E+02  0.54641005728E+02  0.10486101242E+03  0.77554440403E+02 0.  0.
          5    1    3    3  501    0 -0.47878802151E+02  0.39057968787E+02  0.81503543512E+02  0.10238565440E+03  0.47000000000E+01 0. -1.
        -11    1    4    4    0    0 -0.41404731905E+01  0.13226760816E+01  0.31462348029E+02  0.31761176517E+02  0.00000000000E+00 0.  1.
         12    1    4    4    0    0  0.84568416560E+02  0.61090401009E+02  0.11904515094E+02  0.10500272213E+03  0.00000000000E+00 0. -1.
         -5    1    5    5    0  502 -0.73026119482E+02 -0.82573548055E+02  0.41225101236E+02  0.11778286776E+03  0.47000000000E+01 0.  1.
         13    1    6    6    0    0  0.13297966171E+01  0.26811970045E+02  0.28784194521E+02  0.39359623359E+02  0.00000000000E+00 0. -1.
        -14    1    6    6    0    0  0.39147181646E+02 -0.45709467867E+02  0.25856811207E+02  0.65501389064E+02  0.00000000000E+00 0.  1.
</event>
<event>
12    1  0.8563264E-002  0.2396706E+03  0.7818608E-02  0.1120433E+00
         21   -1    0    0  501  502  0.00000000000E+00  0.00000000000E+00  0.10319223990E+04  0.10319223990E+04  0.00000000000E+00 0.  1.
         21   -1    0    0  502  503 -0.00000000000E+00 -0.00000000000E+00 -0.80739883329E+02  0.80739883329E+02  0.00000000000E+00 0. -1.
         -6    2    1    2    0  503  0.16115565215E+03 -0.11459031504E+02  0.16028582743E+03  0.28624859598E+03  0.17362102005E+03 0.  0.
        -24    2    3    3    0    0  0.12019879201E+03  0.42981419857E+02  0.53271368083E+02  0.15930210471E+03  0.79020059814E+02 0.  0.
          6    2    1    2  501    0 -0.16115565215E+03  0.11459031504E+02  0.79089668826E+03  0.82641368637E+03  0.17702981640E+03 0.  0.
         24    2    5    5    0    0 -0.15576581272E+03 -0.40208496172E+02  0.68486631434E+03  0.70824806540E+03  0.81815292270E+02 0.  0.
          5    1    5    5  501    0 -0.53898394308E+01  0.51667527676E+02  0.10603037393E+03  0.11816562097E+03  0.47000000000E+01 0. -1.
        -11    1    6    6    0    0 -0.11737646758E+03 -0.31535599131E+02  0.33859987923E+03  0.35975214713E+03  0.00000000000E+00 0.  1.
         12    1    6    6    0    0 -0.38389345138E+02 -0.86728970407E+01  0.34626643511E+03  0.34849591826E+03  0.00000000000E+00 0. -1.
         -5    1    3    3    0  503  0.40956860134E+02 -0.54440451360E+02  0.10701445935E+03  0.12694649127E+03  0.47000000000E+01 0.  1.
         13    1    4    4    0    0  0.11180309144E+03  0.83605163538E+01  0.27805974496E+02  0.11551191154E+03  0.00000000000E+00 0. -1.
        -14    1    4    4    0    0  0.83957005725E+01  0.34620903503E+02  0.25465393586E+02  0.43790193171E+02  0.00000000000E+00 0.  1.
</event>
<event>
12    1  0.8563264E-002  0.2214856E+03  0.7818608E-02  0.1132816E+00
         21   -1    0    0  501  502  0.00000000000E+00  0.00000000000E+00  0.32053697638E+03  0.32053697638E+03  0.00000000000E+00 0.  1.
         21   -1    0    0  502  503 -0.00000000000E+00 -0.00000000000E+00 -0.15707318870E+03  0.15707318870E+03  0.00000000000E+00 0. -1.
         -6    2    1    2    0  503  0.12563239292E+03  0.59214060872E+02  0.42882992849E+02  0.22559878396E+03  0.17252842402E+03 0.  0.
        -24    2    3    3    0    0  0.26832267157E+02 -0.17676697236E+02 -0.14121610134E+02  0.87956972384E+02  0.80650932618E+02 0.  0.
          6    2    1    2  501    0 -0.12563239292E+03 -0.59214060872E+02  0.12058079483E+03  0.25201138112E+03  0.17227943864E+03 0.  0.
         24    2    5    5    0    0 -0.83500530517E+02 -0.10410034661E+03  0.10657458191E+03  0.18870153610E+03  0.80255264348E+02 0.  0.
          5    1    5    5  501    0 -0.42131862404E+02  0.44886285736E+02  0.14006212918E+02  0.63309845025E+02  0.47000000000E+01 0. -1.
        -11    1    6    6    0    0 -0.15345256160E+02  0.47586726737E+01  0.41957096444E+02  0.44927940018E+02  0.00000000000E+00 0.  1.
         12    1    6    6    0    0 -0.68155274357E+02 -0.10885901928E+03  0.64617485467E+02  0.14377359608E+03  0.00000000000E+00 0. -1.
         -5    1    3    3    0  503  0.98800125764E+02  0.76890758108E+02  0.57004602983E+02  0.13764181158E+03  0.47000000000E+01 0.  1.
         13    1    4    4    0    0  0.17391297110E+02  0.31265081061E+02 -0.13109097399E+02  0.38102636963E+02  0.00000000000E+00 0. -1.
        -14    1    4    4    0    0  0.94409700466E+01 -0.48941778296E+02 -0.10125127356E+01  0.49854335421E+02  0.00000000000E+00 0.  1.
</event>
<event>
12    1  0.8563264E-002  0.2075521E+03  0.7818608E-02  0.1143770E+00
         21   -1    0    0  501  502  0.00000000000E+00  0.00000000000E+00  0.87295286507E+03  0.87295286507E+03  0.00000000000E+00 0. -1.
         21   -1    0    0  502  503 -0.00000000000E+00 -0.00000000000E+00 -0.10098895320E+03  0.10098895320E+03  0.00000000000E+00 0. -1.
         -6    2    1    2    0  503 -0.89442868489E+02 -0.71631034447E+02  0.37322657890E+02  0.21088110916E+03  0.17305152294E+03 0.  0.
        -24    2    3    3    0    0 -0.13030945236E+03 -0.58746421646E+02  0.36146101467E+02  0.16775843288E+03  0.80029092964E+02 0.  0.
          6    2    1    2  501    0  0.89442868489E+02  0.71631034447E+02  0.73464125398E+03  0.76306070910E+03  0.17156002420E+03 0.  0.
         24    2    5    5    0    0 -0.57211572546E+01 -0.10062059726E+02  0.30425399228E+03  0.31474693676E+03  0.79756916309E+02 0.  0.
          5    1    5    5  501    0  0.95164025744E+02  0.81693094172E+02  0.43038726171E+03  0.44831377234E+03  0.47000000000E+01 0. -1.
        -11    1    6    6    0    0  0.55562542561E+01  0.25912864112E+02  0.22948876023E+03  0.23101393802E+03  0.00000000000E+00 0.  1.
         12    1    6    6    0    0 -0.11277411511E+02 -0.35974923838E+02  0.74765232051E+02  0.83732998747E+02  0.00000000000E+00 0. -1.
         -5    1    3    3    0  503  0.40866583874E+02 -0.12884612801E+02  0.11765564223E+01  0.43122676280E+02  0.47000000000E+01 0.  1.
         11    1    4    4    0    0 -0.90699681533E+01  0.13908230958E+02  0.19230959759E+02  0.25407341930E+02  0.00000000000E+00 0. -1.
        -12    1    4    4    0    0 -0.12123948421E+03 -0.72654652604E+02  0.16915141708E+02  0.14235109095E+03  0.00000000000E+00 0.  1.
</event>
<event>
12    1  0.8563264E-002  0.1719674E+03  0.7818608E-02  0.1178129E+00
         21   -1    0    0  503  502  0.00000000000E+00  0.00000000000E+00  0.59449756974E+03  0.59449756974E+03  0.00000000000E+00 0. -1.
         21   -1    0    0  501  503 -0.00000000000E+00 -0.00000000000E+00 -0.51447291976E+02  0.51447291976E+02  0.00000000000E+00 0. -1.
          6    2    1    2  501    0  0.48103919784E+01  0.52997495793E+01  0.17264540813E+03  0.23756690203E+03  0.16303486981E+03 0.  0.
         24    2    3    3    0    0  0.45121770143E+02  0.45492933603E+02  0.94000812337E+02  0.14036833363E+03  0.82228554752E+02 0.  0.
         -6    2    1    2    0  502 -0.48103919784E+01 -0.52997495793E+01  0.37040486963E+03  0.40837795969E+03  0.17181840209E+03 0.  0.
        -24    2    5    5    0    0  0.24332488235E+02  0.49982492796E+02  0.14906349877E+03  0.17833551524E+03  0.80581075712E+02 0.  0.
          5    1    3    3  501    0 -0.40311378164E+02 -0.40193184024E+02  0.78644595796E+02  0.97198568402E+02  0.47000000000E+01 0. -1.
        -11    1    4    4    0    0  0.39723927371E+00  0.48588196634E+02  0.79640619027E+02  0.93293080398E+02  0.00000000000E+00 0.  1.
         12    1    4    4    0    0  0.44724530869E+02 -0.30952630309E+01  0.14360193310E+02  0.47075253229E+02  0.00000000000E+00 0. -1.
         -5    1    5    5    0  502 -0.29142880213E+02 -0.55282242376E+02  0.22134137087E+03  0.23004244445E+03  0.47000000000E+01 0.  1.
         11    1    6    6    0    0  0.66224338442E+01 -0.90087822019E+01  0.97127645626E+02  0.97769086789E+02  0.00000000000E+00 0. -1.
        -12    1    6    6    0    0  0.17710054391E+02  0.58991274998E+02  0.51935853140E+02  0.80566428454E+02  0.00000000000E+00 0.  1.
</event>
<event>
12    1  0.8563264E-002  0.2711292E+03  0.7818608E-02  0.1101375E+00
         21   -1    0    0  501  502  0.00000000000E+00  0.00000000000E+00  0.51291159508E+03  0.51291159508E+03  0.00000000000E+00 0.  1.
         21   -1    0    0  502  503 -0.00000000000E+00 -0.00000000000E+00 -0.18132174056E+03  0.18132174056E+03  0.00000000000E+00 0.  1.
         -6    2    1    2    0  503 -0.12475814474E+03 -0.16037865205E+03  0.25629188559E+01  0.27114133605E+03  0.17951364530E+03 0.  0.
        -24    2    3    3    0    0 -0.11159918690E+03 -0.16299957653E+03  0.51852613233E+02  0.21984229718E+03  0.81355403418E+02 0.  0.
          6    2    1    2  501    0  0.12475814474E+03  0.16037865205E+03  0.32902693567E+03  0.42309199959E+03  0.17164559129E+03 0.  0.
         24    2    5    5    0    0  0.33038823987E+02  0.13243590065E+03  0.24815645708E+03  0.29757166075E+03  0.91304076694E+02 0.  0.
          5    1    5    5  501    0  0.91719320755E+02  0.27942751401E+02  0.80870478591E+02  0.12552033884E+03  0.47000000000E+01 0. -1.
        -13    1    6    6    0    0  0.33653783838E+02  0.67535777647E+02  0.53819653198E+02  0.92683404660E+02  0.00000000000E+00 0.  1.
         14    1    6    6    0    0 -0.61495985118E+00  0.64900123000E+02  0.19433680388E+03  0.20488825609E+03  0.00000000000E+00 0. -1.
         -5    1    3    3    0  503 -0.13158957842E+02  0.26209244866E+01 -0.49289694378E+02  0.51299038865E+02  0.47000000000E+01 0.  1.
         11    1    4    4    0    0 -0.78429290804E+01  0.80036173823E+01  0.10983620158E+02  0.15691059223E+02  0.00000000000E+00 0. -1.
        -12    1    4    4    0    0 -0.10375625782E+03 -0.17100319392E+03  0.40868993075E+02  0.20415123796E+03  0.00000000000E+00 0.  1.
</event>
<event>
12    1  0.8563264E-002  0.2239670E+03  0.7818608E-02  0.1131049E+00
         21   -1    0    0  503  502  0.00000000000E+00  0.00000000000E+00  0.16045641426E+03  0.16045641426E+03  0.00000000000E+00 0. -1.
         21   -1    0    0  501  503 -0.00000000000E+00 -0.00000000000E+00 -0.39757409881E+03  0.39757409881E+03  0.00000000000E+00 0. -1.
          6    2    1    2  501    0  0.13407304034E+03  0.52132988259E+02 -0.24795441104E+03  0.33380148451E+03  0.17102225732E+03 0.  0.
         24    2    3    3    0    0  0.30652088482E+01  0.55463007034E+01 -0.62919721648E+02  0.10229922179E+03  0.80411954644E+02 0.  0.
         -6    2    1    2    0  502 -0.13407304034E+03 -0.52132988259E+02  0.10836726491E+02  0.22422902856E+03  0.17166185947E+03 0.  0.
        -24    2    5    5    0    0 -0.13262769293E+03 -0.51144892911E+02  0.62073532540E+02  0.17274732641E+03  0.76043476639E+02 0.  0.
          5    1    3    3  501    0  0.13100783149E+03  0.46586687555E+02 -0.18503468939E+03  0.23150226272E+03  0.47000000000E+01 0. -1.
        -11    1    4    4    0    0  0.35695917486E+02 -0.57150854900E+01 -0.73644568585E+01  0.36893033924E+02  0.00000000000E+00 0.  1.
         12    1    4    4    0    0 -0.32630708638E+02  0.11261386193E+02 -0.55555264790E+02  0.65406187865E+02  0.00000000000E+00 0. -1.
         -5    1    5    5    0  502 -0.14453474116E+01 -0.98809534759E+00 -0.51236806049E+02  0.51481702144E+02  0.47000000000E+01 0.  1.
         13    1    6    6    0    0 -0.69657913639E+02 -0.18980256473E+02  0.71262641687E+02  0.10144377343E+03  0.00000000000E+00 0. -1.
        -14    1    6    6    0    0 -0.62969779287E+02 -0.32164636438E+02 -0.91891091468E+01  0.71303552980E+02  0.00000000000E+00 0.  1.
</event>
<event>
12    1  0.8563264E-002  0.1758380E+03  0.7818608E-02  0.1172106E+00
         21   -1    0    0  503  502  0.00000000000E+00  0.00000000000E+00  0.54915877960E+02  0.54915877960E+02  0.00000000000E+00 0. -1.
         21   -1    0    0  501  503 -0.00000000000E+00 -0.00000000000E+00 -0.72690415847E+03  0.72690415847E+03  0.00000000000E+00 0. -1.
          6    2    1    2  501    0  0.63411925259E+01  0.33274395461E+02 -0.52251132423E+03  0.55103365728E+03  0.17167589055E+03 0.  0.
         24    2    3    3    0    0 -0.78634976243E+01 -0.24412583800E+02 -0.26211986767E+03  0.28390941382E+03  0.10601849548E+03 0.  0.
         -6    2    1    2    0  502 -0.63411925259E+01 -0.33274395461E+02 -0.14947695628E+03  0.23078637915E+03  0.17254447608E+03 0.  0.
        -24    2    5    5    0    0 -0.22740724426E+02 -0.41281562657E+02 -0.29624650757E+01  0.83064865797E+02  0.68335113725E+02 0.  0.
          5    1    3    3  501    0  0.14204690150E+02  0.57686979260E+02 -0.26039145655E+03  0.26712424346E+03  0.47000000000E+01 0. -1.
        -11    1    4    4    0    0  0.33668171595E+02  0.20693813210E+02 -0.53808419787E+02  0.66761708514E+02  0.00000000000E+00 0.  1.
         12    1    4    4    0    0 -0.41531669219E+02 -0.45106397010E+02 -0.20831144789E+03  0.21714770531E+03  0.00000000000E+00 0. -1.
         -5    1    5    5    0  502  0.16399531900E+02  0.80071671966E+01 -0.14651449121E+03  0.14772151335E+03  0.47000000000E+01 0.  1.
         11    1    6    6    0    0  0.21732331470E+01 -0.50630260880E+02  0.12624433165E+02  0.52225688811E+02  0.00000000000E+00 0. -1.
        -12    1    6    6    0    0 -0.24913957573E+02  0.93486982226E+01 -0.15586898241E+02  0.30839176986E+02  0.00000000000E+00 0.  1.
</event>
<event>
12    1  0.8563264E-002  0.2095649E+03  0.7818608E-02  0.1142331E+00
         21   -1    0    0  501  502  0.00000000000E+00  0.00000000000E+00  0.47636381936E+02  0.47636381936E+02  0.00000000000E+00 0.  1.
         21   -1    0    0  502  503 -0.00000000000E+00 -0.00000000000E+00 -0.91289947354E+03  0.91289947354E+03  0.00000000000E+00 0. -1.
         -6    2    1    2    0  503  0.28514318668E+02 -0.11179604919E+03 -0.42773798575E+03  0.47631631255E+03  0.17494576922E+03 0.  0.
        -24    2    3    3    0    0  0.24453181744E+02 -0.70667706400E+02 -0.42007920959E+03  0.43402233820E+03  0.79479336330E+02 0.  0.
          6    2    1    2  501    0 -0.28514318668E+02  0.11179604919E+03 -0.43752510585E+03  0.48421954292E+03  0.17242077750E+03 0.  0.
         24    2    5    5    0    0  0.14705785800E+02  0.15177067804E+02 -0.29596287005E+03  0.30739996935E+03  0.80337520387E+02 0.  0.
          5    1    5    5  501    0 -0.43220104468E+02  0.96618981386E+02 -0.14156223580E+03  0.17681957358E+03  0.47000000000E+01 0. -1.
        -13    1    6    6    0    0  0.12458750527E+02  0.44027388433E+00 -0.14959507221E+01  0.12555961705E+02  0.00000000000E+00 0.  1.
         14    1    6    6    0    0  0.22470352731E+01  0.14736793919E+02 -0.29446691933E+03  0.29484400764E+03  0.00000000000E+00 0. -1.
         -5    1    3    3    0  503  0.40611369243E+01 -0.41128342790E+02 -0.76587761543E+01  0.42293974346E+02  0.47000000000E+01 0.  1.
         13    1    4    4    0    0  0.53462169953E+02 -0.51561238037E+02 -0.27669984178E+03  0.28649531815E+03  0.00000000000E+00 0. -1.
        -14    1    4    4    0    0 -0.29008988209E+02 -0.19106468363E+02 -0.14337936782E+03  0.14752702005E+03  0.00000000000E+00 0.  1.
</event>
<event>
12    1  0.8563264E-002  0.1918058E+03  0.7818608E-02  0.1159105E+00
         21   -1    0    0  503  502  0.00000000000E+00  0.00000000000E+00  0.52806458929E+03  0.52806458929E+03  0.00000000000E+00 0. -1.
         21   -1    0    0  501  503 -0.00000000000E+00 -0.00000000000E+00 -0.99917521482E+02  0.99917521482E+02  0.00000000000E+00 0. -1.
          6    2    1    2  501    0 -0.35807275170E+02 -0.77518739079E+02  0.35265003171E+02  0.19502076255E+03  0.17175028825E+03 0.  0.
         24    2    3    3    0    0 -0.97924110850E+01 -0.79228925435E+02 -0.35641795858E+02  0.11932689200E+03  0.81212410395E+02 0.  0.
         -6    2    1    2    0  502  0.35807275170E+02  0.77518739079E+02  0.39288206464E+03  0.43296134822E+03  0.16064836281E+03 0.  0.
        -24    2    5    5    0    0  0.65123645390E+02  0.92394673482E+02  0.36625370808E+03  0.39039490181E+03  0.74084652913E+02 0.  0.
          5    1    3    3  501    0 -0.26014864085E+02  0.17101863564E+01  0.70906799029E+02  0.75693870553E+02  0.47000000000E+01 0. -1.
        -11    1    4    4    0    0  0.31987677787E+02 -0.25741024463E+02  0.31020369833E+01  0.41175654264E+02  0.00000000000E+00 0.  1.
         12    1    4    4    0    0 -0.41780088872E+02 -0.53487900972E+02 -0.38743832842E+02  0.78151237737E+02  0.00000000000E+00 0. -1.
         -5    1    5    5    0  502 -0.29316370220E+02 -0.14875934403E+02  0.26628356559E+02  0.42566446413E+02  0.47000000000E+01 0.  1.
         11    1    6    6    0    0  0.23629286130E+02  0.53290827395E+02  0.82793153664E+02  0.10125690960E+03  0.00000000000E+00 0. -1.
        -12    1    6    6    0    0  0.41494359260E+02  0.39103846087E+02  0.28346055442E+03  0.28913799221E+03  0.00000000000E+00 0.  1.
</event>
<event>
12    1  0.8563264E-002  0.3112393E+03  0.7818608E-02  0.1079862E+00
         21   -1    0    0  501  502  0.00000000000E+00  0.00000000000E+00  0.12714884904E+04  0.12714884904E+04  0.00000000000E+00 0. -1.
         21   -1    0    0  502  503 -0.00000000000E+00 -0.00000000000E+00 -0.78229553751E+02  0.78229553751E+02  0.00000000000E+00 0. -1.
         -6    2    1    2    0  503  0.25464221054E+03 -0.42677312386E+02  0.48262278981E+03  0.57427752588E+03  0.17379847844E+03 0.  0.
        -24    2    3    3    0    0  0.18553148896E+03 -0.96313641580E+02  0.39060910839E+03  0.44722731843E+03  0.61143665554E+02 0.  0.
          6    2    1    2  501    0 -0.25464221054E+03  0.42677312386E+02  0.71063614681E+03  0.77544051824E+03  0.17216345662E+03 0.  0.
         24    2    5    5    0    0 -0.12179480314E+03 -0.35355688388E+02  0.25571784128E+03  0.29511735872E+03  0.74957603337E+02 0.  0.
          5    1    5    5  501    0 -0.13284740740E+03  0.78033000774E+02  0.45491830553E+03  0.48032315952E+03  0.47000000000E+01 0. -1.
        -11    1    6    6    0    0 -0.38538019623E+02 -0.23001420926E+01  0.15759465959E+03  0.16225457263E+03  0.00000000000E+00 0.  1.
         12    1    6    6    0    0 -0.83256783513E+02 -0.33055546296E+02  0.98123181693E+02  0.13286278609E+03  0.00000000000E+00 0. -1.
         -5    1    3    3    0  503  0.69110721581E+02  0.53636329194E+02  0.92013681418E+02  0.12705020746E+03  0.47000000000E+01 0.  1.
         11    1    4    4    0    0  0.10501705194E+03 -0.20576144311E+02  0.20280688585E+03  0.22930894413E+03  0.00000000000E+00 0. -1.
        -12    1    4    4    0    0  0.80514437022E+02 -0.75737497269E+02  0.18780222254E+03  0.21791837429E+03  0.00000000000E+00 0.  1.
</event>
<event>
12    1  0.8563264E-002  0.2026326E+03  0.7818608E-02  0.1148147E+00
         21   -1    0    0  501  502  0.00000000000E+00  0.00000000000E+00  0.17420102046E+03  0.17420102046E+03  0.00000000000E+00 0.  1.
         21   -1    0    0  502  503 -0.00000000000E+00 -0.00000000000E+00 -0.25495777421E+03  0.25495777421E+03  0.00000000000E+00 0.  1.
         -6    2    1    2    0  503  0.61988676421E+02 -0.81561304393E+02 -0.10458755258E+03  0.22803181941E+03  0.17482880807E+03 0.  0.
        -24    2    3    3    0    0  0.91632047785E+01 -0.10581179277E+03 -0.35703274677E+02  0.13777800851E+03  0.80174534580E+02 0.  0.
          6    2    1    2  501    0 -0.61988676421E+02  0.81561304393E+02  0.23830798823E+02  0.20112697526E+03  0.17143310890E+03 0.  0.
         24    2    5    5    0    0 -0.85686189188E+02  0.10626077067E+02 -0.52893049543E+01  0.12073139683E+03  0.84220287951E+02 0.  0.
          5    1    5    5  501    0  0.23697512768E+02  0.70935227326E+02  0.29120103777E+02  0.80395578430E+02  0.47000000000E+01 0. -1.
        -13    1    6    6    0    0 -0.69480296478E+02  0.44803266102E+02 -0.61011824631E+01  0.82897941347E+02  0.00000000000E+00 0.  1.
         14    1    6    6    0    0 -0.16205892710E+02 -0.34177189035E+02  0.81187750872E+00  0.37833455485E+02  0.00000000000E+00 0. -1.
         -5    1    3    3    0  503  0.52825471642E+02  0.24250488377E+02 -0.68884277900E+02  0.90253810903E+02  0.47000000000E+01 0.  1.
         13    1    4    4    0    0  0.41757776982E+02 -0.84007287879E+02 -0.26770163710E+02  0.97558075116E+02  0.00000000000E+00 0. -1.
        -14    1    4    4    0    0 -0.32594572203E+02 -0.21804504891E+02 -0.89331109662E+01  0.40219933393E+02  0.00000000000E+00 0.  1.
</event>
<event>
12    1  0.8563264E-002  0.1858199E+03  0.7818608E-02  0.1162429E+00
         21   -1    0    0  501  502  0.00000000000E+00  0.00000000000E+00  0.22957998272E+02  0.22957998272E+02  0.00000000000E+00 0. -1.
         21   -1    0    0  502  503 -0.00000000000E+00 -0.00000000000E+00 -0.15017207467E+04  0.15017207467E+04  0.00000000000E+00 0. -1.
         -6    2    1    2    0  503  0.60824292108E+02  0.34775755472E+02 -0.70841347110E+03  0.73237878379E+03  0.17210487856E+03 0.  0.
        -24    2    3    3    0    0  0.60572376708E+02 -0.27897294569E+02 -0.58299357624E+03  0.59209259526E+03  0.79024423862E+02 0.  0.
          6    2    1    2  501    0 -0.60824292108E+02 -0.34775755472E+02 -0.77034927736E+03  0.79229996121E+03  0.17144174445E+03 0.  0.
         24    2    5    5    0    0 -0.50623778189E+02  0.10196647139E+02 -0.21458623494E+03  0.23460719921E+03  0.79539594940E+02 0.  0.
          5    1    5    5  501    0 -0.10200513919E+02 -0.44972402610E+02 -0.55576304241E+03  0.55769276201E+03  0.47000000000E+01 0. -1.
        -11    1    6    6    0    0  0.56275540765E+01  0.14594364902E+02 -0.33913296632E+01  0.16005185680E+02  0.00000000000E+00 0.  1.
         12    1    6    6    0    0 -0.56251332265E+02 -0.43977177632E+01 -0.21119490528E+03  0.21860201353E+03  0.00000000000E+00 0. -1.
         -5    1    3    3    0  503  0.25191540021E+00  0.62673050040E+02 -0.12541989487E+03  0.14028618852E+03  0.47000000000E+01 0.  1.
         11    1    4    4    0    0  0.10462909943E+02 -0.26458865785E+02 -0.43319828911E+03  0.43413166407E+03  0.00000000000E+00 0. -1.
        -12    1    4    4    0    0  0.50109466765E+02 -0.14384287839E+01 -0.14979528713E+03  0.15796093119E+03  0.00000000000E+00 0.  1.
</event>
<event>
12    1  0.8563264E-002  0.2149008E+03  0.7818608E-02  0.1138122E+00
         21   -1    0    0  501  502  0.00000000000E+00  0.00000000000E+00  0.19143869227E+03  0.19143869227E+03  0.00000000000E+00 0.  1.
         21   -1    0    0  502  503 -0.00000000000E+00 -0.00000000000E+00 -0.29047567577E+03  0.29047567577E+03  0.00000000000E+00 0.  1.
         -6    2    1    2    0  503 -0.63818611202E+02  0.11262193175E+03 -0.15072501968E+03  0.26088497552E+03  0.16907520294E+03 0.  0.
        -24    2    3    3    0    0 -0.67299488662E+01  0.73927109758E+02 -0.15463016882E+02  0.10898269109E+03  0.78279066786E+02 0.  0.
          6    2    1    2  501    0  0.63818611202E+02 -0.11262193175E+03  0.51688036173E+02  0.22102939251E+03  0.17153957160E+03 0.  0.
         24    2    5    5    0    0  0.92872039721E+02 -0.29152611429E+02  0.30355372913E+02  0.12998873311E+03  0.80625873987E+02 0.  0.
          5    1    5    5  501    0 -0.29053428519E+02 -0.83469320317E+02  0.21332663260E+02  0.91040659404E+02  0.47000000000E+01 0. -1.
        -11    1    6    6    0    0  0.47315777075E+02  0.15044471949E+02  0.42510893114E+02  0.65362794691E+02  0.00000000000E+00 0.  1.
         12    1    6    6    0    0  0.45556262646E+02 -0.44197083377E+02 -0.12155520201E+02  0.64625938420E+02  0.00000000000E+00 0. -1.
         -5    1    3    3    0  503 -0.57088662335E+02  0.38694821988E+02 -0.13526200279E+03  0.15190228443E+03  0.47000000000E+01 0.  1.
         11    1    4    4    0    0 -0.25895244798E+02  0.73029839292E+02 -0.31825976108E+02  0.83766424571E+02  0.00000000000E+00 0. -1.
        -12    1    4    4    0    0  0.19165295932E+02  0.89727046637E+00  0.16362959226E+02  0.25216266518E+02  0.00000000000E+00 0.  1.
</event>
<event>
12    1  0.8563264E-002  0.2589256E+03  0.7818608E-02  0.1108016E+00
         21   -1    0    0  501  502  0.00000000000E+00  0.00000000000E+00  0.63259056925E+02  0.63259056925E+02  0.00000000000E+00 0. -1.
         21   -1    0    0  502  503 -0.00000000000E+00 -0.00000000000E+00 -0.15589805498E+04  0.15589805498E+04  0.00000000000E+00 0. -1.
         -6    2    1    2    0  503  0.85737116923E+02 -0.17164187342E+03 -0.12081652953E+04  0.12352886936E+04  0.17164786606E+03 0.  0.
        -24    2    3    3    0    0  0.10408482371E+03 -0.16512939732E+03 -0.11881131608E+04  0.12069474024E+04  0.83712489906E+02 0.  0.
          6    2    1    2  501    0 -0.85737116923E+02  0.17164187342E+03 -0.28755619762E+03  0.38695091314E+03  0.17386965364E+03 0.  0.
         24    2    5    5    0    0 -0.11814754693E+02  0.87474678183E+02 -0.23429867879E+03  0.26282563084E+03  0.79937685687E+02 0.  0.
          5    1    5    5  501    0 -0.73922362230E+02  0.84167195242E+02 -0.53257518831E+02  0.12412528229E+03  0.47000000000E+01 0. -1.
        -13    1    6    6    0    0 -0.15501079662E+02  0.84008796474E+02 -0.11417912373E+03  0.14259955698E+03  0.00000000000E+00 0.  1.
         14    1    6    6    0    0  0.36863249693E+01  0.34658817089E+01 -0.12011955506E+03  0.12022607386E+03  0.00000000000E+00 0. -1.
         -5    1    3    3    0  503 -0.18347706786E+02 -0.65124761054E+01 -0.20052134490E+02  0.28341291201E+02  0.47000000000E+01 0.  1.
         11    1    4    4    0    0  0.68546001095E+02 -0.15838421304E+03 -0.88384714887E+03  0.90053866978E+03  0.00000000000E+00 0. -1.
        -12    1    4    4    0    0  0.35538822613E+02 -0.67451842801E+01 -0.30426601194E+03  0.30640873265E+03  0.00000000000E+00 0.  1.
</event>
<event>
12    1  0.8563264E-002  0.1915077E+03  0.7818608E-02  0.1158371E+00
         21   -1    0    0  501  502  0.00000000000E+00  0.00000000000E+00  0.64078160579E+02  0.64078160579E+02  0.00000000000E+00 0. -1.
         21   -1    0    0  502  503 -0.00000000000E+00 -0.00000000000E+00 -0.99261078770E+03  0.99261078770E+03  0.00000000000E+00 0. -1.
         -6    2    1    2    0  503  0.36186059591E+02  0.59118052553E+02 -0.81088717549E+03  0.83193210852E+03  0.17253592891E+03 0.  0.
        -24    2    3    3    0    0  0.48379320012E+02  0.20137796490E+02 -0.76217277947E+03  0.76818794532E+03  0.80369671623E+02 0.  0.
          6    2    1    2  501    0 -0.36186059591E+02 -0.59118052553E+02 -0.11764545163E+03  0.22475683976E+03  0.17852397509E+03 0.  0.
         24    2    5    5    0    0 -0.17991279885E+02  0.30549334153E+02 -0.95824894428E+02  0.13057872678E+03  0.81310795881E+02 0.  0.
          5    1    5    5  501    0 -0.18194779706E+02 -0.89667386706E+02 -0.21820557201E+02  0.94178112976E+02  0.47000000000E+01 0. -1.
        -13    1    6    6    0    0  0.24546416739E+02 -0.12408402448E+02 -0.22427279733E+02  0.35489123718E+02  0.00000000000E+00 0.  1.
         14    1    6    6    0    0 -0.42537696624E+02  0.42957736601E+02 -0.73397614695E+02  0.95089603064E+02  0.00000000000E+00 0. -1.
         -5    1    3    3    0  503 -0.12193260421E+02  0.38980256063E+02 -0.48714396022E+02  0.63744163201E+02  0.47000000000E+01 0.  1.
         11    1    4    4    0    0  0.35687266333E+02  0.50033070489E+02 -0.56833710935E+03  0.57165020684E+03  0.00000000000E+00 0. -1.
        -12    1    4    4    0    0  0.12692053679E+02 -0.29895273999E+02 -0.19383567012E+03  0.19653773847E+03  0.00000000000E+00 0.  1.
</event>
<event>
12    1  0.8563264E-002  0.1877051E+03  0.7818608E-02  0.1162751E+00
         21   -1    0    0  501  502  0.00000000000E+00  0.00000000000E+00  0.56483171822E+02  0.56483171822E+02  0.00000000000E+00 0.  1.
         21   -1    0    0  502  503 -0.00000000000E+00 -0.00000000000E+00 -0.66786009977E+03  0.66786009977E+03  0.00000000000E+00 0.  1.
         -6    2    1    2    0  503  0.74286519713E+02  0.89095195336E+01 -0.43378693287E+03  0.47265665297E+03  0.17214918506E+03 0.  0.
        -24    2    3    3    0    0  0.11783889049E+03 -0.74310315099E+00 -0.28650806268E+03  0.31869841925E+03  0.74801444762E+02 0.  0.
          6    2    1    2  501    0 -0.74286519713E+02 -0.89095195336E+01 -0.17758999508E+03  0.25168661862E+03  0.16189527817E+03 0.  0.
         24    2    5    5    0    0  0.13070280785E+02  0.25138412484E+02 -0.92944657677E+02  0.12528489628E+03  0.79087444158E+02 0.  0.
          5    1    5    5  501    0 -0.87356800497E+02 -0.34047932018E+02 -0.84645337399E+02  0.12640172234E+03  0.47000000000E+01 0. -1.
        -13    1    6    6    0    0 -0.32121970837E+02  0.17689791583E+01 -0.27028088206E+02  0.42017470769E+02  0.00000000000E+00 0.  1.
         14    1    6    6    0    0  0.45192251622E+02  0.23369433326E+02 -0.65916569471E+02  0.83267425512E+02  0.00000000000E+00 0. -1.
         -5    1    3    3    0  503 -0.43552370774E+02  0.96526226846E+01 -0.14727887019E+03  0.15395823372E+03  0.47000000000E+01 0.  1.
         13    1    4    4    0    0  0.29210044189E+02  0.26405258458E+02 -0.43827722161E+02  0.58918024284E+02  0.00000000000E+00 0. -1.
        -14    1    4    4    0    0  0.88628846297E+02 -0.27148361609E+02 -0.24268034052E+03  0.25978039496E+03  0.00000000000E+00 0.  1.
</event>
<event>
12    1  0.8563264E-002  0.2528576E+03  0.7818608E-02  0.1112506E+00
         21   -1    0    0  503  502  0.00000000000E+00  0.00000000000E+00  0.17931896435E+04  0.17931896435E+04  0.00000000000E+00 0. -1.
         21   -1    0    0  501  503 -0.00000000000E+00 -0.00000000000E+00 -0.34858035312E+02  0.34858035312E+02  0.00000000000E+00 0. -1.
          6    2    1    2  501    0 -0.17573513229E+03 -0.33823831620E+01  0.84511748457E+03  0.88213407854E+03  0.18177649069E+03 0.  0.
         24    2    3    3    0    0 -0.15222339337E+03 -0.55770817602E+02  0.48566761427E+03  0.51809610087E+03  0.79171918009E+02 0.  0.
         -6    2    1    2    0  502  0.17573513229E+03  0.33823831620E+01  0.91321412363E+03  0.94591360028E+03  0.17291103597E+03 0.  0.
        -24    2    5    5    0    0  0.14338286024E+03 -0.56448794218E+02  0.56424558887E+03  0.59034705581E+03  0.79946549437E+02 0.  0.
          5    1    3    3  501    0 -0.23511738920E+02  0.52388434440E+02  0.35944987030E+03  0.36403797767E+03  0.47000000000E+01 0. -1.
        -13    1    4    4    0    0 -0.10017168150E+02 -0.33334081885E+02  0.12504581500E+03  0.12979969385E+03  0.00000000000E+00 0.  1.
         14    1    4    4    0    0 -0.14220622522E+03 -0.22436735717E+02  0.36062179926E+03  0.38829640702E+03  0.00000000000E+00 0. -1.
         -5    1    5    5    0  502  0.32352272055E+02  0.59831177380E+02  0.34896853476E+03  0.35556654447E+03  0.47000000000E+01 0.  1.
         13    1    6    6    0    0  0.13172977482E+03 -0.43040648233E+02  0.55107431477E+03  0.56823246244E+03  0.00000000000E+00 0. -1.
        -14    1    6    6    0    0  0.11653085415E+02 -0.13408145985E+02  0.13171274103E+02  0.22114593370E+02  0.00000000000E+00 0.  1.
</event>
<event>
12    1  0.8563264E-002  0.2005962E+03  0.7818608E-02  0.1149469E+00
         21   -1    0    0  501  502  0.00000000000E+00  0.00000000000E+00  0.99386604701E+02  0.99386604701E+02  0.00000000000E+00 0.  1.
         21   -1    0    0  502  503 -0.00000000000E+00 -0.00000000000E+00 -0.51676420500E+03  0.51676420500E+03  0.00000000000E+00 0. -1.
         -6    2    1    2    0  503  0.10396325843E+03 -0.53808799331E+01 -0.35300881596E+03  0.40548000284E+03  0.17018077327E+03 0.  0.
        -24    2    3    3    0    0  0.11362484920E+03 -0.34080520524E+02 -0.34532884776E+03  0.37388747813E+03  0.80422291507E+02 0.  0.
          6    2    1    2  501    0 -0.10396325843E+03  0.53808799331E+01 -0.64368784337E+02  0.21067080685E+03  0.17146875952E+03 0.  0.
         24    2    5    5    0    0 -0.13070009186E+03  0.38340106445E+02 -0.46598369293E+02  0.16442097955E+03  0.79437854460E+02 0.  0.
          5    1    5    5  501    0  0.26736833436E+02 -0.32959226512E+02 -0.17770415044E+02  0.46249827300E+02  0.47000000000E+01 0. -1.
        -11    1    6    6    0    0 -0.76918725439E+02  0.13870438562E+02  0.14425237823E+02  0.79479348735E+02  0.00000000000E+00 0.  1.
         12    1    6    6    0    0 -0.53781366423E+02  0.24469667883E+02 -0.61023607115E+02  0.84941630818E+02  0.00000000000E+00 0. -1.
         -5    1    3    3    0  503 -0.96615907756E+01  0.28699640591E+02 -0.76799681978E+01  0.31592524715E+02  0.47000000000E+01 0.  1.
         11    1    4    4    0    0  0.10204347494E+03  0.43014362260E+01 -0.22607940101E+03  0.24807915812E+03  0.00000000000E+00 0. -1.
        -12    1    4    4    0    0  0.11581374260E+02 -0.38381956750E+02 -0.11924944675E+03  0.12580832001E+03  0.00000000000E+00 0.  1.
</event>
<event>
12    1  0.8563264E-002  0.2068499E+03  0.7818608E-02  0.1144170E+00
         21   -1    0    0  501  502  0.00000000000E+00  0.00000000000E+00  0.14807622166E+03  0.14807622166E+03  0.00000000000E+00 0. -1.
         21   -1    0    0  502  503 -0.00000000000E+00 -0.00000000000E+00 -0.73159822344E+03  0.73159822344E+03  0.00000000000E+00 0.  1.
         -6    2    1    2    0  503  0.89654448448E+02  0.71843311871E+02 -0.63399538835E+03  0.66675558848E+03  0.17150358810E+03 0.  0.
        -24    2    3    3    0    0 -0.11829495596E+02  0.15970710429E+02 -0.18842082672E+03  0.20634325321E+03  0.81732060097E+02 0.  0.
          6    2    1    2  501    0 -0.89654448448E+02 -0.71843311871E+02  0.50473386572E+02  0.21291885662E+03  0.17201016006E+03 0.  0.
         24    2    5    5    0    0 -0.11993606453E+03 -0.69532529863E+02  0.72117609925E+02  0.17533058197E+03  0.79501138545E+02 0.  0.
          5    1    5    5  501    0  0.30281616083E+02 -0.23107820080E+01 -0.21644223353E+02  0.37588274643E+02  0.47000000000E+01 0. -1.
        -13    1    6    6    0    0 -0.65783610067E+02 -0.25904652176E+02 -0.57468367747E+01  0.70933493434E+02  0.00000000000E+00 0.  1.
         14    1    6    6    0    0 -0.54152454465E+02 -0.43627877686E+02  0.77864446700E+02  0.10439708854E+03  0.00000000000E+00 0. -1.
         -5    1    3    3    0  503  0.10148394404E+03  0.55872601441E+02 -0.44557456163E+03  0.46041233526E+03  0.47000000000E+01 0.  1.
         13    1    4    4    0    0 -0.38871419735E+02  0.51499233267E+01 -0.16310642757E+03  0.16775343721E+03  0.00000000000E+00 0. -1.
        -14    1    4    4    0    0  0.27041924139E+02  0.10820787103E+02 -0.25314399150E+02  0.38589816000E+02  0.00000000000E+00 0.  1.
</event>
<event>
12    1  0.8563264E-002  0.1980593E+03  0.7818608E-02  0.1151450E+00
         21   -1    0    0  503  502  0.00000000000E+00  0.00000000000E+00  0.69865201674E+03  0.69865201674E+03  0.00000000000E+00 0. -1.
         21   -1    0    0  501  503 -0.00000000000E+00 -0.00000000000E+00 -0.73304493460E+02  0.73304493460E+02  0.00000000000E+00 0. -1.
          6    2    1    2  501    0  0.33514290866E+02 -0.92302545196E+02  0.12566342964E+03  0.23456081757E+03  0.17200148851E+03 0.  0.
         24    2    3    3    0    0  0.29799181818E+02  0.53759387814E+01  0.12785221595E+02  0.85167149302E+02  0.78569010903E+02 0.  0.
         -6    2    1    2    0  502 -0.33514290866E+02  0.92302545196E+02  0.49968409365E+03  0.53739569263E+03  0.17165945787E+03 0.  0.
        -24    2    5    5    0    0 -0.82250046583E+02  0.92705743345E+02  0.39590268026E+03  0.42264375052E+03  0.80804595209E+02 0.  0.
          5    1    3    3  501    0  0.37151090478E+01 -0.97678483978E+02  0.11287820804E+03  0.14939366827E+03  0.47000000000E+01 0. -1.
        -13    1    4    4    0    0  0.30338851191E+02  0.39601732045E+02  0.57041439085E+01  0.50212352368E+02  0.00000000000E+00 0.  1.
         14    1    4    4    0    0 -0.53966937287E+00 -0.34225793264E+02  0.70810776866E+01  0.34954796935E+02  0.00000000000E+00 0. -1.
         -5    1    5    5    0  502  0.48735755717E+02 -0.40319814877E+00  0.10378141339E+03  0.11475194211E+03  0.47000000000E+01 0.  1.
         11    1    6    6    0    0 -0.69751124677E+02  0.21594745167E+02  0.23943207252E+03  0.25031833686E+03  0.00000000000E+00 0. -1.
        -12    1    6    6    0    0 -0.12498921906E+02  0.71110998178E+02  0.15647060773E+03  0.17232541367E+03  0.00000000000E+00 0.  1.
</event>
<event>
12    1  0.8563264E-002  0.2296576E+03  0.7818608E-02  0.1127158E+00
         21   -1    0    0  503  502  0.00000000000E+00  0.00000000000E+00  0.56284568811E+03  0.56284568811E+03  0.00000000000E+00 0. -1.
         21   -1    0    0  501  503 -0.00000000000E+00 -0.00000000000E+00 -0.10242844094E+03  0.10242844094E+03  0.00000000000E+00 0.  1.
          6    2    1    2  501    0  0.11671809074E+03  0.97411462719E+02  0.13037976922E+03  0.26408611504E+03  0.17213508115E+03 0.  0.
         24    2    3    3    0    0  0.86247050731E+02  0.76641609512E+02  0.13337422026E+02  0.14128191268E+03  0.80437565580E+02 0.  0.
         -6    2    1    2    0  502 -0.11671809074E+03 -0.97411462719E+02  0.33003747796E+03  0.40118801401E+03  0.17004405297E+03 0.  0.
        -24    2    5    5    0    0 -0.79277072958E+02 -0.13012750301E+03  0.29308635856E+03  0.33906197816E+03  0.76455151068E+02 0.  0.
          5    1    3    3  501    0  0.30471040010E+02  0.20769853207E+02  0.11704234719E+03  0.12280420236E+03  0.47000000000E+01 0. -1.
        -13    1    4    4    0    0  0.82952284892E+02  0.26225077735E+02  0.22667536445E+02  0.89903578791E+02  0.00000000000E+00 0.  1.
         14    1    4    4    0    0  0.32947658392E+01  0.50416531777E+02 -0.93301144187E+01  0.51378333891E+02  0.00000000000E+00 0. -1.
         -5    1    5    5    0  502 -0.37441017783E+02  0.32716040292E+02  0.36951119397E+02  0.62126035844E+02  0.47000000000E+01 0.  1.
         13    1    6    6    0    0 -0.97713536398E+01 -0.49618079873E+01  0.89535525356E+02  0.90203709409E+02  0.00000000000E+00 0. -1.
        -14    1    6    6    0    0 -0.69505719318E+02 -0.12516569502E+03  0.20355083320E+03  0.24885826875E+03  0.00000000000E+00 0.  1.
</event>
<event>
12    1  0.8563264E-002  0.1994811E+03  0.7818608E-02  0.1151345E+00
         21   -1    0    0  503  502  0.00000000000E+00  0.00000000000E+00  0.44336667389E+03  0.44336667389E+03  0.00000000000E+00 0.  1.
         21   -1    0    0  501  503 -0.00000000000E+00 -0.00000000000E+00 -0.16920952115E+03  0.16920952115E+03  0.00000000000E+00 0. -1.
          6    2    1    2  501    0 -0.69684265590E+02  0.62896303322E+02 -0.75005245939E+02  0.21311619046E+03  0.17601386841E+03 0.  0.
         24    2    3    3    0    0  0.20109579459E+02 -0.95358005223E+01 -0.35281392238E+02  0.91012059368E+02  0.80889378997E+02 0.  0.
         -6    2    1    2    0  502  0.69684265590E+02 -0.62896303322E+02  0.34916239868E+03  0.39946000458E+03  0.16982954032E+03 0.  0.
        -24    2    5    5    0    0  0.82023206347E+02  0.11218711347E+02  0.24990784938E+03  0.27488536665E+03  0.79084548138E+02 0.  0.
          5    1    3    3  501    0 -0.89793845050E+02  0.72432103844E+02 -0.39723853701E+02  0.12210413109E+03  0.47000000000E+01 0. -1.
        -11    1    4    4    0    0 -0.15569088104E+02 -0.12767798467E+02  0.17865594296E+02  0.26918258518E+02  0.00000000000E+00 0.  1.
         12    1    4    4    0    0  0.35678667563E+02  0.32319979451E+01 -0.53146986533E+02  0.64093800850E+02  0.00000000000E+00 0. -1.
         -5    1    5    5    0  502 -0.12338940757E+02 -0.74115014669E+02  0.99254549296E+02  0.12457463793E+03  0.47000000000E+01 0.  1.
         11    1    6    6    0    0  0.58531766874E+02 -0.27395177522E+00  0.62374263978E+02  0.85537077280E+02  0.00000000000E+00 0. -1.
        -12    1    6    6    0    0  0.23491439473E+02  0.11492663122E+02  0.18753358540E+03  0.18934828937E+03  0.00000000000E+00 0.  1.
</event>
<event>
12    1  0.8563264E-002  0.2885393E+03  0.7818608E-02  0.1091194E+00
         21   -1    0    0  503  502  0.00000000000E+00  0.00000000000E+00  0.32534024035E+03  0.32534024035E+03  0.00000000000E+00 0.  1.
         21   -1    0    0  501  503 -0.00000000000E+00 -0.00000000000E+00 -0.11454611795E+04  0.11454611795E+04  0.00000000000E+00 0. -1.
          6    2    1    2  501    0 -0.83406319573E+02  0.21547890428E+03 -0.10582297081E+04  0.10967015787E+04  0.17180356576E+03 0.  0.
         24    2    3    3    0    0  0.16162967247E+02  0.58696349737E+02 -0.44570003742E+03  0.45661603770E+03  0.78378438031E+02 0.  0.
         -6    2    1    2    0  502  0.83406319573E+02 -0.21547890428E+03  0.23810876894E+03  0.37409984119E+03  0.17282110113E+03 0.  0.
        -24    2    5    5    0    0 -0.21748522479E+02 -0.10925090710E+03  0.12756003677E+03  0.18812930487E+03  0.81928709491E+02 0.  0.
          5    1    3    3  501    0 -0.99569286820E+02  0.15678255455E+03 -0.61252967071E+03  0.64008554099E+03  0.47000000000E+01 0. -1.
        -11    1    4    4    0    0 -0.15651753149E+02  0.36912293637E-01 -0.23679321734E+03  0.23730993767E+03  0.00000000000E+00 0.  1.
         12    1    4    4    0    0  0.31814720396E+02  0.58659437443E+02 -0.20890682008E+03  0.21930610003E+03  0.00000000000E+00 0. -1.
         -5    1    5    5    0  502  0.10515484205E+03 -0.10622799719E+03  0.11054873217E+03  0.18597053632E+03  0.47000000000E+01 0.  1.
         11    1    6    6    0    0 -0.15652316894E+02  0.13375831784E+01 -0.39453416780E+01  0.16197218091E+02  0.00000000000E+00 0. -1.
        -12    1    6    6    0    0 -0.60962055850E+01 -0.11058849027E+03  0.13150537845E+03  0.17193208678E+03  0.00000000000E+00 0.  1.
</event>
<event>
12    1  0.8563264E-002  0.1913563E+03  0.7818608E-02  0.1157568E+00
         21   -1    0    0  503  502  0.00000000000E+00  0.00000000000E+00  0.19941025707E+03  0.19941025707E+03  0.00000000000E+00 0.  1.
         21   -1    0    0  501  503 -0.00000000000E+00 -0.00000000000E+00 -0.31724310576E+03  0.31724310576E+03  0.00000000000E+00 0.  1.
          6    2    1    2  501    0 -0.40020303168E+02  0.73387071620E+02 -0.22730403289E+03  0.29619660155E+03  0.17052277400E+03 0.  0.
         24    2    3    3    0    0  0.93774063382E+01  0.19546152293E+02 -0.32342855175E+02  0.87939719029E+02  0.78850149542E+02 0.  0.
         -6    2    1    2    0  502  0.40020303168E+02 -0.73387071620E+02  0.10947118420E+03  0.22045676129E+03  0.17213354258E+03 0.  0.
        -24    2    5    5    0    0  0.83046183049E+02 -0.74661283440E+02  0.47708317562E+02  0.14502737941E+03  0.79283550940E+02 0.  0.
          5    1    3    3  501    0 -0.49397709506E+02  0.53840919327E+02 -0.19496117772E+03  0.20825688252E+03  0.47000000000E+01 0. -1.
        -13    1    4    4    0    0 -0.32993956601E+02  0.15836980011E+02 -0.26098368083E+02  0.44950371797E+02  0.00000000000E+00 0.  1.
         14    1    4    4    0    0  0.42371362940E+02  0.37091722811E+01 -0.62444870927E+01  0.42989347232E+02  0.00000000000E+00 0. -1.
         -5    1    5    5    0  502 -0.43025879881E+02  0.12742118201E+01  0.61762866639E+02  0.75429381880E+02  0.47000000000E+01 0.  1.
         11    1    6    6    0    0  0.64453710769E+02 -0.20123167758E+02  0.54814818580E+02  0.86970610257E+02  0.00000000000E+00 0. -1.
        -12    1    6    6    0    0  0.18592472280E+02 -0.54538115682E+02 -0.71065010175E+01  0.58056769152E+02  0.00000000000E+00 0.  1.
</event>
<event>
12    1  0.8563264E-002  0.2004540E+03  0.7818608E-02  0.1149544E+00
         21   -1    0    0  503  502  0.00000000000E+00  0.00000000000E+00  0.83485817183E+03  0.83485817183E+03  0.00000000000E+00 0. -1.
         21   -1    0    0  501  503 -0.00000000000E+00 -0.00000000000E+00 -0.54386455952E+02  0.54386455952E+02  0.00000000000E+00 0. -1.
          6    2    1    2  501    0 -0.10320105935E+03 -0.59832438398E+01  0.23612045792E+03  0.30915834484E+03  0.17070370141E+03 0.  0.
         24    2    3    3    0    0 -0.13207406292E+03  0.25307425910E+02  0.18206399546E+03  0.24018771715E+03  0.80366766322E+02 0.  0.
         -6    2    1    2    0  502  0.10320105935E+03  0.59832438398E+01  0.54435125796E+03  0.58008628295E+03  0.17174267311E+03 0.  0.
        -24    2    5    5    0    0  0.10959421529E+03 -0.42344577000E+02  0.47262509387E+03  0.49323478138E+03  0.78116035362E+02 0.  0.
          5    1    3    3  501    0  0.28873003567E+02 -0.31290669749E+02  0.54056462466E+02  0.68970627681E+02  0.47000000000E+01 0. -1.
        -13    1    4    4    0    0 -0.17797084396E+02 -0.42782960196E+01  0.86195705533E+02  0.88117760310E+02  0.00000000000E+00 0.  1.
         14    1    4    4    0    0 -0.11427697852E+03  0.29585721929E+02  0.95868289924E+02  0.15206995684E+03  0.00000000000E+00 0. -1.
         -5    1    5    5    0  502 -0.63931559450E+01  0.48327820840E+02  0.71726164089E+02  0.86851501570E+02  0.47000000000E+01 0.  1.
         13    1    6    6    0    0  0.54378256437E+02 -0.47077234442E+02  0.15582109498E+03  0.17162014572E+03  0.00000000000E+00 0. -1.
        -14    1    6    6    0    0  0.55215958857E+02  0.47326574419E+01  0.31680399889E+03  0.32161463566E+03  0.00000000000E+00 0.  1.
</event>
<event>
12    1  0.8563264E-002  0.2300384E+03  0.7818608E-02  0.1127463E+00
         21   -1    0    0  501  502  0.00000000000E+00  0.00000000000E+00  0.24214987978E+03  0.24214987978E+03  0.00000000000E+00 0.  1.
         21   -1    0    0  502  503 -0.00000000000E+00 -0.00000000000E+00 -0.35492410929E+03  0.35492410929E+03  0.00000000000E+00 0. -1.
         -6    2    1    2    0  503 -0.25775156823E+02  0.14380164427E+03  0.13206915320E+03  0.26111869077E+03  0.17145681042E+03 0.  0.
        -24    2    3    3    0    0  0.45757850916E+02  0.72887422975E+02  0.10036974746E+03  0.15541750675E+03  0.81695519170E+02 0.  0.
          6    2    1    2  501    0  0.25775156823E+02 -0.14380164427E+03 -0.24484338271E+03  0.33595529829E+03  0.17769189286E+03 0.  0.
         24    2    5    5    0    0  0.41576243835E+02 -0.12378671341E+03 -0.26286333628E+03  0.30437871622E+03  0.80607287874E+02 0.  0.
          5    1    5    5  501    0 -0.15801087011E+02 -0.20014930867E+02  0.18019953574E+02  0.31576582069E+02  0.47000000000E+01 0. -1.
        -13    1    6    6    0    0  0.52433366741E+02 -0.41048671098E+02 -0.85557303127E+02  0.10841726553E+03  0.00000000000E+00 0.  1.
         14    1    6    6    0    0 -0.10857122906E+02 -0.82738042307E+02 -0.17730603316E+03  0.19596145069E+03  0.00000000000E+00 0. -1.
         -5    1    3    3    0  503 -0.71533007740E+02  0.70914221298E+02  0.31699405742E+02  0.10570118402E+03  0.47000000000E+01 0.  1.
         11    1    4    4    0    0  0.49548465527E+02  0.63175156882E+02  0.32279833887E+02  0.86534031218E+02  0.00000000000E+00 0. -1.
        -12    1    4    4    0    0 -0.37906146104E+01  0.97122660924E+01  0.68089913571E+02  0.68883475535E+02  0.00000000000E+00 0.  1.
</event>
<event>
12    1  0.8563264E-002  0.2143142E+03  0.7818608E-02  0.1140619E+00
         21   -1    0    0  501  502  0.00000000000E+00  0.00000000000E+00  0.21132265806E+03  0.21132265806E+03  0.00000000000E+00 0. -1.
         21   -1    0    0  502  503 -0.00000000000E+00 -0.00000000000E+00 -0.21046418967E+03  0.21046418967E+03  0.00000000000E+00 0. -1.
         -6    2    1    2    0  503  0.10742505091E+03  0.17263629210E+01 -0.33027884091E+02  0.20481020062E+03  0.17121114233E+03 0.  0.
        -24    2    3    3    0    0 -0.10094360701E+02 -0.13782515250E+02 -0.23934204414E+02  0.85830696424E+02  0.80636272626E+02 0.  0.
          6    2    1    2  501    0 -0.10742505091E+03 -0.17263629210E+01  0.33886352487E+02  0.21697664712E+03  0.18543855753E+03 0.  0.
         24    2    5    5    0    0 -0.12832470775E+03  0.49153146547E+02  0.29045466809E+02  0.16155964328E+03  0.79841197132E+02 0.  0.
          5    1    5    5  501    0  0.20899656844E+02 -0.50879509468E+02  0.48408856783E+01  0.55417003835E+02  0.47000000000E+01 0. -1.
        -13    1    6    6    0    0 -0.63970098830E+01  0.13458774733E+02 -0.20373233263E+02  0.25241414111E+02  0.00000000000E+00 0.  1.
         14    1    6    6    0    0 -0.12192769787E+03  0.35694371814E+02  0.49418700072E+02  0.13631822917E+03  0.00000000000E+00 0. -1.
         -5    1    3    3    0  503  0.11751941161E+03  0.15508878171E+02 -0.90936796766E+01  0.11897950419E+03  0.47000000000E+01 0.  1.
         13    1    4    4    0    0  0.31844155178E+02 -0.36816162281E+01 -0.27918419892E+02  0.42509324698E+02  0.00000000000E+00 0. -1.
        -14    1    4    4    0    0 -0.41938515879E+02 -0.10100899022E+02  0.39842154777E+01  0.43321371726E+02  0.00000000000E+00 0.  1.
</event>
<event>
12    1  0.8563264E-002  0.1957707E+03  0.7818608E-02  0.1154360E+00
         21   -1    0    0  501  502  0.00000000000E+00  0.00000000000E+00  0.75173242520E+02  0.75173242520E+02  0.00000000000E+00 0. -1.
         21   -1    0    0  502  503 -0.00000000000E+00 -0.00000000000E+00 -0.58829279920E+03  0.58829279920E+03  0.00000000000E+00 0.  1.
         -6    2    1    2    0  503  0.72751832183E+02  0.43910264289E+02 -0.12917735429E+03  0.23454836947E+03  0.17636668723E+03 0.  0.
        -24    2    3    3    0    0  0.48109540383E+02 -0.14096589674E+02 -0.49939476814E+01  0.95208331691E+02  0.80786417135E+02 0.  0.
          6    2    1    2  501    0 -0.72751832183E+02 -0.43910264289E+02 -0.38394220238E+03  0.42891767224E+03  0.17128284909E+03 0.  0.
         24    2    5    5    0    0 -0.10296807879E+03 -0.36184451509E+02 -0.37072429676E+03  0.39471953236E+03  0.80344665298E+02 0.  0.
          5    1    5    5  501    0  0.30216246605E+02 -0.77258127799E+01 -0.13217905624E+02  0.34198139878E+02  0.47000000000E+01 0. -1.
        -11    1    6    6    0    0  0.12268570628E+02 -0.12983632922E+02 -0.54585363242E+02  0.57433913582E+02  0.00000000000E+00 0.  1.
         12    1    6    6    0    0 -0.11523664942E+03 -0.23200818587E+02 -0.31613893352E+03  0.33728561878E+03  0.00000000000E+00 0. -1.
         -5    1    3    3    0  503  0.24642291801E+02  0.58006853963E+02 -0.12418340661E+03  0.13934003778E+03  0.47000000000E+01 0.  1.
         11    1    4    4    0    0  0.96530190341E+01 -0.43783771681E+02  0.64489814075E+01  0.45296675378E+02  0.00000000000E+00 0. -1.
        -12    1    4    4    0    0  0.38456521349E+02  0.29687182007E+02 -0.11442929089E+02  0.49911656313E+02  0.00000000000E+00 0.  1.
</event>
<event>
12    1  0.8563264E-002  0.1949276E+03  0.7818608E-02  0.1154236E+00
         21   -1    0    0  501  502  0.00000000000E+00  0.00000000000E+00  0.14244367474E+03  0.14244367474E+03  0.00000000000E+00 0.  1.
         21   -1    0    0  502  503 -0.00000000000E+00 -0.00000000000E+00 -0.70020959353E+03  0.70020959353E+03  0.00000000000E+00 0.  1.
         -6    2    1    2    0  503  0.87304485238E+02 -0.31715537431E+02 -0.61090985796E+03  0.64125471364E+03  0.17137329065E+03 0.  0.
        -24    2    3    3    0    0  0.10690860226E+03  0.18555349709E+02 -0.49828286197E+03  0.51628106152E+03  0.80539268108E+02 0.  0.
          6    2    1    2  501    0 -0.87304485238E+02  0.31715537431E+02  0.53143939173E+02  0.20139855464E+03  0.17061404129E+03 0.  0.
         24    2    5    5    0    0  0.16946892924E+02  0.29491352869E+02  0.40815108034E+02  0.96292004309E+02  0.80307782787E+02 0.  0.
          5    1    5    5  501    0 -0.10425137816E+03  0.22241845620E+01  0.12328831139E+02  0.10510655033E+03  0.47000000000E+01 0. -1.
        -13    1    6    6    0    0 -0.37251965156E+01  0.18987127345E+02  0.61959911123E+02  0.64910851791E+02  0.00000000000E+00 0.  1.
         14    1    6    6    0    0  0.20672089440E+02  0.10504225524E+02 -0.21144803089E+02  0.31381152517E+02  0.00000000000E+00 0. -1.
         -5    1    3    3    0  503 -0.19604117025E+02 -0.50270887140E+02 -0.11262699599E+03  0.12497365212E+03  0.47000000000E+01 0.  1.
         13    1    4    4    0    0  0.41258845532E+02  0.47897238139E+02 -0.23530043280E+03  0.24364468275E+03  0.00000000000E+00 0. -1.
        -14    1    4    4    0    0  0.65649756731E+02 -0.29341888431E+02 -0.26298242917E+03  0.27263637877E+03  0.00000000000E+00 0.  1.
</event>
<event>
12    1  0.8563264E-002  0.2145495E+03  0.7818608E-02  0.1138192E+00
         21   -1    0    0  501  502  0.00000000000E+00  0.00000000000E+00  0.83266743630E+02  0.83266743630E+02  0.00000000000E+00 0.  1.
         21   -1    0    0  502  503 -0.00000000000E+00 -0.00000000000E+00 -0.72219310346E+03  0.72219310346E+03  0.00000000000E+00 0.  1.
         -6    2    1    2    0  503  0.82420457000E+02 -0.95540677929E+02 -0.12358964820E+03  0.24760022664E+03  0.17352324979E+03 0.  0.
        -24    2    3    3    0    0  0.14937906892E+02  0.29963209226E+02 -0.41985836116E+02  0.83324871194E+02  0.63712547866E+02 0.  0.
          6    2    1    2  501    0 -0.82420457000E+02  0.95540677929E+02 -0.51533671163E+03  0.55785962045E+03  0.17237829591E+03 0.  0.
         24    2    5    5    0    0 -0.27299548136E+02  0.23870525453E+01 -0.35245023973E+03  0.36223241057E+03  0.78994838030E+02 0.  0.
          5    1    5    5  501    0 -0.55120908864E+02  0.93153625384E+02 -0.16288647191E+03  0.19562720988E+03  0.47000000000E+01 0. -1.
        -11    1    6    6    0    0 -0.39971589282E+02  0.25818267305E+02 -0.13468285984E+03  0.14284181325E+03  0.00000000000E+00 0.  1.
         12    1    6    6    0    0  0.12672041146E+02 -0.23431214760E+02 -0.21776737989E+03  0.21939059732E+03  0.00000000000E+00 0. -1.
         -5    1    3    3    0  503  0.67482550108E+02 -0.12550388715E+03 -0.81603812080E+02  0.16427535544E+03  0.47000000000E+01 0.  1.
         13    1    4    4    0    0 -0.14721339020E+01  0.16412043874E+02  0.15131490358E+02  0.22371507834E+02  0.00000000000E+00 0. -1.
        -14    1    4    4    0    0  0.16410040794E+02  0.13551165352E+02 -0.57117326474E+02  0.60953363359E+02  0.00000000000E+00 0.  1.
</event>
<event>
12    1  0.8563264E-002  0.2859446E+03  0.7818608E-02  0.1092533E+00
         21   -1    0    0  501  502  0.00000000000E+00  0.00000000000E+00  0.13891575538E+04  0.13891575538E+04  0.00000000000E+00 0.  1.
         21   -1    0    0  502  503 -0.00000000000E+00 -0.00000000000E+00 -0.19513194939E+03  0.19513194939E+03  0.00000000000E+00 0. -1.
         -6    2    1    2    0  503  0.20322313244E+02 -0.22747790199E+03 -0.65033834259E+02  0.29324684728E+03  0.17206138885E+03 0.  0.
        -24    2    3    3    0    0 -0.44110500473E+02 -0.17637949629E+03 -0.71485705478E+02  0.21062511170E+03  0.78722732596E+02 0.  0.
          6    2    1    2  501    0 -0.20322313244E+02  0.22747790199E+03  0.12590594387E+04  0.12910426559E+04  0.17146800560E+03 0.  0.
         24    2    5    5    0    0 -0.43702930638E+02  0.45324549721E+02  0.52856243787E+03  0.53780002886E+03  0.76722613110E+02 0.  0.
          5    1    5    5  501    0  0.23380617395E+02  0.18215335227E+03  0.73049700081E+03  0.75324262705E+03  0.47000000000E+01 0. -1.
        -13    1    6    6    0    0  0.96726396775E+01 -0.13813873185E+02  0.53206758963E+02  0.55815251053E+02  0.00000000000E+00 0.  1.
         14    1    6    6    0    0 -0.53375570316E+02  0.59138422906E+02  0.47535567891E+03  0.48198477781E+03  0.00000000000E+00 0. -1.
         -5    1    3    3    0  503  0.64432813717E+02 -0.51098405697E+02  0.64518712188E+01  0.82621735581E+02  0.47000000000E+01 0.  1.
         11    1    4    4    0    0  0.20337884566E+02 -0.49660291135E+02 -0.34254048383E+02  0.63664070674E+02  0.00000000000E+00 0. -1.
        -12    1    4    4    0    0 -0.64448385039E+02 -0.12671920516E+03 -0.37231657095E+02  0.14696104103E+03  0.00000000000E+00 0.  1.
</event>
<event>
12    1  0.8563264E-002  0.1956215E+03  0.7818608E-02  0.1153676E+00
         21   -1    0    0  501  502  0.00000000000E+00  0.00000000000E+00  0.11808173960E+03  0.11808173960E+03  0.00000000000E+00 0.  1.
         21   -1    0    0  502  503 -0.00000000000E+00 -0.00000000000E+00 -0.32877648822E+03  0.32877648822E+03  0.00000000000E+00 0.  1.
         -6    2    1    2    0  503 -0.67999794995E+02  0.59651220574E+02 -0.75056350332E+02  0.20952616834E+03  0.17345177791E+03 0.  0.
        -24    2    3    3    0    0 -0.51445728402E+02 -0.40503143038E+01 -0.99604688388E+02  0.13912280502E+03  0.82286043227E+02 0.  0.
          6    2    1    2  501    0  0.67999794995E+02 -0.59651220574E+02 -0.13563839829E+03  0.23733205948E+03  0.17247171109E+03 0.  0.
         24    2    5    5    0    0 -0.20729311948E+01  0.23586636408E+02 -0.46916540501E+02  0.96860048595E+02  0.81363878844E+02 0.  0.
          5    1    5    5  501    0  0.70072726190E+02 -0.83237856981E+02 -0.88721857793E+02  0.14047201088E+03  0.47000000000E+01 0. -1.
        -13    1    6    6    0    0  0.34079880678E+02 -0.97197013061E+01 -0.22451909756E+02  0.41952343346E+02  0.00000000000E+00 0.  1.
         14    1    6    6    0    0 -0.36152811873E+02  0.33306337714E+02 -0.24464630746E+02  0.54907705249E+02  0.00000000000E+00 0. -1.
         -5    1    3    3    0  503 -0.16554066594E+02  0.63701534877E+02  0.24548338056E+02  0.70403363328E+02  0.47000000000E+01 0.  1.
         11    1    4    4    0    0 -0.68160052198E+02  0.81413476526E+01 -0.96163464010E+02  0.11815026901E+03  0.00000000000E+00 0. -1.
        -12    1    4    4    0    0  0.16714323796E+02 -0.12191661956E+02 -0.34412243780E+01  0.20972536004E+02  0.00000000000E+00 0.  1.
</event>
<event>
12    1  0.8563264E-002  0.2458560E+03  0.7818608E-02  0.1116455E+00
         21   -1    0    0  503  502  0.00000000000E+00  0.00000000000E+00  0.38759717671E+03  0.38759717671E+03  0.00000000000E+00 0.  1.
         21   -1    0    0  501  503 -0.00000000000E+00 -0.00000000000E+00 -0.18522852957E+03  0.18522852957E+03  0.00000000000E+00 0. -1.
          6    2    1    2  501    0  0.15418882697E+03  0.83270111634E+02 -0.15899318437E+02  0.24636960749E+03  0.17244445283E+03 0.  0.
         24    2    3    3    0    0  0.89568959880E+02  0.32421571372E+02  0.58634835463E+02  0.13528976518E+03  0.76102035237E+02 0.  0.
         -6    2    1    2    0  502 -0.15418882697E+03 -0.83270111634E+02  0.21826796558E+03  0.32645609879E+03  0.16800170769E+03 0.  0.
        -24    2    5    5    0    0 -0.10878060015E+03 -0.63635246261E+02  0.61544424713E+02  0.16204261619E+03  0.81162982401E+02 0.  0.
          5    1    3    3  501    0  0.64619867094E+02  0.50848540263E+02 -0.74534153900E+02  0.11107984231E+03  0.47000000000E+01 0. -1.
        -13    1    4    4    0    0 -0.74663727034E+01 -0.59965634732E+01  0.23159574353E+02  0.25061352299E+02  0.00000000000E+00 0.  1.
         14    1    4    4    0    0  0.97035332583E+02  0.38418134845E+02  0.35475261110E+02  0.11022841288E+03  0.00000000000E+00 0. -1.
         -5    1    5    5    0  502 -0.45408226824E+02 -0.19634865373E+02  0.15672354087E+03  0.16441348261E+03  0.47000000000E+01 0.  1.
         13    1    6    6    0    0 -0.79776498760E+01  0.17155565907E+02 -0.65129485749E-01  0.18919846220E+02  0.00000000000E+00 0. -1.
        -14    1    6    6    0    0 -0.10080295027E+03 -0.80790812168E+02  0.61609554199E+02  0.14312276997E+03  0.00000000000E+00 0.  1.
</event>
<event>
12    1  0.8563264E-002  0.1827636E+03  0.7818608E-02  0.1166928E+00
         21   -1    0    0  503  502  0.00000000000E+00  0.00000000000E+00  0.26117928383E+03  0.26117928383E+03  0.00000000000E+00 0. -1.
         21   -1    0    0  501  503 -0.00000000000E+00 -0.00000000000E+00 -0.12354965960E+03  0.12354965960E+03  0.00000000000E+00 0. -1.
          6    2    1    2  501    0  0.25066291915E+01  0.12619250702E+02  0.84944400095E+02  0.20153929461E+03  0.18231019578E+03 0.  0.
         24    2    3    3    0    0  0.57633342983E+01  0.67404465016E+02  0.10092236440E+03  0.14418590605E+03  0.77638095938E+02 0.  0.
         -6    2    1    2    0  502 -0.25066291915E+01 -0.12619250702E+02  0.52685224140E+02  0.18318964882E+03  0.17497767262E+03 0.  0.
        -24    2    5    5    0    0  0.50944654070E+02 -0.52670292900E+02  0.26557021175E+02  0.11131546254E+03  0.79475400566E+02 0.  0.
          5    1    3    3  501    0 -0.32567051069E+01 -0.54785214313E+02 -0.15977964308E+02  0.57353388557E+02  0.47000000000E+01 0. -1.
        -11    1    4    4    0    0  0.35713595795E+02  0.58220348506E+02  0.50970541823E+02  0.85223623711E+02  0.00000000000E+00 0.  1.
         12    1    4    4    0    0 -0.29950261496E+02  0.91841165101E+01  0.49951822580E+02  0.58962282340E+02  0.00000000000E+00 0. -1.
         -5    1    5    5    0  502 -0.53451283261E+02  0.40051042197E+02  0.26128202965E+02  0.71874186281E+02  0.47000000000E+01 0.  1.
         11    1    6    6    0    0  0.11074401117E+02 -0.26783775711E+02  0.50396229178E+02  0.58135986418E+02  0.00000000000E+00 0. -1.
        -12    1    6    6    0    0  0.39870252952E+02 -0.25886517189E+02 -0.23839208004E+02  0.53179476125E+02  0.00000000000E+00 0.  1.
</event>
<event>
12    1  0.8563264E-002  0.2237046E+03  0.7818608E-02  0.1131608E+00
         21   -1    0    0  501  502  0.00000000000E+00  0.00000000000E+00  0.32950203266E+03  0.32950203266E+03  0.00000000000E+00 0.  1.
         21   -1    0    0  502  503 -0.00000000000E+00 -0.00000000000E+00 -0.35041772403E+03  0.35041772403E+03  0.00000000000E+00 0. -1.
         -6    2    1    2    0  503 -0.80925015687E+02 -0.11336404731E+03  0.24654448476E+03  0.33123841320E+03  0.17185586409E+03 0.  0.
        -24    2    3    3    0    0 -0.40363595081E+02 -0.33339106131E+02  0.21711243135E+03  0.23669976596E+03  0.78410812729E+02 0.  0.
          6    2    1    2  501    0  0.80925015687E+02  0.11336404731E+03 -0.26746017613E+03  0.34868134350E+03  0.17505275804E+03 0.  0.
         24    2    5    5    0    0  0.40924036276E+02  0.12359553392E+03 -0.11594270830E+03  0.19156866186E+03  0.79405338924E+02 0.  0.
          5    1    5    5  501    0  0.40000979411E+02 -0.10231486607E+02 -0.15151746783E+03  0.15711268163E+03  0.47000000000E+01 0. -1.
        -11    1    6    6    0    0  0.15199281318E+02 -0.81255428971E+01 -0.65983045246E+01  0.18454815701E+02  0.00000000000E+00 0.  1.
         12    1    6    6    0    0  0.25724754957E+02  0.13172107682E+03 -0.10934440378E+03  0.17311384616E+03  0.00000000000E+00 0. -1.
         -5    1    3    3    0  503 -0.40561420606E+02 -0.80024941184E+02  0.29432053409E+02  0.94538647234E+02  0.47000000000E+01 0.  1.
         13    1    4    4    0    0 -0.21644150115E+02  0.15872875276E+02  0.22294114893E+02  0.34891903969E+02  0.00000000000E+00 0. -1.
        -14    1    4    4    0    0 -0.18719444966E+02 -0.49211981406E+02  0.19481831646E+03  0.20180786199E+03  0.00000000000E+00 0.  1.
</event>
<event>
12    1  0.8563264E-002  0.2591547E+03  0.7818608E-02  0.1107726E+00
         21   -1    0    0  501  502  0.00000000000E+00  0.00000000000E+00  0.20354753991E+03  0.20354753991E+03  0.00000000000E+00 0.  1.
         21   -1    0    0  502  503 -0.00000000000E+00 -0.00000000000E+00 -0.59445985410E+03  0.59445985410E+03  0.00000000000E+00 0.  1.
         -6    2    1    2    0  503 -0.19494695551E+02 -0.19283531708E+03 -0.46182071687E+03  0.52932701225E+03  0.17129859515E+03 0.  0.
        -24    2    3    3    0    0  0.84537023019E+01 -0.14388360735E+03 -0.18886417035E+03  0.25057129640E+03  0.79638823408E+02 0.  0.
          6    2    1    2  501    0  0.19494695551E+02  0.19283531708E+03  0.70908402684E+02  0.26868038175E+03  0.17203384347E+03 0.  0.
         24    2    5    5    0    0 -0.49739907695E+02  0.95635321254E+02  0.92373744455E+01  0.13426804899E+03  0.79513563649E+02 0.  0.
          5    1    5    5  501    0  0.69234603246E+02  0.97199995823E+02  0.61671028238E+02  0.13441233276E+03  0.47000000000E+01 0. -1.
        -11    1    6    6    0    0 -0.30937012403E+02  0.56847323256E+02  0.44528392611E+02  0.78558861030E+02  0.00000000000E+00 0.  1.
         12    1    6    6    0    0 -0.18802895292E+02  0.38787997998E+02 -0.35291018165E+02  0.55709187960E+02  0.00000000000E+00 0. -1.
         -5    1    3    3    0  503 -0.27948397853E+02 -0.48951709731E+02 -0.27295654652E+03  0.27875571585E+03  0.47000000000E+01 0.  1.
         13    1    4    4    0    0 -0.31612562708E+02 -0.35563445960E+02 -0.71712194697E+02  0.86062487053E+02  0.00000000000E+00 0. -1.
        -14    1    4    4    0    0  0.40066265010E+02 -0.10832016139E+03 -0.11715197565E+03  0.16450880935E+03  0.00000000000E+00 0.  1.
</event>
<event>
12    1  0.8563264E-002  0.2605424E+03  0.7818608E-02  0.1107154E+00
         21   -1    0    0  503  502  0.00000000000E+00  0.00000000000E+00  0.21580806389E+03  0.21580806389E+03  0.00000000000E+00 0. -1.
         21   -1    0    0  501  503 -0.00000000000E+00 -0.00000000000E+00 -0.49554515381E+03  0.49554515381E+03  0.00000000000E+00 0.  1.
          6    2    1    2  501    0 -0.18461768911E+03 -0.54917558710E+02 -0.35603526728E+03  0.43986889129E+03  0.17211595099E+03 0.  0.
         24    2    3    3    0    0 -0.85408332686E+02 -0.53054545524E+02 -0.83672308881E+02  0.14995573476E+03  0.73323250198E+02 0.  0.
         -6    2    1    2    0  502  0.18461768911E+03  0.54917558710E+02  0.76298177371E+02  0.27148432641E+03  0.17544998783E+03 0.  0.
        -24    2    5    5    0    0  0.26390486979E+02 -0.11452035942E+02  0.17698930027E+02  0.90109762657E+02  0.83539872348E+02 0.  0.
          5    1    3    3  501    0 -0.99209356422E+02 -0.18630131864E+01 -0.27236295840E+03  0.28991315653E+03  0.47000000000E+01 0. -1.
        -11    1    4    4    0    0 -0.83587471825E+02 -0.67965730707E+02 -0.80790201091E+02  0.13465980317E+03  0.00000000000E+00 0.  1.
         12    1    4    4    0    0 -0.18208608609E+01  0.14911185183E+02 -0.28821077898E+01  0.15295931588E+02  0.00000000000E+00 0. -1.
         -5    1    5    5    0  502  0.15822720213E+03  0.66369594653E+02  0.58599247344E+02  0.18137456376E+03  0.47000000000E+01 0.  1.
         13    1    6    6    0    0  0.18366167151E+02 -0.97763248203E+00  0.51040003565E+02  0.54252684957E+02  0.00000000000E+00 0. -1.
        -14    1    6    6    0    0  0.80243198275E+01 -0.10474403460E+02 -0.33341073538E+02  0.35857077701E+02  0.00000000000E+00 0.  1.
</event>
<event>
12    1  0.8563264E-002  0.1879186E+03  0.7818608E-02  0.1160926E+00
         21   -1    0    0  503  502  0.00000000000E+00  0.00000000000E+00  0.18859386640E+03  0.18859386640E+03  0.00000000000E+00 0. -1.
         21   -1    0    0  501  503 -0.00000000000E+00 -0.00000000000E+00 -0.48625393201E+03  0.48625393201E+03  0.00000000000E+00 0. -1.
          6    2    1    2  501    0  0.71744398308E+02 -0.14515932084E+02 -0.41489528169E+03  0.45546845421E+03  0.17307641964E+03 0.  0.
         24    2    3    3    0    0 -0.12822081306E+02 -0.50371086942E+02 -0.18729231152E+03  0.20998467952E+03  0.79457557916E+02 0.  0.
         -6    2    1    2    0  502 -0.71744398308E+02  0.14515932084E+02  0.11723521608E+03  0.21937934419E+03  0.17036792478E+03 0.  0.
        -24    2    5    5    0    0  0.12761668770E+02 -0.33877380536E+02  0.48615634453E+02  0.10015717737E+03  0.79733576132E+02 0.  0.
          5    1    3    3  501    0  0.84566479614E+02  0.35855154858E+02 -0.22760297017E+03  0.24548377469E+03  0.47000000000E+01 0. -1.
        -13    1    4    4    0    0 -0.72069614299E+01  0.21556654931E+02 -0.41450595416E+02  0.47273475917E+02  0.00000000000E+00 0.  1.
         14    1    4    4    0    0 -0.56151198759E+01 -0.71927741873E+02 -0.14584171611E+03  0.16271120361E+03  0.00000000000E+00 0. -1.
         -5    1    5    5    0  502 -0.84506067078E+02  0.48393312620E+02  0.68619581632E+02  0.11922216683E+03  0.47000000000E+01 0.  1.
         13    1    6    6    0    0 -0.18212651966E+00 -0.44738567155E+02  0.63474080604E+02  0.77656496636E+02  0.00000000000E+00 0. -1.
        -14    1    6    6    0    0  0.12943795290E+02  0.10861186620E+02 -0.14858446151E+02  0.22500680730E+02  0.00000000000E+00 0.  1.
</event>
<event>
12    1  0.8563264E-002  0.1841361E+03  0.7818608E-02  0.1163932E+00
         21   -1    0    0  501  502  0.00000000000E+00  0.00000000000E+00  0.49055673443E+03  0.49055673443E+03  0.00000000000E+00 0. -1.
         21   -1    0    0  502  503 -0.00000000000E+00 -0.00000000000E+00 -0.69516471351E+02  0.69516471351E+02  0.00000000000E+00 0. -1.
         -6    2    1    2    0  503 -0.38103265666E+02 -0.51428392250E+02  0.23482104083E+03  0.29840747171E+03  0.17265387216E+03 0.  0.
        -24    2    3    3    0    0 -0.77437499368E+02 -0.30779017853E+02  0.22470161155E+03  0.25260276177E+03  0.79833744553E+02 0.  0.
          6    2    1    2  501    0  0.38103265666E+02  0.51428392250E+02  0.18621922226E+03  0.26166573408E+03  0.17232126760E+03 0.  0.
         24    2    5    5    0    0  0.73569554702E+02  0.19115399186E+02  0.14998956360E+03  0.20136096358E+03  0.11077676019E+03 0.  0.
          5    1    5    5  501    0 -0.35466289036E+02  0.32312993064E+02  0.36229658653E+02  0.60304770499E+02  0.47000000000E+01 0. -1.
        -11    1    6    6    0    0 -0.23256128304E+02 -0.89169594233E+01  0.60436572004E+01  0.25629776851E+02  0.00000000000E+00 0.  1.
         12    1    6    6    0    0  0.96825683006E+02  0.28032358609E+02  0.14394590640E+03  0.17573118673E+03  0.00000000000E+00 0. -1.
         -5    1    3    3    0  503  0.39334233702E+02 -0.20649374397E+02  0.10119429274E+02  0.45804709941E+02  0.47000000000E+01 0.  1.
         11    1    4    4    0    0 -0.56422087042E+02 -0.58033096624E+02  0.15439514023E+03  0.17432484486E+03  0.00000000000E+00 0. -1.
        -12    1    4    4    0    0 -0.21015412326E+02  0.27254078771E+02  0.70306471328E+02  0.78277916908E+02  0.00000000000E+00 0.  1.
</event>
<event>
12    1  0.8563264E-002  0.1769330E+03  0.7818608E-02  0.1170904E+00
         21   -1    0    0  503  502  0.00000000000E+00  0.00000000000E+00  0.27641164076E+03  0.27641164076E+03  0.00000000000E+00 0.  1.
         21   -1    0    0  501  503 -0.00000000000E+00 -0.00000000000E+00 -0.12585127194E+03  0.12585127194E+03  0.00000000000E+00 0.  1.
          6    2    1    2  501    0 -0.36687221512E+02  0.21811935834E+02  0.10933130326E+02  0.17687204159E+03  0.17129644769E+03 0.  0.
         24    2    3    3    0    0 -0.28237053828E+02 -0.48495820113E+02  0.28254552093E+02  0.10381926935E+03  0.82649532343E+02 0.  0.
         -6    2    1    2    0  502  0.36687221512E+02 -0.21811935834E+02  0.13962723850E+03  0.22539087111E+03  0.17170779330E+03 0.  0.
        -24    2    5    5    0    0  0.55384178528E+02  0.10462302619E+02  0.15595257311E+03  0.18440539540E+03  0.80667699748E+02 0.  0.
          5    1    3    3  501    0 -0.84501676834E+01  0.70307755948E+02 -0.17321421767E+02  0.73052772242E+02  0.47000000000E+01 0. -1.
        -11    1    4    4    0    0 -0.33757963079E+02  0.96869264366E+01  0.28727960033E+02  0.45373255368E+02  0.00000000000E+00 0.  1.
         12    1    4    4    0    0  0.55209092510E+01 -0.58182746550E+02 -0.47340793925E+00  0.58446013980E+02  0.00000000000E+00 0. -1.
         -5    1    5    5    0  502 -0.18696957017E+02 -0.32274238453E+02 -0.16325334613E+02  0.40985475716E+02  0.47000000000E+01 0.  1.
         11    1    6    6    0    0  0.16670520725E+02  0.22205852066E+01 -0.58697467101E+01  0.17812669265E+02  0.00000000000E+00 0. -1.
        -12    1    6    6    0    0  0.38713657804E+02  0.82417174122E+01  0.16182231982E+03  0.16659272613E+03  0.00000000000E+00 0.  1.
</event>
<event>
12    1  0.8563264E-002  0.1867635E+03  0.7818608E-02  0.1161851E+00
         21   -1    0    0  501  502  0.00000000000E+00  0.00000000000E+00  0.56660943536E+02  0.56660943536E+02  0.00000000000E+00 0. -1.
         21   -1    0    0  502  503 -0.00000000000E+00 -0.00000000000E+00 -0.91217931711E+03  0.91217931711E+03  0.00000000000E+00 0. -1.
         -6    2    1    2    0  503  0.69934469266E+02  0.21807492735E+02 -0.70539674761E+03  0.72922156804E+03  0.16974429896E+03 0.  0.
        -24    2    3    3    0    0  0.94027292091E+02 -0.18682064239E+02 -0.62193029847E+03  0.63326008375E+03  0.70928741228E+02 0.  0.
          6    2    1    2  501    0 -0.69934469266E+02 -0.21807492735E+02 -0.15012162597E+03  0.23961869261E+03  0.17179702713E+03 0.  0.
         24    2    5    5    0    0 -0.64964770317E+02 -0.56756052375E+02 -0.16351248500E+03  0.20157260431E+03  0.80333748783E+02 0.  0.
          5    1    5    5  501    0 -0.49696989487E+01  0.34948559641E+02  0.13390859038E+02  0.38046088293E+02  0.47000000000E+01 0. -1.
        -11    1    6    6    0    0 -0.74764137388E+01 -0.24129261559E+02 -0.11954300193E+03  0.12218284387E+03  0.00000000000E+00 0.  1.
         12    1    6    6    0    0 -0.57488356578E+02 -0.32626790817E+02 -0.43969483070E+02  0.79389760439E+02  0.00000000000E+00 0. -1.
         -5    1    3    3    0  503 -0.24092822825E+02  0.40489556974E+02 -0.83466449133E+02  0.95961484286E+02  0.47000000000E+01 0.  1.
         11    1    4    4    0    0  0.38922703211E+02 -0.41826089876E+02 -0.24170843462E+03  0.24836941435E+03  0.00000000000E+00 0. -1.
        -12    1    4    4    0    0  0.55104588880E+02  0.23144025637E+02 -0.38022186386E+03  0.38489066940E+03  0.00000000000E+00 0.  1.
</event>
<event>
12    1  0.8563264E-002  0.1825403E+03  0.7818608E-02  0.1166274E+00
         21   -1    0    0  503  502  0.00000000000E+00  0.00000000000E+00  0.62923336826E+02  0.62923336826E+02  0.00000000000E+00 0.  1.
         21   -1    0    0  501  503 -0.00000000000E+00 -0.00000000000E+00 -0.86407894250E+03  0.86407894250E+03  0.00000000000E+00 0.  1.
          6    2    1    2  501    0  0.39546698058E+02 -0.28102627303E+02 -0.69613729615E+03  0.71967220805E+03  0.17597514870E+03 0.  0.
         24    2    3    3    0    0  0.64685111085E+02 -0.46219935294E+02 -0.66832004180E+03  0.67776676332E+03  0.79972877752E+02 0.  0.
         -6    2    1    2    0  502 -0.39546698058E+02  0.28102627303E+02 -0.10501830952E+03  0.20733007128E+03  0.17205584597E+03 0.  0.
        -24    2    5    5    0    0 -0.67756807770E+02 -0.15523590802E+02 -0.72125021133E+02  0.14566066543E+03  0.10574991210E+03 0.  0.
          5    1    3    3  501    0 -0.25138413027E+02  0.18117307991E+02 -0.27817254349E+02  0.41905444728E+02  0.47000000000E+01 0. -1.
        -13    1    4    4    0    0  0.65978780302E+02 -0.75762636578E+01 -0.52998158388E+03  0.53412646300E+03  0.00000000000E+00 0.  1.
         14    1    4    4    0    0 -0.12936692169E+01 -0.38643671636E+02 -0.13833845792E+03  0.14364030033E+03  0.00000000000E+00 0. -1.
         -5    1    5    5    0  502  0.28210109712E+02  0.43626218105E+02 -0.32893288391E+02  0.61669405845E+02  0.47000000000E+01 0.  1.
         13    1    6    6    0    0 -0.84537257200E+02  0.92869697082E+01 -0.77697640315E+02  0.11519426623E+03  0.00000000000E+00 0. -1.
        -14    1    6    6    0    0  0.16780449430E+02 -0.24810560510E+02  0.55726191812E+01  0.30466399204E+02  0.00000000000E+00 0.  1.
</event>
<event>
12    1  0.8563264E-002  0.1839756E+03  0.7818608E-02  0.1164538E+00
         21   -1    0    0  501  502  0.00000000000E+00  0.00000000000E+00  0.17790080310E+03  0.17790080310E+03  0.00000000000E+00 0.  1.
         21   -1    0    0  502  503 -0.00000000000E+00 -0.00000000000E+00 -0.25817229782E+03  0.25817229782E+03  0.00000000000E+00 0.  1.
         -6    2    1    2    0  503  0.38085929709E+02  0.48640987506E+02 -0.15402121982E+03  0.23993654078E+03  0.17329317280E+03 0.  0.
        -24    2    3    3    0    0 -0.73768412012E+00  0.35741592925E+02 -0.27773245136E+01  0.83186825500E+02  0.75062165987E+02 0.  0.
          6    2    1    2  501    0 -0.38085929709E+02 -0.48640987506E+02  0.73749725101E+02  0.19613656015E+03  0.17092116477E+03 0.  0.
         24    2    5    5    0    0 -0.53302682574E+02 -0.93963092011E+02  0.54457950066E+02  0.14436875830E+03  0.78780907692E+02 0.  0.
          5    1    5    5  501    0  0.15216752865E+02  0.45322104505E+02  0.19291775035E+02  0.51767801851E+02  0.47000000000E+01 0. -1.
        -11    1    6    6    0    0 -0.10028161619E+02 -0.89518135472E+02  0.39611618878E+02  0.98402951958E+02  0.00000000000E+00 0.  1.
         12    1    6    6    0    0 -0.43274520956E+02 -0.44449565383E+01  0.14846331188E+02  0.45965806338E+02  0.00000000000E+00 0. -1.
         -5    1    3    3    0  503  0.38823613829E+02  0.12899394581E+02 -0.15124389531E+03  0.15674971528E+03  0.47000000000E+01 0.  1.
         13    1    4    4    0    0  0.29710791613E+02 -0.60591748866E+01  0.54902998577E+01  0.30815387895E+02  0.00000000000E+00 0. -1.
        -14    1    4    4    0    0 -0.30448475733E+02  0.41800767811E+02 -0.82676243713E+01  0.52371437605E+02  0.00000000000E+00 0.  1.
</event>
<event>
12    1  0.8563264E-002  0.1762520E+03  0.7818608E-02  0.1171734E+00
         21   -1    0    0  503  502  0.00000000000E+00  0.00000000000E+00  0.12033587237E+03  0.12033587237E+03  0.00000000000E+00 0. -1.
         21   -1    0    0  501  503 -0.00000000000E+00 -0.00000000000E+00 -0.25757448321E+03  0.25757448321E+03  0.00000000000E+00 0. -1.
          6    2    1    2  501    0 -0.37915405817E+02  0.25227512453E+01 -0.79667259163E+02  0.19249400637E+03  0.17106468961E+03 0.  0.
         24    2    3    3    0    0 -0.19984737004E+02 -0.11955612018E+02  0.11122710241E+02  0.98706798119E+02  0.95273243567E+02 0.  0.
         -6    2    1    2    0  502  0.37915405817E+02 -0.25227512453E+01 -0.57571351678E+02  0.18541634922E+03  0.17210700088E+03 0.  0.
        -24    2    5    5    0    0  0.67301454029E+02  0.48960663571E+02 -0.26659775244E+02  0.11839622248E+03  0.79876714939E+02 0.  0.
          5    1    3    3  501    0 -0.17930668812E+02  0.14478363263E+02 -0.90789969404E+02  0.93787208249E+02  0.47000000000E+01 0. -1.
        -13    1    4    4    0    0 -0.15730582611E+02  0.39047223643E+02 -0.10115713572E+02  0.43295087072E+02  0.00000000000E+00 0.  1.
         14    1    4    4    0    0 -0.42541543932E+01 -0.51002835661E+02  0.21238423813E+02  0.55411711047E+02  0.00000000000E+00 0. -1.
         -5    1    5    5    0  502 -0.29386048212E+02 -0.51483414816E+02 -0.30911576433E+02  0.67020126740E+02  0.47000000000E+01 0.  1.
         11    1    6    6    0    0 -0.14788069358E+02  0.22533919865E+02  0.31828647640E+01  0.27140286807E+02  0.00000000000E+00 0. -1.
        -12    1    6    6    0    0  0.82089523387E+02  0.26426743706E+02 -0.29842640008E+02  0.91255935672E+02  0.00000000000E+00 0.  1.
</event>
<event>
12    1  0.8563264E-002  0.2403294E+03  0.7818608E-02  0.1119881E+00
         21   -1    0    0  501  502  0.00000000000E+00  0.00000000000E+00  0.15508636012E+04  0.15508636012E+04  0.00000000000E+00 0. -1.
         21   -1    0    0  502  503 -0.00000000000E+00 -0.00000000000E+00 -0.37727333606E+02  0.37727333606E+02  0.00000000000E+00 0. -1.
         -6    2    1    2    0  503  0.27072822290E+02  0.16441826323E+03  0.64024385245E+03  0.68321843156E+03  0.17061339815E+03 0.  0.
        -24    2    3    3    0    0 -0.15847602766E+02  0.11922577619E+03  0.57755365023E+03  0.59469343380E+03  0.75007526956E+02 0.  0.
          6    2    1    2  501    0 -0.27072822290E+02 -0.16441826323E+03  0.87289241518E+03  0.90537250328E+03  0.17318169139E+03 0.  0.
         24    2    5    5    0    0  0.27206735697E+02 -0.16539174283E+03  0.68994114796E+03  0.71447862111E+03  0.79788954742E+02 0.  0.
          5    1    5    5  501    0 -0.54279557987E+02  0.97347959552E+00  0.18295126721E+03  0.19089388218E+03  0.47000000000E+01 0. -1.
        -13    1    6    6    0    0  0.13284435764E+02 -0.73716851852E+00  0.12958838231E+03  0.13026959922E+03  0.00000000000E+00 0.  1.
         14    1    6    6    0    0  0.13922299933E+02 -0.16465457431E+03  0.56035276565E+03  0.58420902189E+03  0.00000000000E+00 0. -1.
         -5    1    3    3    0  503  0.42920425056E+02  0.45192487046E+02  0.62690202226E+02  0.88524997755E+02  0.47000000000E+01 0.  1.
         13    1    4    4    0    0  0.27011832160E+02  0.72754321000E+02  0.35157531595E+03  0.36003893273E+03  0.00000000000E+00 0. -1.
        -14    1    4    4    0    0 -0.42859434925E+02  0.46471455186E+02  0.22597833428E+03  0.23465450107E+03  0.00000000000E+00 0.  1.
</event>
<event>
12    1  0.8563264E-002  0.1979492E+03  0.7818608E-02  0.1152708E+00
         21   -1    0    0  501  502  0.00000000000E+00  0.00000000000E+00  0.84115051311E+02  0.84115051311E+02  0.00000000000E+00 0. -1.
         21   -1    0    0  502  503 -0.00000000000E+00 -0.00000000000E+00 -0.57124816071E+03  0.57124816071E+03  0.00000000000E+00 0. -1.
         -6    2    1    2    0  503 -0.10365511199E+01 -0.93874077205E+02 -0.97055612138E+02  0.22046244137E+03  0.17427128104E+03 0.  0.
        -24    2    3    3    0    0 -0.42469328505E+02 -0.11822313882E+03 -0.80758937564E+02  0.16949947986E+03  0.80173020762E+02 0.  0.
          6    2    1    2  501    0  0.10365511199E+01  0.93874077205E+02 -0.39007749726E+03  0.43490077065E+03  0.16782374575E+03 0.  0.
         24    2    5    5    0    0  0.43618025123E+02  0.11428648657E+03 -0.23816698701E+03  0.27575071094E+03  0.65962169082E+02 0.  0.
          5    1    5    5  501    0 -0.42581474003E+02 -0.20412409369E+02 -0.15191051024E+03  0.15915005971E+03  0.47000000000E+01 0. -1.
        -11    1    6    6    0    0  0.33087672936E+02  0.10949282668E+02 -0.67277339353E+02  0.75768867496E+02  0.00000000000E+00 0.  1.
         12    1    6    6    0    0  0.10530352187E+02  0.10333720391E+03 -0.17088964766E+03  0.19998184344E+03  0.00000000000E+00 0. -1.
         -5    1    3    3    0  503  0.41432777385E+02  0.24349061619E+02 -0.16296674575E+02  0.50962961509E+02  0.47000000000E+01 0.  1.
         11    1    4    4    0    0 -0.24187815371E+02 -0.10575682226E+03 -0.27635802366E+02  0.11195219265E+03  0.00000000000E+00 0. -1.
        -12    1    4    4    0    0 -0.18281513135E+02 -0.12466316561E+02 -0.53123135198E+02  0.57547287202E+02  0.00000000000E+00 0.  1.
</event>
<event>
12    1  0.8563264E-002  0.2321173E+03  0.7818608E-02  0.1125520E+00
         21   -1    0    0  501  502  0.00000000000E+00  0.00000000000E+00  0.87383472297E+02  0.87383472297E+02  0.00000000000E+00 0.  1.
         21   -1    0    0  502  503 -0.00000000000E+00 -0.00000000000E+00 -0.86711784258E+03  0.86711784258E+03  0.00000000000E+00 0.  1.
         -6    2    1    2    0  503  0.11118235361E+03 -0.10986565722E+03 -0.64796661136E+03  0.68759083090E+03  0.16878519758E+03 0.  0.
        -24    2    3    3    0    0  0.46832555826E+02  0.10505800092E+02 -0.23377536668E+03  0.25146394412E+03  0.79243504502E+02 0.  0.
          6    2    1    2  501    0 -0.11118235361E+03  0.10986565722E+03 -0.13176775893E+03  0.26691048398E+03  0.17159978372E+03 0.  0.
         24    2    5    5    0    0 -0.10473917742E+03  0.14108121422E+03 -0.10635393775E+03  0.22587540355E+03  0.93991135557E+02 0.  0.
          5    1    5    5  501    0 -0.64431761886E+01 -0.31215557002E+02 -0.25413821179E+02  0.41035080422E+02  0.47000000000E+01 0. -1.
        -13    1    6    6    0    0 -0.46807929134E+02  0.94063692406E+01 -0.13301016606E+01  0.47762235946E+02  0.00000000000E+00 0.  1.
         14    1    6    6    0    0 -0.57931248285E+02  0.13167484498E+03 -0.10502383609E+03  0.17811316761E+03  0.00000000000E+00 0. -1.
         -5    1    3    3    0  503  0.64349797782E+02 -0.12037145731E+03 -0.41419124467E+03  0.43612688678E+03  0.47000000000E+01 0.  1.
         11    1    4    4    0    0 -0.15301411896E+02 -0.18545434845E+02 -0.58888283830E+02  0.63607360675E+02  0.00000000000E+00 0. -1.
        -12    1    4    4    0    0  0.62133967722E+02  0.29051234937E+02 -0.17488708285E+03  0.18785658345E+03  0.00000000000E+00 0.  1.
</event>
<event>
12    1  0.8563264E-002  0.2049718E+03  0.7818608E-02  0.1146804E+00
         21   -1    0    0  503  502  0.00000000000E+00  0.00000000000E+00  0.28696374246E+02  0.28696374246E+02  0.00000000000E+00 0. -1.
         21   -1    0    0  501  503 -0.00000000000E+00 -0.00000000000E+00 -0.14571942534E+04  0.14571942534E+04  0.00000000000E+00 0.  1.
          6    2    1    2  501    0  0.44943269538E+02  0.10363299375E+03 -0.81767167457E+03  0.84159092868E+03  0.16409944843E+03 0.  0.
         24    2    3    3    0    0 -0.24789508539E+02  0.17680521184E+02 -0.43357548208E+03  0.44183792624E+03  0.79409910196E+02 0.  0.
         -6    2    1    2    0  502 -0.44943269538E+02 -0.10363299375E+03 -0.61082620455E+03  0.64429969893E+03  0.17103729127E+03 0.  0.
        -24    2    5    5    0    0 -0.41975951969E+02  0.60153339529E+01 -0.35293202147E+03  0.36400867088E+03  0.78378159622E+02 0.  0.
          5    1    3    3  501    0  0.69732778076E+02  0.85952472569E+02 -0.38409619249E+03  0.39975300245E+03  0.47000000000E+01 0. -1.
        -13    1    4    4    0    0 -0.35476478366E+02  0.44053687319E+02 -0.29382736460E+03  0.29922203807E+03  0.00000000000E+00 0.  1.
         14    1    4    4    0    0  0.10686969828E+02 -0.26373166136E+02 -0.13974811748E+03  0.14261588816E+03  0.00000000000E+00 0. -1.
         -5    1    5    5    0  502 -0.29673175691E+01 -0.10964832771E+03 -0.25789418308E+03  0.28029102806E+03  0.47000000000E+01 0.  1.
         13    1    6    6    0    0 -0.32782894676E+02 -0.53561192735E+00 -0.35103397390E+03  0.35256184691E+03  0.00000000000E+00 0. -1.
        -14    1    6    6    0    0 -0.91930572930E+01  0.65509458803E+01 -0.18980475709E+01  0.11446823966E+02  0.00000000000E+00 0.  1.
</event>
<event>
12    1  0.8563264E-002  0.1834353E+03  0.7818608E-02  0.1164915E+00
         21   -1    0    0  501  502  0.00000000000E+00  0.00000000000E+00  0.76972396899E+02  0.76972396899E+02  0.00000000000E+00 0. -1.
         21   -1    0    0  502  503 -0.00000000000E+00 -0.00000000000E+00 -0.43463811442E+03  0.43463811442E+03  0.00000000000E+00 0. -1.
         -6    2    1    2    0  503 -0.34980518550E+01  0.59892104579E+02 -0.19444181631E+03  0.26731281569E+03  0.17334711115E+03 0.  0.
        -24    2    3    3    0    0  0.44971754531E+02  0.66301716801E+02 -0.18644150218E+03  0.21754836768E+03  0.78412257893E+02 0.  0.
          6    2    1    2  501    0  0.34980518550E+01 -0.59892104579E+02 -0.16322390121E+03  0.24429769563E+03  0.17158094768E+03 0.  0.
         24    2    5    5    0    0  0.47414350168E+02 -0.20420296725E+01 -0.14195344972E+03  0.16847029603E+03  0.77325081754E+02 0.  0.
          5    1    5    5  501    0 -0.43916298313E+02 -0.57850074907E+02 -0.21270451486E+02  0.75827399604E+02  0.47000000000E+01 0. -1.
        -11    1    6    6    0    0  0.27682312827E+02  0.25556024606E+02 -0.12497929232E+03  0.13053445655E+03  0.00000000000E+00 0.  1.
         12    1    6    6    0    0  0.19732037341E+02 -0.27598054278E+02 -0.16974157403E+02  0.37935839481E+02  0.00000000000E+00 0. -1.
         -5    1    3    3    0  503 -0.48469806386E+02 -0.64096122219E+01 -0.80003141370E+01  0.49764448015E+02  0.47000000000E+01 0.  1.
         13    1    4    4    0    0  0.17610679027E+02  0.79656742641E+02 -0.13926200721E+03  0.16139776738E+03  0.00000000000E+00 0. -1.
        -14    1    4    4    0    0  0.27361075504E+02 -0.13355025839E+02 -0.47179494966E+02  0.56150600292E+02  0.00000000000E+00 0.  1.
</event>
<event>
12    1  0.8563264E-002  0.2198226E+03  0.7818608E-02  0.1134018E+00
         21   -1    0    0  501  502  0.00000000000E+00  0.00000000000E+00  0.19706429284E+04  0.19706429284E+04  0.00000000000E+00 0. -1.
         21   -1    0    0  502  503 -0.00000000000E+00 -0.00000000000E+00 -0.27508165969E+02  0.27508165969E+02  0.00000000000E+00 0. -1.
         -6    2    1    2    0  503  0.35127967764E+02 -0.13354791365E+03  0.64224125490E+03  0.67881569605E+03  0.17102017527E+03 0.  0.
        -24    2    3    3    0    0  0.30676929376E+02  0.37136815620E+01  0.31731119067E+03  0.32602369797E+03  0.68192334552E+02 0.  0.
          6    2    1    2  501    0 -0.35127967764E+02  0.13354791365E+03  0.13008935075E+04  0.13193353983E+04  0.17103495538E+03 0.  0.
         24    2    5    5    0    0  0.23656585155E+02  0.21551356225E+02  0.37009310072E+03  0.37996840941E+03  0.79893641617E+02 0.  0.
          5    1    5    5  501    0 -0.58784552920E+02  0.11199655743E+03  0.93080040676E+03  0.93936698886E+03  0.47000000000E+01 0. -1.
        -13    1    6    6    0    0 -0.92677314609E+00 -0.73671751957E+00  0.31926711975E+03  0.31926931487E+03  0.00000000000E+00 0.  1.
         14    1    6    6    0    0  0.24583358301E+02  0.22288073745E+02  0.50825980968E+02  0.60699094540E+02  0.00000000000E+00 0. -1.
         -5    1    3    3    0  503  0.44510383886E+01 -0.13726159522E+03  0.32493006424E+03  0.35279199808E+03  0.47000000000E+01 0.  1.
         13    1    4    4    0    0  0.26086775310E+02  0.67644854046E+00  0.34993151843E+02  0.43652011461E+02  0.00000000000E+00 0. -1.
        -14    1    4    4    0    0  0.45901540657E+01  0.30372330215E+01  0.28231803882E+03  0.28237168651E+03  0.00000000000E+00 0.  1.
</event>
<event>
12    1  0.8563264E-002  0.1851523E+03  0.7818608E-02  0.1163051E+00
         21   -1    0    0  503  502  0.00000000000E+00  0.00000000000E+00  0.30121893331E+03  0.30121893331E+03  0.00000000000E+00 0. -1.
         21   -1    0    0  501  503 -0.00000000000E+00 -0.00000000000E+00 -0.25122133368E+03  0.25122133368E+03  0.00000000000E+00 0. -1.
          6    2    1    2  501    0 -0.64247814868E+02 -0.20966436974E+02 -0.17958581690E+03  0.25749970056E+03  0.17171970463E+03 0.  0.
         24    2    3    3    0    0 -0.98931141261E+02  0.65414561605E+01 -0.84018576584E+02  0.15207292627E+03  0.78973997833E+02 0.  0.
         -6    2    1    2    0  502  0.64247814868E+02  0.20966436974E+02  0.22958341653E+03  0.29494056643E+03  0.17237754896E+03 0.  0.
        -24    2    5    5    0    0 -0.21743394782E+02  0.21621652400E+02  0.56448492764E+02  0.10156862102E+03  0.78673257027E+02 0.  0.
          5    1    3    3  501    0  0.34683326392E+02 -0.27507893134E+02 -0.95567240316E+02  0.10542677428E+03  0.47000000000E+01 0. -1.
        -11    1    4    4    0    0 -0.83891466748E+02  0.13902885831E+02 -0.98362870435E+02  0.13002431583E+03  0.00000000000E+00 0.  1.
         12    1    4    4    0    0 -0.15039674513E+02 -0.73614296701E+01  0.14344293850E+02  0.22048610439E+02  0.00000000000E+00 0. -1.
         -5    1    5    5    0  502  0.85991209651E+02 -0.65521542609E+00  0.17313492376E+03  0.19337194541E+03  0.47000000000E+01 0.  1.
         11    1    6    6    0    0 -0.11993404079E+02  0.32635253919E+02  0.72127187947E+02  0.80070174103E+02  0.00000000000E+00 0. -1.
        -12    1    6    6    0    0 -0.97499907033E+01 -0.11013601519E+02 -0.15678695183E+02  0.21498446916E+02  0.00000000000E+00 0.  1.
</event>
<event>
12    1  0.8563264E-002  0.2100759E+03  0.7818608E-02  0.1141523E+00
         21   -1    0    0  501  502  0.00000000000E+00  0.00000000000E+00  0.81085357915E+02  0.81085357915E+02  0.00000000000E+00 0.  1.
         21   -1    0    0  502  503 -0.00000000000E+00 -0.00000000000E+00 -0.54686517047E+03  0.54686517047E+03  0.00000000000E+00 0. -1.
         -6    2    1    2    0  503  0.58730705328E+02 -0.10566106399E+03 -0.21037066844E+03  0.29730069141E+03  0.17180898341E+03 0.  0.
        -24    2    3    3    0    0  0.62334209384E+02 -0.13782386116E+03 -0.19287300038E+03  0.26021040763E+03  0.87341236558E+02 0.  0.
          6    2    1    2  501    0 -0.58730705328E+02  0.10566106399E+03 -0.25540914411E+03  0.33064983697E+03  0.17170302153E+03 0.  0.
         24    2    5    5    0    0 -0.58692748157E+02  0.42007150260E+01 -0.18140993247E+03  0.20498290745E+03  0.75139497289E+02 0.  0.
          5    1    5    5  501    0 -0.37957170643E-01  0.10146034897E+03 -0.73999211641E+02  0.12566692953E+03  0.47000000000E+01 0. -1.
        -11    1    6    6    0    0 -0.44600886442E+02 -0.32700604284E+02 -0.94000698523E+02  0.10906282554E+03  0.00000000000E+00 0.  1.
         12    1    6    6    0    0 -0.14091861715E+02  0.36901319310E+02 -0.87409233949E+02  0.95920081907E+02  0.00000000000E+00 0. -1.
         -5    1    3    3    0  503 -0.36035040562E+01  0.32162797164E+02 -0.17497668061E+02  0.37090283774E+02  0.47000000000E+01 0.  1.
         13    1    4    4    0    0  0.51478138579E+02 -0.12707206788E+03 -0.20068737755E+03  0.24304882780E+03  0.00000000000E+00 0. -1.
        -14    1    4    4    0    0  0.10856070805E+02 -0.10751793271E+02  0.78143771703E+01  0.17161579835E+02  0.00000000000E+00 0.  1.
</event>
<event>
12    1  0.8563264E-002  0.1994667E+03  0.7818608E-02  0.1150267E+00
         21   -1    0    0  503  502  0.00000000000E+00  0.00000000000E+00  0.22129877401E+03  0.22129877401E+03  0.00000000000E+00 0. -1.
         21   -1    0    0  501  503 -0.00000000000E+00 -0.00000000000E+00 -0.27010170497E+03  0.27010170497E+03  0.00000000000E+00 0. -1.
          6    2    1    2  501    0  0.12249668105E+02  0.10243836732E+03 -0.16671849248E+03  0.25968720265E+03  0.17029008785E+03 0.  0.
         24    2    3    3    0    0 -0.13659383873E+02  0.44688888733E+01 -0.24892919039E+02  0.85314380911E+02  0.80326436721E+02 0.  0.
         -6    2    1    2    0  502 -0.12249668105E+02 -0.10243836732E+03  0.11791556152E+03  0.23171327633E+03  0.17071405716E+03 0.  0.
        -24    2    5    5    0    0 -0.24287634386E+02 -0.13709425344E+03  0.79987582254E+02  0.17873625597E+03  0.78510587641E+02 0.  0.
          5    1    3    3  501    0  0.25909051978E+02  0.97969478443E+02 -0.14182557344E+03  0.17437282174E+03  0.47000000000E+01 0. -1.
        -13    1    4    4    0    0 -0.28621343097E+01  0.28783950236E+02  0.18556776201E+02  0.34366576015E+02  0.00000000000E+00 0.  1.
         14    1    4    4    0    0 -0.10797249563E+02 -0.24315061363E+02 -0.43449695240E+02  0.50947804896E+02  0.00000000000E+00 0. -1.
         -5    1    5    5    0  502  0.12037966280E+02  0.34655886125E+02  0.37927979261E+02  0.52977020359E+02  0.47000000000E+01 0.  1.
         11    1    6    6    0    0 -0.41512974111E+02 -0.13573790953E+03  0.75974796904E+02  0.16099775424E+03  0.00000000000E+00 0. -1.
        -12    1    6    6    0    0  0.17225339725E+02 -0.13563439070E+01  0.40127853497E+01  0.17738501732E+02  0.00000000000E+00 0.  1.
</event>
<event>
12    1  0.8563264E-002  0.2479788E+03  0.7818608E-02  0.1114731E+00
         21   -1    0    0  501  502  0.00000000000E+00  0.00000000000E+00  0.12749757336E+03  0.12749757336E+03  0.00000000000E+00 0.  1.
         21   -1    0    0  502  503 -0.00000000000E+00 -0.00000000000E+00 -0.51546984856E+03  0.51546984856E+03  0.00000000000E+00 0. -1.
         -6    2    1    2    0  503  0.22388234375E+02 -0.17754587113E+03 -0.27794801980E+03  0.37248971696E+03  0.17166746383E+03 0.  0.
        -24    2    3    3    0    0  0.79764124773E+02 -0.11405730499E+03 -0.15650949715E+03  0.22385528081E+03  0.79022652592E+02 0.  0.
          6    2    1    2  501    0 -0.22388234375E+02  0.17754587113E+03 -0.11002425540E+03  0.27047770495E+03  0.17037923203E+03 0.  0.
         24    2    5    5    0    0 -0.75345712838E+02  0.82273465486E+02 -0.53824502587E+02  0.14775106555E+03  0.80544402208E+02 0.  0.
          5    1    5    5  501    0  0.52957478463E+02  0.95272405644E+02 -0.56199752815E+02  0.12272663940E+03  0.47000000000E+01 0. -1.
        -11    1    6    6    0    0 -0.72526977906E+02  0.73097674410E+02 -0.73056649389E+02  0.12625651091E+03  0.00000000000E+00 0.  1.
         12    1    6    6    0    0 -0.28187349318E+01  0.91757910764E+01  0.19232146802E+02  0.21494554638E+02  0.00000000000E+00 0. -1.
         -5    1    3    3    0  503 -0.57375890399E+02 -0.63488566136E+02 -0.12143852265E+03  0.14863443616E+03  0.47000000000E+01 0.  1.
         11    1    4    4    0    0  0.43592195634E+02 -0.11567131749E+03 -0.12594463603E+03  0.17647148368E+03  0.00000000000E+00 0. -1.
        -12    1    4    4    0    0  0.36171929139E+02  0.16140124966E+01 -0.30564861126E+02  0.47383797121E+02  0.00000000000E+00 0.  1.
</event>
<event>
12    1  0.8563264E-002  0.2453680E+03  0.7818608E-02  0.1116315E+00
         21   -1    0    0  503  502  0.00000000000E+00  0.00000000000E+00  0.34374546363E+03  0.34374546363E+03  0.00000000000E+00 0.  1.
         21   -1    0    0  501  503 -0.00000000000E+00 -0.00000000000E+00 -0.18124248911E+03  0.18124248911E+03  0.00000000000E+00 0. -1.
          6    2    1    2  501    0  0.65500292005E+02  0.16255671259E+03  0.32240445063E+02  0.24718629564E+03  0.17130862615E+03 0.  0.
         24    2    3    3    0    0 -0.27992435647E+02  0.45482445361E+02  0.10650913885E+02  0.95741678609E+02  0.78745144402E+02 0.  0.
         -6    2    1    2    0  502 -0.65500292005E+02 -0.16255671259E+03  0.13026252946E+03  0.27780165710E+03  0.17172786915E+03 0.  0.
        -24    2    5    5    0    0  0.39367798013E+01 -0.12045937297E+03  0.13320800908E+03  0.19641087878E+03  0.79415998703E+02 0.  0.
          5    1    3    3  501    0  0.93492727653E+02  0.11707426723E+03  0.21589531178E+02  0.15144461703E+03  0.47000000000E+01 0. -1.
        -11    1    4    4    0    0  0.16598576114E+02  0.38112552210E+02  0.24771563111E+02  0.48391215153E+02  0.00000000000E+00 0.  1.
         12    1    4    4    0    0 -0.44591011762E+02  0.73698931509E+01 -0.14120649226E+02  0.47350463456E+02  0.00000000000E+00 0. -1.
         -5    1    5    5    0  502 -0.69437071807E+02 -0.42097339627E+02 -0.29454796205E+01  0.81390778316E+02  0.47000000000E+01 0.  1.
         13    1    6    6    0    0 -0.23707602179E+02 -0.93196686337E+01  0.79437576903E+01  0.26683513838E+02  0.00000000000E+00 0. -1.
        -14    1    6    6    0    0  0.27644381980E+02 -0.11113970433E+03  0.12526425139E+03  0.16972736495E+03  0.00000000000E+00 0.  1.
</event>
<event>
12    1  0.8563264E-002  0.2007015E+03  0.7818608E-02  0.1149669E+00
         21   -1    0    0  503  502  0.00000000000E+00  0.00000000000E+00  0.20129887037E+03  0.20129887037E+03  0.00000000000E+00 0.  1.
         21   -1    0    0  501  503 -0.00000000000E+00 -0.00000000000E+00 -0.59053534920E+03  0.59053534920E+03  0.00000000000E+00 0.  1.
          6    2    1    2  501    0 -0.97401329678E+02  0.24093811863E+02 -0.51714462320E+03  0.55383927709E+03  0.17097325157E+03 0.  0.
         24    2    3    3    0    0 -0.82493778005E+01  0.56581852726E+01 -0.38658791164E+03  0.39460646708E+03  0.78511038329E+02 0.  0.
         -6    2    1    2    0  502  0.97401329678E+02 -0.24093811863E+02  0.12790814436E+03  0.23799494248E+03  0.17382050644E+03 0.  0.
        -24    2    5    5    0    0  0.20027899564E+02  0.23033520805E+02  0.81851834302E+00  0.81849189372E+02  0.75940502940E+02 0.  0.
          5    1    3    3  501    0 -0.89151951877E+02  0.18435626590E+02 -0.13055671155E+03  0.15923281001E+03  0.47000000000E+01 0. -1.
        -11    1    4    4    0    0  0.26099104590E+02  0.14548772804E+02 -0.71014003338E+02  0.77044264683E+02  0.00000000000E+00 0.  1.
         12    1    4    4    0    0 -0.34348482390E+02 -0.88905875312E+01 -0.31557390830E+03  0.31756220240E+03  0.00000000000E+00 0. -1.
         -5    1    5    5    0  502  0.77373430113E+02 -0.47127332668E+02  0.12708962602E+03  0.15614575311E+03  0.47000000000E+01 0.  1.
         11    1    6    6    0    0  0.26210049826E+02  0.28272224842E+02  0.31706604046E+02  0.49915870718E+02  0.00000000000E+00 0. -1.
        -12    1    6    6    0    0 -0.61821502621E+01 -0.52387040371E+01 -0.30888085703E+02  0.31933318653E+02  0.00000000000E+00 0.  1.
</event>
<event>
12    1  0.8563264E-002  0.1895498E+03  0.7818608E-02  0.1160670E+00
         21   -1    0    0  503  502  0.00000000000E+00  0.00000000000E+00  0.94329567235E+02  0.94329567235E+02  0.00000000000E+00 0.  1.
         21   -1    0    0  501  503 -0.00000000000E+00 -0.00000000000E+00 -0.40704551660E+03  0.40704551660E+03  0.00000000000E+00 0.  1.
          6    2    1    2  501    0  0.45002460141E+02  0.38235837047E+02 -0.23947169468E+03  0.30541087802E+03  0.18011638239E+03 0.  0.
         24    2    3    3    0    0  0.63776229898E+02  0.32290128337E+02 -0.56169786762E+02  0.12099426996E+03  0.79840519347E+02 0.  0.
         -6    2    1    2    0  502 -0.45002460141E+02 -0.38235837047E+02 -0.73244254679E+02  0.19596420581E+03  0.17190127533E+03 0.  0.
        -24    2    5    5    0    0  0.36026343312E+02 -0.36959805172E+02 -0.63494691123E+02  0.11420578584E+03  0.79670955232E+02 0.  0.
          5    1    3    3  501    0 -0.18773769758E+02  0.59457087100E+01 -0.18330190792E+03  0.18441660807E+03  0.47000000000E+01 0. -1.
        -13    1    4    4    0    0  0.17215223391E+02  0.35123132429E+02 -0.62691646773E+02  0.73893443032E+02  0.00000000000E+00 0.  1.
         14    1    4    4    0    0  0.46561006507E+02 -0.28330040912E+01  0.65218600103E+01  0.47100826926E+02  0.00000000000E+00 0. -1.
         -5    1    5    5    0  502 -0.81028803453E+02 -0.12760318750E+01 -0.97495635556E+01  0.81758419969E+02  0.47000000000E+01 0.  1.
         11    1    6    6    0    0 -0.39906881332E+01  0.21358624898E+02 -0.46976041504E+01  0.22230248178E+02  0.00000000000E+00 0. -1.
        -12    1    6    6    0    0  0.40017031446E+02 -0.58318430071E+02 -0.58797086973E+02  0.91975537662E+02  0.00000000000E+00 0.  1.
</event>
<event>
12    1  0.8563264E-002  0.3130332E+03  0.7818608E-02  0.1078909E+00
         21   -1    0    0  501  502  0.00000000000E+00  0.00000000000E+00  0.13660648586E+04  0.13660648586E+04  0.00000000000E+00 0.  1.
         21   -1    0    0  502  503 -0.00000000000E+00 -0.00000000000E+00 -0.10316167835E+03  0.10316167835E+03  0.00000000000E+00 0. -1.
         -6    2    1    2    0  503 -0.25109463367E+03  0.72354411134E+02  0.22591601630E+03  0.38604124404E+03  0.17235463385E+03 0.  0.
        -24    2    3    3    0    0 -0.76829612241E+02 -0.10096985431E+02  0.13422492549E+03  0.17250933396E+03  0.75752235924E+02 0.  0.
          6    2    1    2  501    0  0.25109463367E+03 -0.72354411134E+02  0.10369871640E+04  0.10831852929E+04  0.17223334383E+03 0.  0.
         24    2    5    5    0    0  0.15509732781E+03 -0.73516512378E+02  0.87259218844E+03  0.89275254578E+03  0.78295095488E+02 0.  0.
          5    1    5    5  501    0  0.95997305862E+02  0.11621012438E+01  0.16439497554E+03  0.19043274717E+03  0.47000000000E+01 0. -1.
        -13    1    6    6    0    0  0.70025580917E+02 -0.11557288074E+02  0.51900257590E+03  0.52383282322E+03  0.00000000000E+00 0.  1.
         14    1    6    6    0    0  0.85071746891E+02 -0.61959224304E+02  0.35358961254E+03  0.36891972255E+03  0.00000000000E+00 0. -1.
         -5    1    3    3    0  503 -0.17426502143E+03  0.82451396566E+02  0.91691090815E+02  0.21353191008E+03  0.47000000000E+01 0.  1.
         11    1    4    4    0    0 -0.40728629621E+02 -0.36919356459E+02  0.39630172270E+02  0.67767327721E+02  0.00000000000E+00 0. -1.
        -12    1    4    4    0    0 -0.36100982620E+02  0.26822371028E+02  0.94594753219E+02  0.10474200624E+03  0.00000000000E+00 0.  1.
</event>
<event>
12    1  0.8563264E-002  0.3012007E+03  0.7818608E-02  0.1084651E+00
         21   -1    0    0  503  502  0.00000000000E+00  0.00000000000E+00  0.25915503826E+03  0.25915503826E+03  0.00000000000E+00 0. -1.
         21   -1    0    0  501  503 -0.00000000000E+00 -0.00000000000E+00 -0.45377171012E+03  0.45377171012E+03  0.00000000000E+00 0.  1.
          6    2    1    2  501    0 -0.40606237853E+02  0.24239665795E+03 -0.26777939779E+03  0.40296761325E+03  0.17398874996E+03 0.  0.
         24    2    3    3    0    0  0.30585723433E+01  0.59227762712E+02 -0.38524664305E+02  0.10625684052E+03  0.79303743018E+02 0.  0.
         -6    2    1    2    0  502  0.40606237853E+02 -0.24239665795E+03  0.73162725921E+02  0.30995913513E+03  0.17411741627E+03 0.  0.
        -24    2    5    5    0    0  0.27424243103E+02 -0.11493897701E+03  0.10484262859E+03  0.17787987238E+03  0.81769277122E+02 0.  0.
          5    1    3    3  501    0 -0.43664810196E+02  0.18316889524E+03 -0.22925473348E+03  0.29671077273E+03  0.47000000000E+01 0. -1.
        -13    1    4    4    0    0 -0.21127561154E+02 -0.10806298188E+02 -0.24749025544E+01  0.23859485817E+02  0.00000000000E+00 0.  1.
         14    1    4    4    0    0  0.24186133497E+02  0.70034060900E+02 -0.36049761750E+02  0.82397354702E+02  0.00000000000E+00 0. -1.
         -5    1    5    5    0  502  0.13181994750E+02 -0.12745768094E+03 -0.31679902670E+02  0.13207926276E+03  0.47000000000E+01 0.  1.
         11    1    6    6    0    0  0.83164465535E+01 -0.78217666173E+02  0.16572560208E+02  0.80385423658E+02  0.00000000000E+00 0. -1.
        -12    1    6    6    0    0  0.19107796549E+02 -0.36721310836E+02  0.88270068383E+02  0.97494448718E+02  0.00000000000E+00 0.  1.
</event>
<event>
12    1  0.8563264E-002  0.1821778E+03  0.7818608E-02  0.1166066E+00
         21   -1    0    0  501  502  0.00000000000E+00  0.00000000000E+00  0.21959282972E+04  0.21959282972E+04  0.00000000000E+00 0. -1.
         21   -1    0    0  502  503 -0.00000000000E+00 -0.00000000000E+00 -0.15952785751E+02  0.15952785751E+02  0.00000000000E+00 0.  1.
         -6    2    1    2    0  503 -0.39157637379E+02 -0.44671211573E+02  0.82264038698E+03  0.84257103059E+03  0.17222049122E+03 0.  0.
        -24    2    3    3    0    0  0.50155284402E+02 -0.21951457794E+02  0.46458083032E+03  0.47281202621E+03  0.68690939530E+02 0.  0.
          6    2    1    2  501    0  0.39157637379E+02  0.44671211573E+02  0.13573351245E+04  0.13693100524E+04  0.17065327908E+03 0.  0.
         24    2    5    5    0    0  0.36975758290E+02  0.70893903241E+02  0.62241182500E+03  0.63390082189E+03  0.89669503592E+02 0.  0.
          5    1    5    5  501    0  0.21818790896E+01 -0.26222691668E+02  0.73492329947E+03  0.73540923046E+03  0.47000000000E+01 0. -1.
        -13    1    6    6    0    0 -0.39878419983E+01  0.20401234003E+01 -0.16076956173E+01  0.47591672055E+01  0.00000000000E+00 0.  1.
         14    1    6    6    0    0  0.40963600288E+02  0.68853779841E+02  0.62401952062E+03  0.62914165469E+03  0.00000000000E+00 0. -1.
         -5    1    3    3    0  503 -0.89312921782E+02 -0.22719753779E+02  0.35805955665E+03  0.36975900438E+03  0.47000000000E+01 0.  1.
         11    1    4    4    0    0  0.25951176820E+02 -0.35429696834E+02  0.40176674820E+03  0.40415992745E+03  0.00000000000E+00 0. -1.
        -12    1    4    4    0    0  0.24204107582E+02  0.13478239040E+02  0.62814082117E+02  0.68652098757E+02  0.00000000000E+00 0.  1.
</event>
<event>
12    1  0.8563264E-002  0.2137329E+03  0.7818608E-02  0.1138668E+00
         21   -1    0    0  501  502  0.00000000000E+00  0.00000000000E+00  0.12362913542E+03  0.12362913542E+03  0.00000000000E+00 0. -1.
         21   -1    0    0  502  503 -0.00000000000E+00 -0.00000000000E+00 -0.37022927554E+03  0.37022927554E+03  0.00000000000E+00 0.  1.
         -6    2    1    2    0  503  0.63616147500E+02  0.10961875847E+03 -0.11078743475E+03  0.24062566231E+03  0.17194059216E+03 0.  0.
        -24    2    3    3    0    0  0.22656085636E+02  0.94464029282E+02 -0.14192842302E+03  0.18678103737E+03  0.72847289680E+02 0.  0.
          6    2    1    2  501    0 -0.63616147500E+02 -0.10961875847E+03 -0.13581270537E+03  0.25323274865E+03  0.17210010928E+03 0.  0.
         24    2    5    5    0    0 -0.95904349576E+02 -0.30927782350E+02 -0.89523779276E+02  0.15628145987E+03  0.79089921314E+02 0.  0.
          5    1    5    5  501    0  0.32288202076E+02 -0.78690976124E+02 -0.46288926098E+02  0.96951288779E+02  0.47000000000E+01 0. -1.
        -13    1    6    6    0    0 -0.85735368598E+01 -0.38668722940E+02 -0.36246708168E+02  0.53689845605E+02  0.00000000000E+00 0.  1.
         14    1    6    6    0    0 -0.87330812717E+02  0.77409405896E+01 -0.53277071109E+02  0.10259161426E+03  0.00000000000E+00 0. -1.
         -5    1    3    3    0  503  0.40960061864E+02  0.15154729192E+02  0.31140988274E+02  0.53844624945E+02  0.47000000000E+01 0.  1.
         11    1    4    4    0    0  0.21097416274E+02 -0.51877173875E+01 -0.27094019272E+02  0.34728939884E+02  0.00000000000E+00 0. -1.
        -12    1    4    4    0    0  0.15586693625E+01  0.99651746669E+02 -0.11483440375E+03  0.15205209748E+03  0.00000000000E+00 0.  1.
</event>
<event>
12    1  0.8563264E-002  0.1971979E+03  0.7818608E-02  0.1153375E+00
         21   -1    0    0  501  502  0.00000000000E+00  0.00000000000E+00  0.42757964414E+03  0.42757964414E+03  0.00000000000E+00 0. -1.
         21   -1    0    0  502  503 -0.00000000000E+00 -0.00000000000E+00 -0.92320707238E+02  0.92320707238E+02  0.00000000000E+00 0. -1.
         -6    2    1    2    0  503  0.53629809572E+02 -0.82161365636E+02  0.11119092594E+03  0.22141502029E+03  0.16442184381E+03 0.  0.
        -24    2    3    3    0    0  0.87930697593E+02 -0.19693552878E+02  0.72757001000E+02  0.14030993330E+03  0.79206392315E+02 0.  0.
          6    2    1    2  501    0 -0.53629809572E+02  0.82161365636E+02  0.22406801096E+03  0.29848533109E+03  0.17105663641E+03 0.  0.
         24    2    5    5    0    0 -0.90297257228E+01 -0.18951342774E+02  0.80855842751E+02  0.11753019188E+03  0.82673994442E+02 0.  0.
          5    1    5    5  501    0 -0.44600083850E+02  0.10111270841E+03  0.14321216821E+03  0.18095513921E+03  0.47000000000E+01 0. -1.
        -13    1    6    6    0    0  0.24771107996E+02 -0.17544463820E+02  0.77859752852E+02  0.83567679854E+02  0.00000000000E+00 0.  1.
         14    1    6    6    0    0 -0.33800833719E+02 -0.14068789539E+01  0.29960898993E+01  0.33962512027E+02  0.00000000000E+00 0. -1.
         -5    1    3    3    0  503 -0.34300888020E+02 -0.62467812758E+02  0.38433924939E+02  0.81105086992E+02  0.47000000000E+01 0.  1.
         11    1    4    4    0    0  0.34445217772E+02 -0.28525790135E+02 -0.55533641516E+01  0.45066989955E+02  0.00000000000E+00 0. -1.
        -12    1    4    4    0    0  0.53485479820E+02  0.88322372562E+01  0.78310365151E+02  0.95242943343E+02  0.00000000000E+00 0.  1.
</event>
<event>
12    1  0.8563264E-002  0.2194529E+03  0.7818608E-02  0.1134795E+00
         21   -1    0    0  501  502  0.00000000000E+00  0.00000000000E+00  0.18343395745E+03  0.18343395745E+03  0.00000000000E+00 0. -1.
         21   -1    0    0  502  503 -0.00000000000E+00 -0.00000000000E+00 -0.26272672873E+03  0.26272672873E+03  0.00000000000E+00 0. -1.
         -6    2    1    2    0  503  0.17174762732E+02  0.13654170994E+03 -0.64681445347E+02  0.22622192899E+03  0.16749346481E+03 0.  0.
        -24    2    3    3    0    0  0.51525237810E+02  0.13723591226E+03 -0.84348219670E+02  0.18635578963E+03  0.78264375168E+02 0.  0.
          6    2    1    2  501    0 -0.17174762732E+02 -0.13654170994E+03 -0.14611325926E+02  0.21993875719E+03  0.17094137896E+03 0.  0.
         24    2    5    5    0    0  0.47528149223E+00 -0.83796065542E+02  0.56417924085E+02  0.12960121559E+03  0.81187969754E+02 0.  0.
          5    1    5    5  501    0 -0.17650044224E+02 -0.52745644403E+02 -0.71029250011E+02  0.90337541597E+02  0.47000000000E+01 0. -1.
        -13    1    6    6    0    0  0.29649054953E+02 -0.30400906381E+02 -0.54660352743E+01  0.42815407390E+02  0.00000000000E+00 0.  1.
         14    1    6    6    0    0 -0.29173773461E+02 -0.53395159161E+02  0.61883959359E+02  0.86785808205E+02  0.00000000000E+00 0. -1.
         -5    1    3    3    0  503 -0.34350475077E+02 -0.69420231950E+00  0.19666774323E+02  0.39866139357E+02  0.47000000000E+01 0.  1.
         13    1    4    4    0    0 -0.10204410354E+02  0.56762047999E+02 -0.55856372104E+01  0.57941862473E+02  0.00000000000E+00 0. -1.
        -14    1    4    4    0    0  0.61729648163E+02  0.80473864265E+02 -0.78762582460E+02  0.12841392716E+03  0.00000000000E+00 0.  1.
</event>
<event>
12    1  0.8563264E-002  0.2133484E+03  0.7818608E-02  0.1140234E+00
         21   -1    0    0  503  502  0.00000000000E+00  0.00000000000E+00  0.11323680758E+03  0.11323680758E+03  0.00000000000E+00 0. -1.
         21   -1    0    0  501  503 -0.00000000000E+00 -0.00000000000E+00 -0.18309459140E+04  0.18309459140E+04  0.00000000000E+00 0. -1.
          6    2    1    2  501    0  0.11316177859E+03  0.54301189375E+01 -0.17184351764E+04  0.17308331281E+04  0.17299938549E+03 0.  0.
         24    2    3    3    0    0  0.13294710700E+03  0.45737330790E+02 -0.13174345435E+04  0.13272990798E+04  0.79512477332E+02 0.  0.
         -6    2    1    2    0  502 -0.11316177859E+03 -0.54301189375E+01  0.72607002677E+00  0.21334959347E+03  0.18078287400E+03 0.  0.
        -24    2    5    5    0    0 -0.35935583688E+02 -0.63102485016E+02  0.30710980547E+02  0.11229925034E+03  0.79966664994E+02 0.  0.
          5    1    3    3  501    0 -0.19785328409E+02 -0.40307211853E+02 -0.40100063292E+03  0.40353404832E+03  0.47000000000E+01 0. -1.
        -11    1    4    4    0    0  0.52573520870E+02  0.24585341711E+02 -0.25063433878E+03  0.25726637149E+03  0.00000000000E+00 0.  1.
         12    1    4    4    0    0  0.80373586127E+02  0.21151989079E+02 -0.10668002047E+04  0.10700327083E+04  0.00000000000E+00 0. -1.
         -5    1    5    5    0  502 -0.77226194900E+02  0.57672366078E+02 -0.29984910520E+02  0.10105034313E+03  0.47000000000E+01 0.  1.
         11    1    6    6    0    0 -0.38490660869E+02 -0.54727023540E+01  0.37744001469E+02  0.54185709297E+02  0.00000000000E+00 0. -1.
        -12    1    6    6    0    0  0.25550771809E+01 -0.57629782662E+02 -0.70330209220E+01  0.58113541041E+02  0.00000000000E+00 0.  1.
</event>
<event>
12    1  0.8563264E-002  0.2118650E+03  0.7818608E-02  0.1140222E+00
         21   -1    0    0  503  502  0.00000000000E+00  0.00000000000E+00  0.13947323728E+03  0.13947323728E+03  0.00000000000E+00 0.  1.
         21   -1    0    0  501  503 -0.00000000000E+00 -0.00000000000E+00 -0.44621282398E+03  0.44621282398E+03  0.00000000000E+00 0. -1.
          6    2    1    2  501    0  0.11125633021E+03  0.56282021977E+02  0.16729751110E+01  0.21187165077E+03  0.17129261672E+03 0.  0.
         24    2    3    3    0    0  0.98593943806E+02  0.79732820933E+02  0.49078280402E+02  0.15728567298E+03  0.79069696022E+02 0.  0.
         -6    2    1    2    0  502 -0.11125633021E+03 -0.56282021977E+02 -0.30841256180E+03  0.37381441050E+03  0.17050885082E+03 0.  0.
        -24    2    5    5    0    0 -0.46631346350E+02  0.65982918179E-01 -0.25790833042E+03  0.27419386250E+03  0.80567242227E+02 0.  0.
          5    1    3    3  501    0  0.12662386402E+02 -0.23450798956E+02 -0.47405305291E+02  0.54585977785E+02  0.47000000000E+01 0. -1.
        -11    1    4    4    0    0  0.88864662541E+02  0.58889572778E+02  0.68889699645E+02  0.12692793525E+03  0.00000000000E+00 0.  1.
         12    1    4    4    0    0  0.97292812654E+01  0.20843248155E+02 -0.19811419243E+02  0.30357737729E+02  0.00000000000E+00 0. -1.
         -5    1    5    5    0  502 -0.64624983858E+02 -0.56348004896E+02 -0.50504231388E+02  0.99620547993E+02  0.47000000000E+01 0.  1.
         11    1    6    6    0    0 -0.10355184693E+02 -0.37808067601E+02 -0.87081329873E+02  0.95497842060E+02  0.00000000000E+00 0. -1.
        -12    1    6    6    0    0 -0.36276161658E+02  0.37874050520E+02 -0.17082700054E+03  0.17869602044E+03  0.00000000000E+00 0.  1.
</event>
<event>
12    1  0.8563264E-002  0.2172799E+03  0.7818608E-02  0.1138746E+00
         21   -1    0    0  501  502  0.00000000000E+00  0.00000000000E+00  0.81819363417E+02  0.81819363417E+02  0.00000000000E+00 0.  1.
         21   -1    0    0  502  503 -0.00000000000E+00 -0.00000000000E+00 -0.54856295643E+03  0.54856295643E+03  0.00000000000E+00 0.  1.
         -6    2    1    2    0  503 -0.27916221873E+02 -0.12995382441E+03 -0.26593265338E+03  0.33451820201E+03  0.15334581644E+03 0.  0.
        -24    2    3    3    0    0 -0.94757712493E+01 -0.53248115276E+02 -0.50985814150E+02  0.10550281011E+03  0.74874145571E+02 0.  0.
          6    2    1    2  501    0  0.27916221873E+02  0.12995382441E+03 -0.20081093963E+03  0.29586411783E+03  0.17188144409E+03 0.  0.
         24    2    5    5    0    0  0.29903972392E+02  0.14221551245E+03 -0.21818969039E+03  0.27399150656E+03  0.79656168170E+02 0.  0.
          5    1    5    5  501    0 -0.19877505191E+01 -0.12261688040E+02  0.17378750763E+02  0.21872611271E+02  0.47000000000E+01 0. -1.
        -11    1    6    6    0    0  0.33324622243E+02  0.67063574262E+02 -0.50850789320E+02  0.90519921646E+02  0.00000000000E+00 0.  1.
         12    1    6    6    0    0 -0.34206498514E+01  0.75151938190E+02 -0.16733890107E+03  0.18347158491E+03  0.00000000000E+00 0. -1.
         -5    1    3    3    0  503 -0.18440450624E+02 -0.76705709136E+02 -0.21494683923E+03  0.22901539190E+03  0.47000000000E+01 0.  1.
         13    1    4    4    0    0 -0.43406948945E+01 -0.11485552585E+02  0.19716458743E+02  0.23227102612E+02  0.00000000000E+00 0. -1.
        -14    1    4    4    0    0 -0.51350763548E+01 -0.41762562691E+02 -0.70702272894E+02  0.82275707496E+02  0.00000000000E+00 0.  1.
</event>
<event>
12    1  0.8563264E-002  0.2312452E+03  0.7818608E-02  0.1126466E+00
         21   -1    0    0  501  502  0.00000000000E+00  0.00000000000E+00  0.72897244690E+02  0.72897244690E+02  0.00000000000E+00 0.  1.
         21   -1    0    0  502  503 -0.00000000000E+00 -0.00000000000E+00 -0.93780238474E+03  0.93780238474E+03  0.00000000000E+00 0.  1.
         -6    2    1    2    0  503  0.65284287458E+02 -0.13409129101E+03 -0.67253033334E+03  0.70989671718E+03  0.17150448183E+03 0.  0.
        -24    2    3    3    0    0 -0.16828298863E+02 -0.23138149324E+02 -0.32954892019E+03  0.34015164791E+03  0.79259618862E+02 0.  0.
          6    2    1    2  501    0 -0.65284287458E+02  0.13409129101E+03 -0.19237480671E+03  0.30080291225E+03  0.17672524791E+03 0.  0.
         24    2    5    5    0    0  0.13498202123E+02  0.12909393471E+03 -0.12995700191E+03  0.20005706077E+03  0.79287828692E+02 0.  0.
          5    1    5    5  501    0 -0.78782489581E+02  0.49973562979E+01 -0.62417804802E+02  0.10074585148E+03  0.47000000000E+01 0. -1.
        -13    1    6    6    0    0  0.25531351320E+01  0.83583927992E+02 -0.12839229094E+03  0.15322327464E+03  0.00000000000E+00 0.  1.
         14    1    6    6    0    0  0.10945066991E+02  0.45510006718E+02 -0.15647109675E+01  0.46833786131E+02  0.00000000000E+00 0. -1.
         -5    1    3    3    0  503  0.82112586322E+02 -0.11095314168E+03 -0.34298141315E+03  0.36974506927E+03  0.47000000000E+01 0.  1.
         11    1    4    4    0    0 -0.28645547820E+02  0.10285486997E+02 -0.51269306430E+02  0.59622985790E+02  0.00000000000E+00 0. -1.
        -12    1    4    4    0    0  0.11817248957E+02 -0.33423636321E+02 -0.27827961376E+03  0.28052866212E+03  0.00000000000E+00 0.  1.
</event>
<event>
12    1  0.8563264E-002  0.1831703E+03  0.7818608E-02  0.1164994E+00
         21   -1    0    0  501  502  0.00000000000E+00  0.00000000000E+00  0.38791481982E+03  0.38791481982E+03  0.00000000000E+00 0. -1.
         21   -1    0    0  502  503 -0.00000000000E+00 -0.00000000000E+00 -0.87660286450E+02  0.87660286450E+02  0.00000000000E+00 0. -1.
         -6    2    1    2    0  503 -0.22732360166E+02 -0.61265721130E+02  0.11747442004E+03  0.21680896291E+03  0.17010478609E+03 0.  0.
        -24    2    3    3    0    0 -0.25527801350E+01 -0.80734148431E+02  0.20135471846E+02  0.11540286868E+03  0.79924123167E+02 0.  0.
          6    2    1    2  501    0  0.22732360166E+02  0.61265721130E+02  0.18278011334E+03  0.25876614336E+03  0.17111720643E+03 0.  0.
         24    2    5    5    0    0  0.23465858623E+02 -0.31564946246E+02  0.61120964202E+02  0.10566124666E+03  0.76691162652E+02 0.  0.
          5    1    5    5  501    0 -0.73349845753E+00  0.92830667376E+02  0.12165914913E+03  0.15310489670E+03  0.47000000000E+01 0. -1.
        -11    1    6    6    0    0  0.50152606495E+02 -0.84691956415E+01  0.34636293252E+02  0.61536038411E+02  0.00000000000E+00 0.  1.
         12    1    6    6    0    0 -0.26686747871E+02 -0.23095750605E+02  0.26484670950E+02  0.44125208252E+02  0.00000000000E+00 0. -1.
         -5    1    3    3    0  503 -0.20179580031E+02  0.19468427301E+02  0.97338948190E+02  0.10140609423E+03  0.47000000000E+01 0.  1.
         13    1    4    4    0    0  0.60650501757E+01  0.11048444302E+02 -0.12363973614E+02  0.17655616632E+02  0.00000000000E+00 0. -1.
        -14    1    4    4    0    0 -0.86178303107E+01 -0.91782592733E+02  0.32499445460E+02  0.97747252049E+02  0.00000000000E+00 0.  1.
</event>
<event>
12    1  0.8563264E-002  0.2930801E+03  0.7818608E-02  0.1089107E+00
         21   -1    0    0  503  502  0.00000000000E+00  0.00000000000E+00  0.58788359027E+03  0.58788359027E+03  0.00000000000E+00 0. -1.
         21   -1    0    0  501  503 -0.00000000000E+00 -0.00000000000E+00 -0.19021807802E+03  0.19021807802E+03  0.00000000000E+00 0.  1.
          6    2    1    2  501    0  0.23449429043E+03 -0.32252606540E+02  0.93262955894E+01  0.29322842179E+03  0.17282397023E+03 0.  0.
         24    2    3    3    0    0  0.17549134231E+03  0.38356816303E+01 -0.52433739885E+02  0.20038390439E+03  0.81194140067E+02 0.  0.
         -6    2    1    2    0  502 -0.23449429043E+03  0.32252606540E+02  0.38833921667E+03  0.48487324650E+03  0.16812767499E+03 0.  0.
        -24    2    5    5    0    0 -0.15244982526E+03 -0.39136806243E+02  0.28512486686E+03  0.33486313175E+03  0.77874825698E+02 0.  0.
          5    1    3    3  501    0  0.59002948117E+02 -0.36088288170E+02  0.61760035474E+02  0.92844517400E+02  0.47000000000E+01 0. -1.
        -13    1    4    4    0    0  0.10729905853E+02  0.18867330000E+02 -0.24267192512E+02  0.32557697298E+02  0.00000000000E+00 0.  1.
         14    1    4    4    0    0  0.16476143646E+03 -0.15031648370E+02 -0.28166547373E+02  0.16782620709E+03  0.00000000000E+00 0. -1.
         -5    1    5    5    0  502 -0.82044465161E+02  0.71389412783E+02  0.10321434981E+03  0.15001011475E+03  0.47000000000E+01 0.  1.
         13    1    6    6    0    0 -0.80294953308E+02  0.18939216456E+02  0.14675397187E+03  0.16835290822E+03  0.00000000000E+00 0. -1.
        -14    1    6    6    0    0 -0.72154871957E+02 -0.58076022699E+02  0.13837089499E+03  0.16651022353E+03  0.00000000000E+00 0.  1.
</event>
<event>
12    1  0.8563264E-002  0.1848795E+03  0.7818608E-02  0.1166533E+00
         21   -1    0    0  501  502  0.00000000000E+00  0.00000000000E+00  0.16582050767E+03  0.16582050767E+03  0.00000000000E+00 0.  1.
         21   -1    0    0  502  503 -0.00000000000E+00 -0.00000000000E+00 -0.19478228083E+03  0.19478228083E+03  0.00000000000E+00 0.  1.
         -6    2    1    2    0  503 -0.70197209733E+02 -0.28532084499E+01  0.10109037723E+02  0.18515571423E+03  0.17101069211E+03 0.  0.
        -24    2    3    3    0    0 -0.12267791074E+02  0.77577529326E+01 -0.56113782991E+02  0.96409097215E+02  0.77040742182E+02 0.  0.
          6    2    1    2  501    0  0.70197209733E+02  0.28532084499E+01 -0.39070810879E+02  0.17544707427E+03  0.15594665292E+03 0.  0.
         24    2    5    5    0    0  0.17955580671E+02  0.39869700816E+02 -0.58920355220E+02  0.10824958232E+03  0.79588742251E+02 0.  0.
          5    1    5    5  501    0  0.52241629062E+02 -0.37016492366E+02  0.19849544341E+02  0.67197491952E+02  0.47000000000E+01 0. -1.
        -11    1    6    6    0    0  0.27414654837E+02  0.19665646931E+02  0.10498330935E+02  0.35334344786E+02  0.00000000000E+00 0.  1.
         12    1    6    6    0    0 -0.94590741656E+01  0.20204053885E+02 -0.69418686155E+02  0.72915237536E+02  0.00000000000E+00 0. -1.
         -5    1    3    3    0  503 -0.57929418659E+02 -0.10610961383E+02  0.66222820714E+02  0.88746617012E+02  0.47000000000E+01 0.  1.
         13    1    4    4    0    0  0.19775646936E+02 -0.23335788410E+02 -0.99022296625E+01  0.32151040182E+02  0.00000000000E+00 0. -1.
        -14    1    4    4    0    0 -0.32043438010E+02  0.31093541343E+02 -0.46211553328E+02  0.64258057034E+02  0.00000000000E+00 0.  1.
</event>
<event>
12    1  0.8563264E-002  0.1982673E+03  0.7818608E-02  0.1151218E+00
         21   -1    0    0  503  502  0.00000000000E+00  0.00000000000E+00  0.13242010425E+03  0.13242010425E+03  0.00000000000E+00 0.  1.
         21   -1    0    0  501  503 -0.00000000000E+00 -0.00000000000E+00 -0.42158491691E+03  0.42158491691E+03  0.00000000000E+00 0. -1.
          6    2    1    2  501    0 -0.93321693076E+02 -0.35724738418E+02 -0.29529887127E+03  0.35568433453E+03  0.17124464115E+03 0.  0.
         24    2    3    3    0    0 -0.81369747021E+02 -0.19533824860E+02 -0.84401885696E+02  0.14377722464E+03  0.80904919333E+02 0.  0.
         -6    2    1    2    0  502  0.93321693076E+02  0.35724738418E+02  0.61340586085E+01  0.19832068663E+03  0.17119659090E+03 0.  0.
        -24    2    5    5    0    0 -0.17063506004E+02  0.23054281354E+02 -0.37927374245E+01  0.86669157588E+02  0.81697581934E+02 0.  0.
          5    1    3    3  501    0 -0.11951946055E+02 -0.16190913558E+02 -0.21089698558E+03  0.21190710989E+03  0.47000000000E+01 0. -1.
        -13    1    4    4    0    0 -0.26609274386E+02  0.20833225257E+02  0.19443572048E+01  0.33850513776E+02  0.00000000000E+00 0.  1.
         14    1    4    4    0    0 -0.54760472634E+02 -0.40367050117E+02 -0.86346242901E+02  0.10992671086E+03  0.00000000000E+00 0. -1.
         -5    1    5    5    0  502  0.11038519908E+03  0.12670457064E+02  0.99267960331E+01  0.11165152904E+03  0.47000000000E+01 0.  1.
         13    1    6    6    0    0  0.21114623435E+02  0.20691384199E+02 -0.28555636458E+02  0.41102129828E+02  0.00000000000E+00 0. -1.
        -14    1    6    6    0    0 -0.38178129438E+02  0.23628971555E+01  0.24762899033E+02  0.45567027760E+02  0.00000000000E+00 0.  1.
</event>
<event>
12    1  0.8563264E-002  0.2573820E+03  0.7818608E-02  0.1109488E+00
         21   -1    0    0  503  502  0.00000000000E+00  0.00000000000E+00  0.38754639085E+02  0.38754639085E+02  0.00000000000E+00 0.  1.
         21   -1    0    0  501  503 -0.00000000000E+00 -0.00000000000E+00 -0.16779389384E+04  0.16779389384E+04  0.00000000000E+00 0. -1.
          6    2    1    2  501    0 -0.13082663817E+03 -0.14218579631E+03 -0.83569038226E+03  0.87298273828E+03  0.16244394852E+03 0.  0.
         24    2    3    3    0    0 -0.11387310870E+03 -0.13905571254E+03 -0.49553915112E+03  0.53236246638E+03  0.74479320902E+02 0.  0.
         -6    2    1    2    0  502  0.13082663817E+03  0.14218579631E+03 -0.80349391703E+03  0.84371083918E+03  0.17003851184E+03 0.  0.
        -24    2    5    5    0    0  0.11444037105E+03  0.32533884061E+02 -0.44289361042E+03  0.46642219273E+03  0.85087364401E+02 0.  0.
          5    1    3    3  501    0 -0.16953529473E+02 -0.31300837725E+01 -0.34015123114E+03  0.34062027190E+03  0.47000000000E+01 0. -1.
        -13    1    4    4    0    0 -0.76035333716E+02 -0.99442714782E+02 -0.42498910763E+03  0.44304172162E+03  0.00000000000E+00 0.  1.
         14    1    4    4    0    0 -0.37837774984E+02 -0.39612997758E+02 -0.70550043494E+02  0.89320744758E+02  0.00000000000E+00 0. -1.
         -5    1    5    5    0  502  0.16386267123E+02  0.10965191225E+03 -0.36060030662E+03  0.37728864645E+03  0.47000000000E+01 0.  1.
         11    1    6    6    0    0  0.46708989143E+02  0.57233582193E+02 -0.23909343011E+03  0.25024604077E+03  0.00000000000E+00 0. -1.
        -12    1    6    6    0    0  0.67731381908E+02 -0.24699698132E+02 -0.20380018030E+03  0.21617615196E+03  0.00000000000E+00 0.  1.
</event>
<event>
12    1  0.8563264E-002  0.2166071E+03  0.7818608E-02  0.1136532E+00
         21   -1    0    0  501  502  0.00000000000E+00  0.00000000000E+00  0.18887848709E+04  0.18887848709E+04  0.00000000000E+00 0.  1.
         21   -1    0    0  502  503 -0.00000000000E+00 -0.00000000000E+00 -0.25194972220E+02  0.25194972220E+02  0.00000000000E+00 0. -1.
         -6    2    1    2    0  503  0.13058672006E+03 -0.18075204073E+02  0.10529513574E+04  0.10749008982E+04  0.17124770192E+03 0.  0.
        -24    2    3    3    0    0  0.56251138307E+02 -0.17174217446E+02  0.25821855960E+03  0.27668482444E+03  0.80115686648E+02 0.  0.
          6    2    1    2  501    0 -0.13058672006E+03  0.18075204073E+02  0.81063854125E+03  0.83907894490E+03  0.17186921411E+03 0.  0.
         24    2    5    5    0    0 -0.77349590843E+02  0.49832694028E+02  0.28777040770E+03  0.31252799278E+03  0.79973008742E+02 0.  0.
          5    1    5    5  501    0 -0.53237129219E+02 -0.31757489955E+02  0.52286813355E+03  0.52655095212E+03  0.47000000000E+01 0. -1.
        -13    1    6    6    0    0 -0.67474998389E+01  0.14984643990E+02  0.25382232707E+01  0.16628616508E+02  0.00000000000E+00 0.  1.
         14    1    6    6    0    0 -0.70602091004E+02  0.34848050037E+02  0.28523218443E+03  0.29589937627E+03  0.00000000000E+00 0. -1.
         -5    1    3    3    0  503  0.74335581755E+02 -0.90098662666E+00  0.79473279779E+03  0.79821607374E+03  0.47000000000E+01 0.  1.
         11    1    4    4    0    0  0.51394462104E+02 -0.43916640463E+02  0.21720989355E+03  0.22748670268E+03  0.00000000000E+00 0. -1.
        -12    1    4    4    0    0  0.48566762032E+01  0.26742423016E+02  0.41008666056E+02  0.49198121755E+02  0.00000000000E+00 0.  1.
</event>
<event>
12    1  0.8563264E-002  0.1899158E+03  0.7818608E-02  0.1158703E+00
         21   -1    0    0  503  502  0.00000000000E+00  0.00000000000E+00  0.68746810507E+03  0.68746810507E+03  0.00000000000E+00 0.  1.
         21   -1    0    0  501  503 -0.00000000000E+00 -0.00000000000E+00 -0.99843630169E+02  0.99843630169E+02  0.00000000000E+00 0.  1.
          6    2    1    2  501    0  0.29357966862E+02 -0.73974983868E+02  0.22358005968E+02  0.19122737176E+03  0.17243502783E+03 0.  0.
         24    2    3    3    0    0  0.61395185119E+02  0.88364613877E+01  0.10195938019E+02  0.10148259633E+03  0.79669996868E+02 0.  0.
         -6    2    1    2    0  502 -0.29357966862E+02  0.73974983868E+02  0.56526646893E+03  0.59608436348E+03  0.17162808346E+03 0.  0.
        -24    2    5    5    0    0  0.78422166677E+01  0.24360750871E+02  0.11834892972E+03  0.14486069098E+03  0.79518576949E+02 0.  0.
          5    1    3    3  501    0 -0.32037218256E+02 -0.82811445255E+02  0.12162067948E+02  0.89744775423E+02  0.47000000000E+01 0. -1.
        -11    1    4    4    0    0  0.26281825977E+02 -0.25522052195E+02 -0.22011856096E+02  0.42739107779E+02  0.00000000000E+00 0.  1.
         12    1    4    4    0    0  0.35113359141E+02  0.34358513583E+02  0.32207794115E+02  0.58743488555E+02  0.00000000000E+00 0. -1.
         -5    1    5    5    0  502 -0.37200183530E+02  0.49614232997E+02  0.44691753921E+03  0.45122367250E+03  0.47000000000E+01 0.  1.
         13    1    6    6    0    0  0.17908541254E+02  0.43562286075E+02  0.34844565427E+02  0.58587817485E+02  0.00000000000E+00 0. -1.
        -14    1    6    6    0    0 -0.10066324587E+02 -0.19201535204E+02  0.83504364296E+02  0.86272873497E+02  0.00000000000E+00 0.  1.
</event>
<event>
12    1  0.8563264E-002  0.2608760E+03  0.7818608E-02  0.1106624E+00
         21   -1    0    0  503  502  0.00000000000E+00  0.00000000000E+00  0.12897234755E+03  0.12897234755E+03  0.00000000000E+00 0.  1.
         21   -1    0    0  501  503 -0.00000000000E+00 -0.00000000000E+00 -0.53158129311E+03  0.53158129311E+03  0.00000000000E+00 0. -1.
          6    2    1    2  501    0 -0.99513670489E+02  0.16904074831E+03 -0.17269705944E+03  0.31282416863E+03  0.17192132195E+03 0.  0.
         24    2    3    3    0    0 -0.80026608155E+02  0.55741017986E+02 -0.30026233778E+02  0.12953852003E+03  0.79795578563E+02 0.  0.
         -6    2    1    2    0  502  0.99513670489E+02 -0.16904074831E+03 -0.22991188613E+03  0.34772947203E+03  0.17198420024E+03 0.  0.
        -24    2    5    5    0    0 -0.52093625406E+01 -0.77267535557E+02 -0.15123451260E+03  0.18772492418E+03  0.79820798359E+02 0.  0.
          5    1    3    3  501    0 -0.19487062335E+02  0.11329973032E+03 -0.14267082566E+03  0.18328564860E+03  0.47000000000E+01 0. -1.
        -13    1    4    4    0    0 -0.80395649912E+02  0.62294554726E+02 -0.46480328610E+02  0.11182349047E+03  0.00000000000E+00 0.  1.
         14    1    4    4    0    0  0.36904175753E+00 -0.65535367406E+01  0.16454094831E+02  0.17715029561E+02  0.00000000000E+00 0. -1.
         -5    1    5    5    0  502  0.10472303303E+03 -0.91773212748E+02 -0.78677373530E+02  0.16000454784E+03  0.47000000000E+01 0.  1.
         13    1    6    6    0    0 -0.28014454669E+02 -0.83047367904E+02 -0.11704678903E+03  0.14622457320E+03  0.00000000000E+00 0. -1.
        -14    1    6    6    0    0  0.22805092128E+02  0.57798323470E+01 -0.34187723571E+02  0.41500350985E+02  0.00000000000E+00 0.  1.
</event>
<event>
12    1  0.8563264E-002  0.2686341E+03  0.7818608E-02  0.1102173E+00
         21   -1    0    0  503  502  0.00000000000E+00  0.00000000000E+00  0.47376478824E+02  0.47376478824E+02  0.00000000000E+00 0.  1.
         21   -1    0    0  501  503 -0.00000000000E+00 -0.00000000000E+00 -0.16362263196E+04  0.16362263196E+04  0.00000000000E+00 0.  1.
          6    2    1    2  501    0 -0.15627238355E+03 -0.13419977609E+03 -0.10187912618E+04  0.10534194214E+04  0.17124895477E+03 0.  0.
         24    2    3    3    0    0 -0.15052912616E+03 -0.15727400286E+03 -0.98436634755E+03  0.10113175252E+04  0.79949363398E+02 0.  0.
         -6    2    1    2    0  502  0.15627238355E+03  0.13419977609E+03 -0.57005857893E+03  0.63018337697E+03  0.17243453088E+03 0.  0.
        -24    2    5    5    0    0  0.16308541889E+03  0.10879282339E+03 -0.56429672503E+03  0.60284805813E+03  0.81007746753E+02 0.  0.
          5    1    3    3  501    0 -0.57432573964E+01  0.23074226774E+02 -0.34424914283E+02  0.42101896277E+02  0.47000000000E+01 0. -1.
        -11    1    4    4    0    0 -0.12572283108E+03 -0.90020918531E+02 -0.56074738897E+03  0.58167656843E+03  0.00000000000E+00 0.  1.
         12    1    4    4    0    0 -0.24806295074E+02 -0.67253084332E+02 -0.42361895858E+03  0.42964095673E+03  0.00000000000E+00 0. -1.
         -5    1    5    5    0  502 -0.68130353360E+01  0.25406952700E+02 -0.57618538994E+01  0.27335318845E+02  0.47000000000E+01 0.  1.
         11    1    6    6    0    0  0.24254644419E+02  0.52286913870E+02 -0.10592747017E+03  0.12059369003E+03  0.00000000000E+00 0. -1.
        -12    1    6    6    0    0  0.13883077447E+03  0.56505909519E+02 -0.45836925486E+03  0.48225436810E+03  0.00000000000E+00 0.  1.
</event>
<event>
12    1  0.8563264E-002  0.2606725E+03  0.7818608E-02  0.1107735E+00
         21   -1    0    0  503  502  0.00000000000E+00  0.00000000000E+00  0.22502639564E+03  0.22502639564E+03  0.00000000000E+00 0. -1.
         21   -1    0    0  501  503 -0.00000000000E+00 -0.00000000000E+00 -0.30137655286E+03  0.30137655286E+03  0.00000000000E+00 0. -1.
          6    2    1    2  501    0 -0.88152402271E+02  0.17482041377E+03 -0.78652154312E+02  0.27227987348E+03  0.17209632485E+03 0.  0.
         24    2    3    3    0    0 -0.83818252439E+02  0.19384315693E+03 -0.96071900233E+02  0.24570569128E+03  0.80875260621E+02 0.  0.
         -6    2    1    2    0  502  0.88152402271E+02 -0.17482041377E+03  0.23019970921E+01  0.25412307502E+03  0.16198831739E+03 0.  0.
        -24    2    5    5    0    0  0.48916889446E+02 -0.19127523732E+03  0.82841642764E+01  0.21090198053E+03  0.73701692849E+02 0.  0.
          5    1    3    3  501    0 -0.43341498318E+01 -0.19022743157E+02  0.17419745921E+02  0.26574182206E+02  0.47000000000E+01 0. -1.
        -11    1    4    4    0    0 -0.36637920948E+02  0.14670928011E+03 -0.34857293809E+02  0.15518047897E+03  0.00000000000E+00 0.  1.
         12    1    4    4    0    0 -0.47180331492E+02  0.47133876825E+02 -0.61214606424E+02  0.90525212310E+02  0.00000000000E+00 0. -1.
         -5    1    5    5    0  502  0.39235512825E+02  0.16454823548E+02 -0.59821671844E+01  0.43221094490E+02  0.47000000000E+01 0.  1.
         13    1    6    6    0    0  0.56141594319E+02 -0.74988484986E+02 -0.38913303782E+01  0.93756567479E+02  0.00000000000E+00 0. -1.
        -14    1    6    6    0    0 -0.72247048738E+01 -0.11628675234E+03  0.12175494655E+02  0.11714541305E+03  0.00000000000E+00 0.  1.
</event>
<event>
12    1  0.8563264E-002  0.3100653E+03  0.7818608E-02  0.1080579E+00
         21   -1    0    0  503  502  0.00000000000E+00  0.00000000000E+00  0.24048683464E+03  0.24048683464E+03  0.00000000000E+00 0. -1.
         21   -1    0    0  501  503 -0.00000000000E+00 -0.00000000000E+00 -0.15586486810E+04  0.15586486810E+04  0.00000000000E+00 0.  1.
          6    2    1    2  501    0  0.99069965386E+02 -0.23814996310E+03 -0.14351002338E+04  0.14677519427E+04  0.16808575561E+03 0.  0.
         24    2    3    3    0    0  0.96788997479E+02 -0.15849267157E+03 -0.12462234530E+04  0.12626982540E+04  0.82740249780E+02 0.  0.
         -6    2    1    2    0  502 -0.99069965386E+02  0.23814996310E+03  0.11693838745E+03  0.33138357294E+03  0.17207621274E+03 0.  0.
        -24    2    5    5    0    0 -0.47071401118E+02  0.35899735101E+02  0.22787928315E+02  0.10226481691E+03  0.80214059349E+02 0.  0.
          5    1    3    3  501    0  0.22809679065E+01 -0.79657291528E+02 -0.18887678079E+03  0.20505368865E+03  0.47000000000E+01 0. -1.
        -11    1    4    4    0    0  0.48977796159E+02 -0.82209065246E+02 -0.89573013885E+03  0.90082719573E+03  0.00000000000E+00 0.  1.
         12    1    4    4    0    0  0.47811201320E+02 -0.76283606326E+02 -0.35049331413E+03  0.36187105827E+03  0.00000000000E+00 0. -1.
         -5    1    5    5    0  502 -0.51998564268E+02  0.20225022800E+03  0.94150459131E+02  0.22911875603E+03  0.47000000000E+01 0.  1.
         13    1    6    6    0    0 -0.28992276223E+01  0.46189009033E+02  0.31630181851E+02  0.56056208221E+02  0.00000000000E+00 0. -1.
        -14    1    6    6    0    0 -0.44172173495E+02 -0.10289273932E+02 -0.88422535359E+01  0.46208608689E+02  0.00000000000E+00 0.  1.
</event>
<event>
12    1  0.8563264E-002  0.1897622E+03  0.7818608E-02  0.1159099E+00
         21   -1    0    0  501  502  0.00000000000E+00  0.00000000000E+00  0.25578894168E+03  0.25578894168E+03  0.00000000000E+00 0. -1.
         21   -1    0    0  502  503 -0.00000000000E+00 -0.00000000000E+00 -0.14514001494E+03  0.14514001494E+03  0.00000000000E+00 0.  1.
         -6    2    1    2    0  503  0.75674661796E+02  0.63467272487E+01  0.15717995622E+02  0.19041205920E+03  0.17390446089E+03 0.  0.
        -24    2    3    3    0    0 -0.21227354013E+02 -0.16586969079E+01  0.39424421226E+02  0.90221380493E+02  0.78308752226E+02 0.  0.
          6    2    1    2  501    0 -0.75674661796E+02 -0.63467272487E+01  0.94930931117E+02  0.21051689742E+03  0.17186781848E+03 0.  0.
         24    2    5    5    0    0 -0.40655093938E+02  0.51222998064E+02  0.12983803063E+02  0.10431866202E+03  0.80231988069E+02 0.  0.
          5    1    5    5  501    0 -0.35019567859E+02 -0.57569725313E+02  0.81947128053E+02  0.10619823540E+03  0.47000000000E+01 0. -1.
        -13    1    6    6    0    0 -0.96237533694E+01  0.35682200320E+01 -0.30853489846E+02  0.32515944685E+02  0.00000000000E+00 0.  1.
         14    1    6    6    0    0 -0.31031340568E+02  0.47654778032E+02  0.43837292909E+02  0.71802717333E+02  0.00000000000E+00 0. -1.
         -5    1    3    3    0  503  0.96902015810E+02  0.80054241566E+01 -0.23706425604E+02  0.10019067870E+03  0.47000000000E+01 0.  1.
         11    1    4    4    0    0  0.25511292355E+02  0.87851434357E+01 -0.17852959929E+01  0.27040563319E+02  0.00000000000E+00 0. -1.
        -12    1    4    4    0    0 -0.46738646369E+02 -0.10443840344E+02  0.41209717219E+02  0.63180817174E+02  0.00000000000E+00 0.  1.
</event>
<event>
12    1  0.8563264E-002  0.1920164E+03  0.7818608E-02  0.1156718E+00
         21   -1    0    0  501  502  0.00000000000E+00  0.00000000000E+00  0.58786686869E+03  0.58786686869E+03  0.00000000000E+00 0. -1.
         21   -1    0    0  502  503 -0.00000000000E+00 -0.00000000000E+00 -0.65452249928E+02  0.65452249928E+02  0.00000000000E+00 0.  1.
         -6    2    1    2    0  503  0.67135424534E+02 -0.53096731492E+02  0.32888877822E+03  0.38069746952E+03  0.17157012193E+03 0.  0.
        -24    2    3    3    0    0  0.28020363764E+02  0.37849459905E+02  0.18365302188E+03  0.20486598023E+03  0.77613884118E+02 0.  0.
          6    2    1    2  501    0 -0.67135424534E+02  0.53096731492E+02  0.19352584054E+03  0.27262164910E+03  0.17188334555E+03 0.  0.
         24    2    5    5    0    0 -0.21435704276E+02  0.92717009206E+02  0.17134475353E+03  0.20802813968E+03  0.69719072871E+02 0.  0.
          5    1    5    5  501    0 -0.45699720258E+02 -0.39620277714E+02  0.22181087011E+02  0.64593509417E+02  0.47000000000E+01 0. -1.
        -11    1    6    6    0    0 -0.45428288376E+02  0.57341468282E+02  0.88631713329E+02  0.11492325255E+03  0.00000000000E+00 0.  1.
         12    1    6    6    0    0  0.23992584101E+02  0.35375540924E+02  0.82713040205E+02  0.93104887130E+02  0.00000000000E+00 0. -1.
         -5    1    3    3    0  503  0.39115060769E+02 -0.90946191397E+02  0.14523575633E+03  0.17583148929E+03  0.47000000000E+01 0.  1.
         13    1    4    4    0    0  0.75306731920E+01 -0.19454157402E+02  0.95468119352E+02  0.97720709635E+02  0.00000000000E+00 0. -1.
        -14    1    4    4    0    0  0.20489690572E+02  0.57303617307E+02  0.88184902529E+02  0.10714527059E+03  0.00000000000E+00 0.  1.
</event>
<event>
12    1  0.8563264E-002  0.1899612E+03  0.7818608E-02  0.1160414E+00
         21   -1    0    0  503  502  0.00000000000E+00  0.00000000000E+00  0.11210790203E+04  0.11210790203E+04  0.00000000000E+00 0. -1.
         21   -1    0    0  501  503 -0.00000000000E+00 -0.00000000000E+00 -0.33576033240E+02  0.33576033240E+02  0.00000000000E+00 0. -1.
          6    2    1    2  501    0  0.52049437933E+02  0.32898701557E+02  0.69867085626E+03  0.72190142674E+03  0.17090709755E+03 0.  0.
         24    2    3    3    0    0  0.91502768446E+02 -0.93402537633E+01  0.50578304393E+03  0.52048520897E+03  0.81414791398E+02 0.  0.
         -6    2    1    2    0  502 -0.52049437933E+02 -0.32898701557E+02  0.38883213084E+03  0.43275362684E+03  0.17970477738E+03 0.  0.
        -24    2    5    5    0    0  0.21132565206E+02 -0.61773233060E+02  0.16077377099E+03  0.19146117016E+03  0.80911412081E+02 0.  0.
          5    1    3    3  501    0 -0.39453330513E+02  0.42238955320E+02  0.19288781233E+03  0.20141621777E+03  0.47000000000E+01 0. -1.
        -13    1    4    4    0    0  0.35173958726E+02  0.28011014790E+02  0.10776605180E+03  0.11677048532E+03  0.00000000000E+00 0.  1.
         14    1    4    4    0    0  0.56328809720E+02 -0.37351268554E+02  0.39801699213E+03  0.40371472365E+03  0.00000000000E+00 0. -1.
         -5    1    5    5    0  502 -0.73182003139E+02  0.28874531503E+02  0.22805835985E+03  0.24129245668E+03  0.47000000000E+01 0.  1.
         13    1    6    6    0    0 -0.75147322046E+01  0.13363978892E+02  0.49484871287E+01  0.16110700072E+02  0.00000000000E+00 0. -1.
        -14    1    6    6    0    0  0.28647297410E+02 -0.75137211953E+02  0.15582528386E+03  0.17535047008E+03  0.00000000000E+00 0.  1.
</event>
<event>
12    1  0.8563264E-002  0.1947009E+03  0.7818608E-02  0.1154528E+00
         21   -1    0    0  503  502  0.00000000000E+00  0.00000000000E+00  0.12641008115E+03  0.12641008115E+03  0.00000000000E+00 0. -1.
         21   -1    0    0  501  503 -0.00000000000E+00 -0.00000000000E+00 -0.32534989755E+03  0.32534989755E+03  0.00000000000E+00 0. -1.
          6    2    1    2  501    0  0.44925848766E+02  0.76952973609E+02 -0.16497213605E+03  0.25519451527E+03  0.17311367050E+03 0.  0.
         24    2    3    3    0    0  0.76929347689E+02  0.82051253493E+01 -0.13149777010E+03  0.17216973728E+03  0.79782869575E+02 0.  0.
         -6    2    1    2    0  502 -0.44925848766E+02 -0.76952973609E+02 -0.33967680344E+02  0.19656546342E+03  0.17188393197E+03 0.  0.
        -24    2    5    5    0    0 -0.50838033531E+02 -0.95431707843E+02  0.22870945095E+02  0.13632314533E+03  0.79807288564E+02 0.  0.
          5    1    3    3  501    0 -0.32003498923E+02  0.68747848260E+02 -0.33474365955E+02  0.83024777987E+02  0.47000000000E+01 0. -1.
        -11    1    4    4    0    0 -0.14243211415E+02 -0.33455892969E+01 -0.43073310505E+01  0.15251725801E+02  0.00000000000E+00 0.  1.
         12    1    4    4    0    0  0.91172559103E+02  0.11550714646E+02 -0.12719043905E+03  0.15691801148E+03  0.00000000000E+00 0. -1.
         -5    1    5    5    0  502  0.59121847644E+01  0.18478734233E+02 -0.56838625439E+02  0.60242318094E+02  0.47000000000E+01 0.  1.
         11    1    6    6    0    0 -0.68853096133E+02 -0.90237957265E+02  0.10786938813E+02  0.11401752421E+03  0.00000000000E+00 0. -1.
        -12    1    6    6    0    0  0.18015062602E+02 -0.51937505776E+01  0.12084006282E+02  0.22305621118E+02  0.00000000000E+00 0.  1.
</event>
<event>
12    1  0.8563264E-002  0.1851284E+03  0.7818608E-02  0.1163276E+00
         21   -1    0    0  503  502  0.00000000000E+00  0.00000000000E+00  0.48666245266E+02  0.48666245266E+02  0.00000000000E+00 0.  1.
         21   -1    0    0  501  503 -0.00000000000E+00 -0.00000000000E+00 -0.17048620553E+04  0.17048620553E+04  0.00000000000E+00 0.  1.
          6    2    1    2  501    0 -0.10265528897E+02  0.65813535395E+02 -0.15003139811E+04  0.15115124596E+04  0.17114634410E+03 0.  0.
         24    2    3    3    0    0  0.37844325963E+01  0.10859260307E+03 -0.12342622569E+04  0.12416364510E+04  0.80318630107E+02 0.  0.
         -6    2    1    2    0  502  0.10265528897E+02 -0.65813535395E+02 -0.15588182893E+03  0.24201584097E+03  0.17273019471E+03 0.  0.
        -24    2    5    5    0    0  0.45786528869E+02 -0.40568207330E+02 -0.23591250165E+02  0.10265316570E+03  0.78986958873E+02 0.  0.
          5    1    3    3  501    0 -0.14049961493E+02 -0.42779067677E+02 -0.26605172417E+03  0.26987600854E+03  0.47000000000E+01 0. -1.
        -11    1    4    4    0    0 -0.31038402013E+02  0.90834888286E+02 -0.89074288947E+03  0.89590024806E+03  0.00000000000E+00 0.  1.
         12    1    4    4    0    0  0.34822834609E+02  0.17757714786E+02 -0.34351936742E+03  0.34573620296E+03  0.00000000000E+00 0. -1.
         -5    1    5    5    0  502 -0.35520999972E+02 -0.25245328065E+02 -0.13229057877E+03  0.13936267527E+03  0.47000000000E+01 0.  1.
         13    1    6    6    0    0 -0.49652746364E+00  0.20085100083E+02 -0.16557042500E+02  0.26034466409E+02  0.00000000000E+00 0. -1.
        -14    1    6    6    0    0  0.46283056332E+02 -0.60653307413E+02 -0.70342076657E+01  0.76618699291E+02  0.00000000000E+00 0.  1.
</event>
<event>
12    1  0.8563264E-002  0.1919631E+03  0.7818608E-02  0.1158213E+00
         21   -1    0    0  503  502  0.00000000000E+00  0.00000000000E+00  0.56070383215E+03  0.56070383215E+03  0.00000000000E+00 0.  1.
         21   -1    0    0  501  503 -0.00000000000E+00 -0.00000000000E+00 -0.10396668425E+03  0.10396668425E+03  0.00000000000E+00 0.  1.
          6    2    1    2  501    0  0.72396104007E+02 -0.43322882011E+02  0.23408023826E+02  0.19338500185E+03  0.17242898648E+03 0.  0.
         24    2    3    3    0    0  0.20652486295E+02 -0.20997107821E+02  0.78206155057E+02  0.11464005056E+03  0.78477606846E+02 0.  0.
         -6    2    1    2    0  502 -0.72396104007E+02  0.43322882011E+02  0.43332912407E+03  0.47128551455E+03  0.16497829699E+03 0.  0.
        -24    2    5    5    0    0 -0.79894968683E+02 -0.23971464759E+02  0.30851807275E+03  0.32921281974E+03  0.78992672609E+02 0.  0.
          5    1    3    3  501    0  0.51743617712E+02 -0.22325774190E+02 -0.54798131231E+02  0.78744951289E+02  0.47000000000E+01 0. -1.
        -11    1    4    4    0    0  0.12933918040E+02 -0.48441095407E+02  0.29412817362E+02  0.58128648576E+02  0.00000000000E+00 0.  1.
         12    1    4    4    0    0  0.77185682554E+01  0.27443987587E+02  0.48793337695E+02  0.56511401982E+02  0.00000000000E+00 0. -1.
         -5    1    5    5    0  502  0.74988646754E+01  0.67294346770E+02  0.12481105133E+03  0.14207269481E+03  0.47000000000E+01 0.  1.
         11    1    6    6    0    0 -0.46141060944E+02 -0.17995716161E+02  0.57601673606E+02  0.75965756149E+02  0.00000000000E+00 0. -1.
        -12    1    6    6    0    0 -0.33753907739E+02 -0.59757485972E+01  0.25091639914E+03  0.25324706359E+03  0.00000000000E+00 0.  1.
</event>
<event>
12    1  0.8563264E-002  0.1745613E+03  0.7818608E-02  0.1173466E+00
         21   -1    0    0  503  502  0.00000000000E+00  0.00000000000E+00  0.31977586948E+03  0.31977586948E+03  0.00000000000E+00 0. -1.
         21   -1    0    0  501  503 -0.00000000000E+00 -0.00000000000E+00 -0.15808475388E+03  0.15808475388E+03  0.00000000000E+00 0. -1.
          6    2    1    2  501    0 -0.58362100984E+01  0.27446869175E+02 -0.70657503773E+02  0.18724484408E+03  0.17111620852E+03 0.  0.
         24    2    3    3    0    0  0.97043441191E+01 -0.74799968681E+00  0.25930144312E+02  0.85324663457E+02  0.80704349398E+02 0.  0.
         -6    2    1    2    0  502  0.58362100984E+01 -0.27446869175E+02  0.23234861937E+03  0.29061577929E+03  0.17229120195E+03 0.  0.
        -24    2    5    5    0    0 -0.42422027579E+02 -0.38804992772E+02  0.21675497122E+03  0.23843229207E+03  0.81004842233E+02 0.  0.
          5    1    3    3  501    0 -0.15540554218E+02  0.28194868861E+02 -0.96587648084E+02  0.10192018062E+03  0.47000000000E+01 0. -1.
        -11    1    4    4    0    0  0.34910758722E+02  0.26665458618E+02  0.16330013491E+02  0.46866588295E+02  0.00000000000E+00 0.  1.
         12    1    4    4    0    0 -0.25206414602E+02 -0.27413458305E+02  0.96001308204E+01  0.38458075161E+02  0.00000000000E+00 0. -1.
         -5    1    5    5    0  502  0.48258237678E+02  0.11358123598E+02  0.15593648153E+02  0.52183487217E+02  0.47000000000E+01 0.  1.
         13    1    6    6    0    0  0.17007863043E+02 -0.29563747833E+02  0.45092697632E+02  0.56538782892E+02  0.00000000000E+00 0. -1.
        -14    1    6    6    0    0 -0.59429890623E+02 -0.92412449391E+01  0.17166227359E+03  0.18189350918E+03  0.00000000000E+00 0.  1.
</event>
<event>
12    1  0.8563264E-002  0.1843183E+03  0.7818608E-02  0.1163995E+00
         21   -1    0    0  501  502  0.00000000000E+00  0.00000000000E+00  0.34013445135E+03  0.34013445135E+03  0.00000000000E+00 0.  1.
         21   -1    0    0  502  503 -0.00000000000E+00 -0.00000000000E+00 -0.48051146842E+03  0.48051146842E+03  0.00000000000E+00 0.  1.
         -6    2    1    2    0  503  0.24491062087E+02 -0.62674899946E+02 -0.43577250474E+03  0.47314997526E+03  0.17159623539E+03 0.  0.
        -24    2    3    3    0    0 -0.11292257012E+02 -0.83353739879E+02 -0.17132827893E+03  0.20545444128E+03  0.76044639938E+02 0.  0.
          6    2    1    2  501    0 -0.24491062087E+02  0.62674899946E+02  0.29539548768E+03  0.34749594450E+03  0.17019689216E+03 0.  0.
         24    2    5    5    0    0  0.29137911128E+02  0.16227954957E+02  0.24626805577E+03  0.26107268356E+03  0.79991414663E+02 0.  0.
          5    1    5    5  501    0 -0.53628973215E+02  0.46446944989E+02  0.49127431909E+02  0.86423260948E+02  0.47000000000E+01 0. -1.
        -13    1    6    6    0    0  0.70292745651E+00  0.45664214988E+02  0.13506940656E+03  0.14258141262E+03  0.00000000000E+00 0.  1.
         14    1    6    6    0    0  0.28434983672E+02 -0.29436260031E+02  0.11119864921E+03  0.11849127093E+03  0.00000000000E+00 0. -1.
         -5    1    3    3    0  503  0.35783319099E+02  0.20678839933E+02 -0.26444422581E+03  0.26769553398E+03  0.47000000000E+01 0.  1.
         11    1    4    4    0    0  0.68621376243E+01 -0.90061248367E+02 -0.15786735718E+03  0.18187968510E+03  0.00000000000E+00 0. -1.
        -12    1    4    4    0    0 -0.18154394636E+02  0.67075084877E+01 -0.13460921744E+02  0.23574756180E+02  0.00000000000E+00 0.  1.
</event>
<event>
12    1  0.8563264E-002  0.1838298E+03  0.7818608E-02  0.1164687E+00
         21   -1    0    0  501  502  0.00000000000E+00  0.00000000000E+00  0.27885546316E+03  0.27885546316E+03  0.00000000000E+00 0.  1.
         21   -1    0    0  502  503 -0.00000000000E+00 -0.00000000000E+00 -0.19430426744E+03  0.19430426744E+03  0.00000000000E+00 0.  1.
         -6    2    1    2    0  503 -0.58867265920E+02  0.11099235212E+02 -0.10416634457E+03  0.21129136207E+03  0.17379546693E+03 0.  0.
        -24    2    3    3    0    0 -0.55341770177E+02 -0.59335764636E+02 -0.66759583631E+02  0.13132340544E+03  0.78775315409E+02 0.  0.
          6    2    1    2  501    0  0.58867265920E+02 -0.11099235212E+02  0.18871754029E+03  0.26186836853E+03  0.17138315088E+03 0.  0.
         24    2    5    5    0    0  0.37309895242E+02  0.41980331994E+02  0.46948627193E+02  0.10888903853E+03  0.80611863646E+02 0.  0.
          5    1    5    5  501    0  0.21557370677E+02 -0.53079567205E+02  0.14176891310E+03  0.15297933000E+03  0.47000000000E+01 0. -1.
        -11    1    6    6    0    0  0.58611129517E+02  0.12829652934E+02  0.40033527502E+02  0.72128689312E+02  0.00000000000E+00 0.  1.
         12    1    6    6    0    0 -0.21301234274E+02  0.29150679060E+02  0.69150996913E+01  0.36760349223E+02  0.00000000000E+00 0. -1.
         -5    1    3    3    0  503 -0.35254957425E+01  0.70434999848E+02 -0.37406760936E+02  0.79967956629E+02  0.47000000000E+01 0.  1.
         13    1    4    4    0    0 -0.34813765971E+02 -0.45275153577E+02  0.30683528719E+01  0.57194865345E+02  0.00000000000E+00 0. -1.
        -14    1    4    4    0    0 -0.20528004206E+02 -0.14060611060E+02 -0.69827936503E+02  0.74128540093E+02  0.00000000000E+00 0.  1.
</event>
<event>
12    1  0.8563264E-002  0.1935114E+03  0.7818608E-02  0.1155862E+00
         21   -1    0    0  501  502  0.00000000000E+00  0.00000000000E+00  0.84935701717E+03  0.84935701717E+03  0.00000000000E+00 0. -1.
         21   -1    0    0  502  503 -0.00000000000E+00 -0.00000000000E+00 -0.15524845194E+03  0.15524845194E+03  0.00000000000E+00 0. -1.
         -6    2    1    2    0  503 -0.87687511876E+02 -0.39738139465E+01 -0.78412100350E+02  0.20879443672E+03  0.17245801921E+03 0.  0.
        -24    2    3    3    0    0  0.31389645417E+01 -0.43587426578E+02 -0.55866194015E+02  0.10706393482E+03  0.80199361916E+02 0.  0.
          6    2    1    2  501    0  0.87687511876E+02  0.39738139465E+01  0.77252066558E+03  0.79581103239E+03  0.16977081493E+03 0.  0.
         24    2    5    5    0    0  0.11768950249E+03 -0.28723502636E+02  0.52100987103E+03  0.54037218702E+03  0.76648262819E+02 0.  0.
          5    1    5    5  501    0 -0.30001990617E+02  0.32697316582E+02  0.25151079454E+03  0.25543884537E+03  0.47000000000E+01 0. -1.
        -11    1    6    6    0    0  0.87337433675E+02 -0.80810533460E+01  0.21551043089E+03  0.23267547479E+03  0.00000000000E+00 0.  1.
         12    1    6    6    0    0  0.30352068818E+02 -0.20642449290E+02  0.30549944014E+03  0.30769671224E+03  0.00000000000E+00 0. -1.
         -5    1    3    3    0  503 -0.90826476418E+02  0.39613612632E+02 -0.22545906335E+02  0.10173050190E+03  0.47000000000E+01 0.  1.
         13    1    4    4    0    0 -0.38044847948E+02 -0.27903292960E+02 -0.31162272468E+02  0.56542828358E+02  0.00000000000E+00 0. -1.
        -14    1    4    4    0    0  0.41183812489E+02 -0.15684133618E+02 -0.24703921547E+02  0.50521106464E+02  0.00000000000E+00 0.  1.
</event>
<event>
12    1  0.8563264E-002  0.1975986E+03  0.7818608E-02  0.1152346E+00
         21   -1    0    0  503  502  0.00000000000E+00  0.00000000000E+00  0.67991550600E+03  0.67991550600E+03  0.00000000000E+00 0. -1.
         21   -1    0    0  501  503 -0.00000000000E+00 -0.00000000000E+00 -0.37919869537E+03  0.37919869537E+03  0.00000000000E+00 0. -1.
          6    2    1    2  501    0 -0.93640951348E+02 -0.39396930855E+01 -0.33787756931E+03  0.39141597225E+03  0.17395707096E+03 0.  0.
         24    2    3    3    0    0  0.10528010800E+02  0.32603659856E+02 -0.12920680905E+03  0.15529700751E+03  0.79050132133E+02 0.  0.
         -6    2    1    2    0  502  0.93640951348E+02  0.39396930855E+01  0.63859437994E+03  0.66769822912E+03  0.17097951376E+03 0.  0.
        -24    2    5    5    0    0  0.39376014792E+02  0.43676843680E+02  0.54116889143E+03  0.54921810299E+03  0.72928858355E+02 0.  0.
          5    1    3    3  501    0 -0.10416896215E+03 -0.36543352941E+02 -0.20867076026E+03  0.23611896473E+03  0.47000000000E+01 0. -1.
        -11    1    4    4    0    0  0.25321759540E+01  0.83563590228E+01  0.10282896700E+02  0.13489944986E+02  0.00000000000E+00 0.  1.
         12    1    4    4    0    0  0.79958348456E+01  0.24247300833E+02 -0.13948970575E+03  0.14180706253E+03  0.00000000000E+00 0. -1.
         -5    1    5    5    0  502  0.54264936556E+02 -0.39737150594E+02  0.97425488506E+02  0.11848012613E+03  0.47000000000E+01 0.  1.
         11    1    6    6    0    0  0.42103169776E+02 -0.27378373483E+01  0.17042180352E+03  0.17556697803E+03  0.00000000000E+00 0. -1.
        -12    1    6    6    0    0 -0.27271549838E+01  0.46414681028E+02  0.37074708791E+03  0.37365112496E+03  0.00000000000E+00 0.  1.
</event>
<event>
12    1  0.8563264E-002  0.1911876E+03  0.7818608E-02  0.1157579E+00
         21   -1    0    0  503  502  0.00000000000E+00  0.00000000000E+00  0.61149016253E+02  0.61149016253E+02  0.00000000000E+00 0.  1.
         21   -1    0    0  501  503 -0.00000000000E+00 -0.00000000000E+00 -0.59556107628E+03  0.59556107628E+03  0.00000000000E+00 0. -1.
          6    2    1    2  501    0  0.73153284714E+02  0.37006979111E+02 -0.27479146627E+03  0.33428872672E+03  0.17180711078E+03 0.  0.
         24    2    3    3    0    0  0.81798477146E+02 -0.20629894974E+02 -0.11057764968E+03  0.15997574337E+03  0.79045799561E+02 0.  0.
         -6    2    1    2    0  502 -0.73153284714E+02 -0.37006979111E+02 -0.25962059376E+03  0.32242136582E+03  0.17271874496E+03 0.  0.
        -24    2    5    5    0    0 -0.50988327390E+02  0.35239510543E+02 -0.20624751785E+03  0.22978435468E+03  0.80132255681E+02 0.  0.
          5    1    3    3  501    0 -0.86451924324E+01  0.57636874085E+02 -0.16421381659E+03  0.17431298335E+03  0.47000000000E+01 0. -1.
        -13    1    4    4    0    0  0.12968261074E+02 -0.10057163346E+02 -0.83760554650E+02  0.85353106828E+02  0.00000000000E+00 0.  1.
         14    1    4    4    0    0  0.68830216072E+02 -0.10572731628E+02 -0.26817095026E+02  0.74622636541E+02  0.00000000000E+00 0. -1.
         -5    1    5    5    0  502 -0.22164957324E+02 -0.72246489653E+02 -0.53373075912E+02  0.92637011139E+02  0.47000000000E+01 0.  1.
         11    1    6    6    0    0 -0.32566382575E+01  0.11242410891E+02 -0.15601375083E+03  0.15645219060E+03  0.00000000000E+00 0. -1.
        -12    1    6    6    0    0 -0.47731689132E+02  0.23997099651E+02 -0.50233767026E+02  0.73332164080E+02  0.00000000000E+00 0.  1.
</event>
<event>
12    1  0.8563264E-002  0.3235034E+03  0.7818608E-02  0.1074129E+00
         21   -1    0    0  503  502  0.00000000000E+00  0.00000000000E+00  0.15250719320E+04  0.15250719320E+04  0.00000000000E+00 0. -1.
         21   -1    0    0  501  503 -0.00000000000E+00 -0.00000000000E+00 -0.69482080401E+02  0.69482080401E+02  0.00000000000E+00 0.  1.
          6    2    1    2  501    0 -0.13092402272E+03 -0.24083003694E+03  0.63083183728E+03  0.70861934174E+03  0.17044752313E+03 0.  0.
         24    2    3    3    0    0 -0.13922584873E+03 -0.14215977292E+03  0.34884260684E+03  0.40971340770E+03  0.81121354226E+02 0.  0.
         -6    2    1    2    0  502  0.13092402272E+03  0.24083003694E+03  0.82475801429E+03  0.88593467064E+03  0.17179712478E+03 0.  0.
        -24    2    5    5    0    0  0.11794037629E+03  0.12213479946E+03  0.35952817534E+03  0.40560350620E+03  0.80167660460E+02 0.  0.
          5    1    3    3  501    0  0.83018260175E+01 -0.98670264017E+02  0.28198923044E+03  0.29890593404E+03  0.47000000000E+01 0. -1.
        -13    1    4    4    0    0 -0.30829297738E+02 -0.26819972471E+02  0.21643153000E+02  0.46240486526E+02  0.00000000000E+00 0.  1.
         14    1    4    4    0    0 -0.10839655100E+03 -0.11533980045E+03  0.32719945383E+03  0.36347292117E+03  0.00000000000E+00 0. -1.
         -5    1    5    5    0  502  0.12983646426E+02  0.11869523748E+03  0.46522983896E+03  0.48033116444E+03  0.47000000000E+01 0.  1.
         11    1    6    6    0    0  0.29637962603E+02  0.80043343469E+02  0.21256074297E+03  0.22905766766E+03  0.00000000000E+00 0. -1.
        -12    1    6    6    0    0  0.88302413688E+02  0.42091455987E+02  0.14696743236E+03  0.17654583854E+03  0.00000000000E+00 0.  1.
</event>
<event>
12    1  0.8563264E-002  0.2094551E+03  0.7818608E-02  0.1142092E+00
         21   -1    0    0  501  502  0.00000000000E+00  0.00000000000E+00  0.50949977393E+03  0.50949977393E+03  0.00000000000E+00 0. -1.
         21   -1    0    0  502  503 -0.00000000000E+00 -0.00000000000E+00 -0.12514698548E+03  0.12514698548E+03  0.00000000000E+00 0.  1.
         -6    2    1    2    0  503  0.11920939928E+03  0.14302960731E+02  0.14650358421E+02  0.20996687146E+03  0.17162749938E+03 0.  0.
        -24    2    3    3    0    0  0.14070632899E+03  0.42287652560E+02 -0.86737411215E+01  0.16740674243E+03  0.79770088688E+02 0.  0.
          6    2    1    2  501    0 -0.11920939928E+03 -0.14302960731E+02  0.36970243003E+03  0.42467988796E+03  0.17104872084E+03 0.  0.
         24    2    5    5    0    0 -0.82816868029E+02  0.21740980661E+01  0.10323426846E+03  0.15519281789E+03  0.81019357005E+02 0.  0.
          5    1    5    5  501    0 -0.36392531254E+02 -0.16477058797E+02  0.26646816158E+03  0.26948707006E+03  0.47000000000E+01 0. -1.
        -13    1    6    6    0    0  0.11382540918E+02 -0.12578162984E+02  0.37076976805E+01  0.17364315244E+02  0.00000000000E+00 0.  1.
         14    1    6    6    0    0 -0.94199408947E+02  0.14752261051E+02  0.99526570776E+02  0.13782850265E+03  0.00000000000E+00 0. -1.
         -5    1    3    3    0  503 -0.21496929705E+02 -0.27984691829E+02  0.23324099543E+02  0.42560129029E+02  0.47000000000E+01 0.  1.
         11    1    4    4    0    0  0.79554197059E+02  0.27422356485E+02  0.34650564825E+02  0.91002843624E+02  0.00000000000E+00 0. -1.
        -12    1    4    4    0    0  0.61152131928E+02  0.14865296075E+02 -0.43324305947E+02  0.76403898805E+02  0.00000000000E+00 0.  1.
</event>
<event>
12    1  0.8563264E-002  0.2241689E+03  0.7818608E-02  0.1131259E+00
         21   -1    0    0  501  502  0.00000000000E+00  0.00000000000E+00  0.12937434215E+03  0.12937434215E+03  0.00000000000E+00 0. -1.
         21   -1    0    0  502  503 -0.00000000000E+00 -0.00000000000E+00 -0.39138472787E+03  0.39138472787E+03  0.00000000000E+00 0.  1.
         -6    2    1    2    0  503 -0.12714289357E+03 -0.64965423314E+02 -0.16696439942E+03  0.27951534572E+03  0.17281752285E+03 0.  0.
        -24    2    3    3    0    0 -0.23440830679E+02 -0.21351980339E+02 -0.38627020680E+01  0.81322248118E+02  0.74786415641E+02 0.  0.
          6    2    1    2  501    0  0.12714289357E+03  0.64965423314E+02 -0.95045986304E+02  0.24124372430E+03  0.16964366593E+03 0.  0.
         24    2    5    5    0    0  0.21600099304E+02 -0.33190160715E+01 -0.79227813959E+02  0.11445906174E+03  0.79663355144E+02 0.  0.
          5    1    5    5  501    0  0.10554279427E+03  0.68284439385E+02 -0.15818172345E+02  0.12678466256E+03  0.47000000000E+01 0. -1.
        -11    1    6    6    0    0  0.24859230393E+02 -0.35270455087E+02 -0.67804885585E+02  0.80370945291E+02  0.00000000000E+00 0.  1.
         12    1    6    6    0    0 -0.32591310890E+01  0.31951439016E+02 -0.11422928374E+02  0.34088116452E+02  0.00000000000E+00 0. -1.
         -5    1    3    3    0  503 -0.10370206289E+03 -0.43613442974E+02 -0.16310169735E+03  0.19819309760E+03  0.47000000000E+01 0.  1.
         13    1    4    4    0    0  0.12599397985E+02  0.20635549166E+02 -0.88896814401E+01  0.25760379560E+02  0.00000000000E+00 0. -1.
        -14    1    4    4    0    0 -0.36040228664E+02 -0.41987529505E+02  0.50269793721E+01  0.55561868558E+02  0.00000000000E+00 0.  1.
</event>
<event>
12    1  0.8563264E-002  0.2311877E+03  0.7818608E-02  0.1125952E+00
         21   -1    0    0  501  502  0.00000000000E+00  0.00000000000E+00  0.37799696331E+03  0.37799696331E+03  0.00000000000E+00 0. -1.
         21   -1    0    0  502  503 -0.00000000000E+00 -0.00000000000E+00 -0.30957794575E+03  0.30957794575E+03  0.00000000000E+00 0.  1.
         -6    2    1    2    0  503 -0.19025423622E+02 -0.15042365096E+03 -0.21959342247E+03  0.31825264989E+03  0.17341925054E+03 0.  0.
        -24    2    3    3    0    0 -0.32649723777E+02 -0.17897404596E+03 -0.18474842360E+03  0.27095560394E+03  0.78659047141E+02 0.  0.
          6    2    1    2  501    0  0.19025423622E+02  0.15042365096E+03  0.28801244003E+03  0.36932225917E+03  0.17452370610E+03 0.  0.
         24    2    5    5    0    0  0.33025753453E+02  0.62305778689E+02  0.49350025791E+02  0.11448386602E+03  0.75487880386E+02 0.  0.
          5    1    5    5  501    0 -0.14000329831E+02  0.88117872273E+02  0.23866241424E+03  0.25483839315E+03  0.47000000000E+01 0. -1.
        -11    1    6    6    0    0  0.52657181863E+02  0.19416928113E+02  0.27601014721E+02  0.62542880592E+02  0.00000000000E+00 0.  1.
         12    1    6    6    0    0 -0.19631428410E+02  0.42888850576E+02  0.21749011070E+02  0.51940985432E+02  0.00000000000E+00 0. -1.
         -5    1    3    3    0  503  0.13624300155E+02  0.28550394995E+02 -0.34844998878E+02  0.47297045953E+02  0.47000000000E+01 0.  1.
         11    1    4    4    0    0 -0.40788463505E+02 -0.73892487092E+02 -0.12182030391E+03  0.14820251296E+03  0.00000000000E+00 0. -1.
        -12    1    4    4    0    0  0.81387397283E+01 -0.10508155887E+03 -0.62928119690E+02  0.12275309098E+03  0.00000000000E+00 0.  1.
</event>
<event>
12    1  0.8563264E-002  0.1927238E+03  0.7818608E-02  0.1157368E+00
         21   -1    0    0  501  502  0.00000000000E+00  0.00000000000E+00  0.27149622005E+03  0.27149622005E+03  0.00000000000E+00 0.  1.
         21   -1    0    0  502  503 -0.00000000000E+00 -0.00000000000E+00 -0.14256695477E+03  0.14256695477E+03  0.00000000000E+00 0.  1.
         -6    2    1    2    0  503  0.63954423780E+02  0.40750766339E+02  0.88191919214E+01  0.18697535848E+03  0.17067868424E+03 0.  0.
        -24    2    3    3    0    0  0.13578833433E+02 -0.39544944538E+02  0.18391064749E+02  0.91587665153E+02  0.79384392607E+02 0.  0.
          6    2    1    2  501    0 -0.63954423780E+02 -0.40750766339E+02  0.12011007336E+03  0.22708781634E+03  0.17717689842E+03 0.  0.
         24    2    5    5    0    0 -0.31216702249E+02 -0.65059016588E+02  0.10901792111E+02  0.11042081958E+03  0.82865856582E+02 0.  0.
          5    1    5    5  501    0 -0.32737721531E+02  0.24308250248E+02  0.10920828124E+03  0.11666699676E+03  0.47000000000E+01 0. -1.
        -11    1    6    6    0    0 -0.22675869292E+02  0.14093679480E+02  0.15145777904E+02  0.30695625710E+02  0.00000000000E+00 0.  1.
         12    1    6    6    0    0 -0.85408329572E+01 -0.79152696067E+02 -0.42439857930E+01  0.79725193871E+02  0.00000000000E+00 0. -1.
         -5    1    3    3    0  503  0.50375590347E+02  0.80295710877E+02 -0.95718728278E+01  0.95387693323E+02  0.47000000000E+01 0.  1.
         13    1    4    4    0    0 -0.18261558883E+02 -0.91631771126E+01  0.38203509072E+02  0.43323855473E+02  0.00000000000E+00 0. -1.
        -14    1    4    4    0    0  0.31840392317E+02 -0.30381767425E+02 -0.19812444323E+02  0.48263809680E+02  0.00000000000E+00 0.  1.
</event>
<event>
12    1  0.8563264E-002  0.1845140E+03  0.7818608E-02  0.1163676E+00
         21   -1    0    0  503  502  0.00000000000E+00  0.00000000000E+00  0.33715177538E+03  0.33715177538E+03  0.00000000000E+00 0. -1.
         21   -1    0    0  501  503 -0.00000000000E+00 -0.00000000000E+00 -0.14567806770E+03  0.14567806770E+03  0.00000000000E+00 0. -1.
          6    2    1    2  501    0  0.24120727615E+01  0.66402757452E+02 -0.38453736387E+02  0.18847842415E+03  0.17213448880E+03 0.  0.
         24    2    3    3    0    0  0.56975112965E+02  0.17557820199E+02  0.11513617383E+02  0.99699036373E+02  0.79075242149E+02 0.  0.
         -6    2    1    2    0  502 -0.24120727615E+01 -0.66402757452E+02  0.22992744407E+03  0.29435141893E+03  0.17135047126E+03 0.  0.
        -24    2    5    5    0    0  0.69143878950E+01 -0.67370403857E+02  0.25127012415E+03  0.27057077132E+03  0.74062722897E+02 0.  0.
          5    1    3    3  501    0 -0.54563040203E+02  0.48844937252E+02 -0.49967353771E+02  0.88779387778E+02  0.47000000000E+01 0. -1.
        -11    1    4    4    0    0  0.20823038244E+02 -0.30057039069E+02  0.15646197223E+02  0.39772201433E+02  0.00000000000E+00 0.  1.
         12    1    4    4    0    0  0.36152074721E+02  0.47614859268E+02 -0.41325798397E+01  0.59926834939E+02  0.00000000000E+00 0. -1.
         -5    1    5    5    0  502 -0.93264606564E+01  0.96764640527E+00 -0.21342680084E+02  0.23780647618E+02  0.47000000000E+01 0.  1.
         13    1    6    6    0    0 -0.29747852952E+02 -0.86317207614E+01  0.71134800631E+02  0.77586089084E+02  0.00000000000E+00 0. -1.
        -14    1    6    6    0    0  0.36662240847E+02 -0.58738683095E+02  0.18013532352E+03  0.19298468223E+03  0.00000000000E+00 0.  1.
</event>
<event>
12    1  0.8563264E-002  0.1935837E+03  0.7818608E-02  0.1155548E+00
         21   -1    0    0  503  502  0.00000000000E+00  0.00000000000E+00  0.37001814967E+03  0.37001814967E+03  0.00000000000E+00 0. -1.
         21   -1    0    0  501  503 -0.00000000000E+00 -0.00000000000E+00 -0.11185638338E+03  0.11185638338E+03  0.00000000000E+00 0. -1.
          6    2    1    2  501    0  0.85376897877E+02  0.28077045897E+01  0.20507901645E+03  0.28114478911E+03  0.17230174566E+03 0.  0.
         24    2    3    3    0    0  0.21822237217E+02 -0.54192335937E+02  0.76764108910E+02  0.12695333342E+03  0.82531213109E+02 0.  0.
         -6    2    1    2    0  502 -0.85376897877E+02 -0.28077045897E+01  0.53082749840E+02  0.20072974395E+03  0.17371687851E+03 0.  0.
        -24    2    5    5    0    0 -0.61857965426E+02  0.36628722157E+00  0.10435880180E+03  0.14403284886E+03  0.77641226061E+02 0.  0.
          5    1    3    3  501    0  0.63554660660E+02  0.57000040527E+02  0.12831490754E+03  0.15419145569E+03  0.47000000000E+01 0. -1.
        -11    1    4    4    0    0 -0.71685120253E+01 -0.24863371764E+02  0.81438225554E+02  0.85450332952E+02  0.00000000000E+00 0.  1.
         12    1    4    4    0    0  0.28990749243E+02 -0.29328964173E+02 -0.46741166443E+01  0.41503000464E+02  0.00000000000E+00 0. -1.
         -5    1    5    5    0  502 -0.23518932451E+02 -0.31739918112E+01 -0.51276051961E+02  0.56696895086E+02  0.47000000000E+01 0.  1.
         11    1    6    6    0    0 -0.26224265938E+02  0.36809597739E+02  0.67082151413E+02  0.80886795263E+02  0.00000000000E+00 0. -1.
        -12    1    6    6    0    0 -0.35633699489E+02 -0.36443310517E+02  0.37276650388E+02  0.63146053597E+02  0.00000000000E+00 0.  1.
</event>
<event>
12    1  0.8563264E-002  0.1770696E+03  0.7818608E-02  0.1170725E+00
         21   -1    0    0  503  502  0.00000000000E+00  0.00000000000E+00  0.34726343553E+03  0.34726343553E+03  0.00000000000E+00 0.  1.
         21   -1    0    0  501  503 -0.00000000000E+00 -0.00000000000E+00 -0.93875786174E+02  0.93875786174E+02  0.00000000000E+00 0. -1.
          6    2    1    2  501    0  0.31372329891E+02 -0.31245539807E+02  0.17042095742E+03  0.24559605648E+03  0.17121218820E+03 0.  0.
         24    2    3    3    0    0  0.58443946779E+01  0.43756658937E+02  0.58901871112E+02  0.10871800161E+03  0.80008570190E+02 0.  0.
         -6    2    1    2    0  502 -0.31372329891E+02  0.31245539807E+02  0.82966691935E+02  0.19554316522E+03  0.17144430773E+03 0.  0.
        -24    2    5    5    0    0 -0.38081949010E+02 -0.43446737788E+02  0.22857816925E+02  0.99318832667E+02  0.77484816983E+02 0.  0.
          5    1    3    3  501    0  0.25527935213E+02 -0.75002198744E+02  0.11151908631E+03  0.13687805486E+03  0.47000000000E+01 0. -1.
        -13    1    4    4    0    0  0.33585713071E+02  0.23181452469E+02  0.61799709067E+02  0.74057976625E+02  0.00000000000E+00 0.  1.
         14    1    4    4    0    0 -0.27741318393E+02  0.20575206468E+02 -0.28978379554E+01  0.34660024988E+02  0.00000000000E+00 0. -1.
         -5    1    5    5    0  502  0.67096191195E+01  0.74692277595E+02  0.60108875010E+02  0.96224332557E+02  0.47000000000E+01 0.  1.
         11    1    6    6    0    0 -0.48615712421E+02 -0.21988815070E+02  0.42631130534E+02  0.68296477018E+02  0.00000000000E+00 0. -1.
        -12    1    6    6    0    0  0.10533763411E+02 -0.21457922718E+02 -0.19773313609E+02  0.31022355649E+02  0.00000000000E+00 0.  1.
</event>
<event>
12    1  0.8563264E-002  0.2939678E+03  0.7818608E-02  0.1088432E+00
         21   -1    0    0  503  502  0.00000000000E+00  0.00000000000E+00  0.37409303447E+03  0.37409303447E+03  0.00000000000E+00 0.  1.
         21   -1    0    0  501  503 -0.00000000000E+00 -0.00000000000E+00 -0.65252275216E+03  0.65252275216E+03  0.00000000000E+00 0. -1.
          6    2    1    2  501    0  0.25455569717E+02  0.23751170172E+03 -0.55227101793E+03  0.62563593288E+03  0.17133957158E+03 0.  0.
         24    2    3    3    0    0  0.68705805238E+01  0.19336504368E+03 -0.53551679959E+03  0.57467395616E+03  0.77683127154E+02 0.  0.
         -6    2    1    2    0  502 -0.25455569717E+02 -0.23751170172E+03  0.27384130023E+03  0.40097985375E+03  0.16951693401E+03 0.  0.
        -24    2    5    5    0    0 -0.72748224212E+02 -0.98653694993E+02  0.14456092675E+03  0.20539446020E+03  0.79146491245E+02 0.  0.
          5    1    3    3  501    0  0.18584989193E+02  0.44146658047E+02 -0.16754218333E+02  0.50961976728E+02  0.47000000000E+01 0. -1.
        -11    1    4    4    0    0  0.40919927955E+02  0.85201941995E+02 -0.26499641878E+03  0.28134838437E+03  0.00000000000E+00 0.  1.
         12    1    4    4    0    0 -0.34049347431E+02  0.10816310168E+03 -0.27052038081E+03  0.29332557178E+03  0.00000000000E+00 0. -1.
         -5    1    5    5    0  502  0.47292654494E+02 -0.13885800673E+03  0.12928037348E+03  0.19558539355E+03  0.47000000000E+01 0.  1.
         13    1    6    6    0    0  0.16154782874E+02 -0.22003401503E+02  0.38480586447E+02  0.47179256254E+02  0.00000000000E+00 0. -1.
        -14    1    6    6    0    0 -0.88903007085E+02 -0.76650293490E+02  0.10608034030E+03  0.15821520395E+03  0.00000000000E+00 0.  1.
</event>
<event>
12    1  0.8563264E-002  0.1870650E+03  0.7818608E-02  0.1163055E+00
         21   -1    0    0  503  502  0.00000000000E+00  0.00000000000E+00  0.73495038554E+03  0.73495038554E+03  0.00000000000E+00 0. -1.
         21   -1    0    0  501  503 -0.00000000000E+00 -0.00000000000E+00 -0.68447159831E+02  0.68447159831E+02  0.00000000000E+00 0. -1.
          6    2    1    2  501    0  0.63190180605E+02 -0.37736517233E+02  0.10595543694E+03  0.21498802983E+03  0.17197748311E+03 0.  0.
         24    2    3    3    0    0  0.61986081309E+01 -0.13643441756E+02 -0.10563996668E+02  0.82975212172E+02  0.80924171689E+02 0.  0.
         -6    2    1    2    0  502 -0.63190180605E+02  0.37736517233E+02  0.56054778877E+03  0.58840951554E+03  0.16307940036E+03 0.  0.
        -24    2    5    5    0    0 -0.95091629841E+02  0.22051517408E+02  0.51644691138E+03  0.53157027672E+03  0.79503832174E+02 0.  0.
          5    1    3    3  501    0  0.56991572474E+02 -0.24093075477E+02  0.11651943360E+03  0.13201281766E+03  0.47000000000E+01 0. -1.
        -13    1    4    4    0    0  0.51263393425E+01 -0.21351885007E+02  0.32494900728E+02  0.39218629779E+02  0.00000000000E+00 0.  1.
         14    1    4    4    0    0  0.10722687884E+01  0.77084432513E+01 -0.43058897396E+02  0.43756582393E+02  0.00000000000E+00 0. -1.
         -5    1    5    5    0  502  0.31901449236E+02  0.15684999825E+02  0.44100877384E+02  0.56839238813E+02  0.47000000000E+01 0.  1.
         13    1    6    6    0    0 -0.82927548814E+02 -0.16428398553E+02  0.31683510765E+03  0.32791974029E+03  0.00000000000E+00 0. -1.
        -14    1    6    6    0    0 -0.12164081027E+02  0.38479915961E+02  0.19961180373E+03  0.20365053643E+03  0.00000000000E+00 0.  1.
</event>
<event>
12    1  0.8563264E-002  0.2786211E+03  0.7818608E-02  0.1097639E+00
         21   -1    0    0  501  502  0.00000000000E+00  0.00000000000E+00  0.34365941457E+03  0.34365941457E+03  0.00000000000E+00 0. -1.
         21   -1    0    0  502  503 -0.00000000000E+00 -0.00000000000E+00 -0.47710780478E+03  0.47710780478E+03  0.00000000000E+00 0. -1.
         -6    2    1    2    0  503 -0.71062342071E+02  0.20868910904E+03 -0.36806615598E+03  0.45652114021E+03  0.15600594727E+03 0.  0.
        -24    2    3    3    0    0  0.11054322528E+02  0.10604350189E+03 -0.13708616676E+03  0.19071460776E+03  0.78816382532E+02 0.  0.
          6    2    1    2  501    0  0.71062342071E+02 -0.20868910904E+03  0.23461776578E+03  0.36424607914E+03  0.17037813667E+03 0.  0.
         24    2    5    5    0    0  0.96324236952E+02 -0.89684506184E+02  0.15530399829E+03  0.21894287013E+03  0.80591433932E+02 0.  0.
          5    1    5    5  501    0 -0.25261894881E+02 -0.11900460286E+03  0.79313767491E+02  0.14530320901E+03  0.47000000000E+01 0. -1.
        -13    1    6    6    0    0  0.26294312819E+02 -0.46772250983E+02  0.13917806616E+02  0.55432298253E+02  0.00000000000E+00 0.  1.
         14    1    6    6    0    0  0.70029924132E+02 -0.42912255201E+02  0.14138619167E+03  0.16351057188E+03  0.00000000000E+00 0. -1.
         -5    1    3    3    0  503 -0.82116664599E+02  0.10264560715E+03 -0.23097998923E+03  0.26580653245E+03  0.47000000000E+01 0.  1.
         13    1    4    4    0    0  0.62885250985E+00  0.94350570263E+02 -0.59464347894E+02  0.11152772855E+03  0.00000000000E+00 0. -1.
        -14    1    4    4    0    0  0.10425470018E+02  0.11692931627E+02 -0.77621818862E+02  0.79186879208E+02  0.00000000000E+00 0.  1.
</event>
<event>
12    1  0.8563264E-002  0.2120708E+03  0.7818608E-02  0.1139999E+00
         21   -1    0    0  503  502  0.00000000000E+00  0.00000000000E+00  0.12001170132E+03  0.12001170132E+03  0.00000000000E+00 0. -1.
         21   -1    0    0  501  503 -0.00000000000E+00 -0.00000000000E+00 -0.63312722872E+03  0.63312722872E+03  0.00000000000E+00 0. -1.
          6    2    1    2  501    0 -0.14201899432E+02 -0.12088238370E+03 -0.15616773892E+02  0.21232564050E+03  0.17327449134E+03 0.  0.
         24    2    3    3    0    0  0.48689915566E+01 -0.15261914361E+03 -0.21173197072E+02  0.17459124437E+03  0.81960284661E+02 0.  0.
         -6    2    1    2    0  502  0.14201899432E+02  0.12088238370E+03 -0.49749875351E+03  0.54081328954E+03  0.17366565510E+03 0.  0.
        -24    2    5    5    0    0  0.55901938427E+02  0.14765696437E+02 -0.21144891831E+03  0.23284211754E+03  0.78496841545E+02 0.  0.
          5    1    3    3  501    0 -0.19070890989E+02  0.31736759911E+02  0.55564231798E+01  0.37734396130E+02  0.47000000000E+01 0. -1.
        -11    1    4    4    0    0  0.31873886737E+02 -0.22110881661E+02 -0.13586132810E+02  0.41102539439E+02  0.00000000000E+00 0.  1.
         12    1    4    4    0    0 -0.27004895180E+02 -0.13050826195E+03 -0.75870642611E+01  0.13348870493E+03  0.00000000000E+00 0. -1.
         -5    1    5    5    0  502 -0.41700038994E+02  0.10611668726E+03 -0.28604983520E+03  0.30797117200E+03  0.47000000000E+01 0.  1.
         13    1    6    6    0    0  0.54866750654E+02  0.58966952124E+01 -0.21591722060E+03  0.22285730298E+03  0.00000000000E+00 0. -1.
        -14    1    6    6    0    0  0.10351877722E+01  0.88690012247E+01  0.44683022831E+01  0.99848145572E+01  0.00000000000E+00 0.  1.
</event>
<event>
12    1  0.8563264E-002  0.1752351E+03  0.7818608E-02  0.1172665E+00
         21   -1    0    0  503  502  0.00000000000E+00  0.00000000000E+00  0.27540120491E+03  0.27540120491E+03  0.00000000000E+00 0. -1.
         21   -1    0    0  501  503 -0.00000000000E+00 -0.00000000000E+00 -0.11124786867E+03  0.11124786867E+03  0.00000000000E+00 0. -1.
          6    2    1    2  501    0  0.12397084549E+02 -0.32039086517E+02  0.74546880920E+02  0.19043263934E+03  0.17183469353E+03 0.  0.
         24    2    3    3    0    0  0.36225439900E+02  0.20594286287E+02  0.93825616228E+02  0.12934399811E+03  0.78677928695E+02 0.  0.
         -6    2    1    2    0  502 -0.12397084549E+02  0.32039086517E+02  0.89606455327E+02  0.19621643425E+03  0.17114725082E+03 0.  0.
        -24    2    5    5    0    0  0.64653319261E+02  0.16605882896E+02  0.51890599125E+02  0.10892654760E+03  0.68677153817E+02 0.  0.
          5    1    3    3  501    0 -0.23828355351E+02 -0.52633372804E+02 -0.19278735307E+02  0.61088641223E+02  0.47000000000E+01 0. -1.
        -11    1    4    4    0    0  0.21684677739E+02 -0.29623962056E+02  0.36850199415E+02  0.52016743203E+02  0.00000000000E+00 0.  1.
         12    1    4    4    0    0  0.14540762161E+02  0.50218248343E+02  0.56975416813E+02  0.77327254910E+02  0.00000000000E+00 0. -1.
         -5    1    5    5    0  502 -0.77050403810E+02  0.15433203621E+02  0.37715856201E+02  0.87289886644E+02  0.47000000000E+01 0.  1.
         11    1    6    6    0    0  0.33177489182E+02  0.11300402401E+02 -0.12375590138E+02  0.37169881814E+02  0.00000000000E+00 0. -1.
        -12    1    6    6    0    0  0.31475830080E+02  0.53054804947E+01  0.64266189263E+02  0.71756665787E+02  0.00000000000E+00 0.  1.
</event>
<event>
12    1  0.8563264E-002  0.1918172E+03  0.7818608E-02  0.1157004E+00
         21   -1    0    0  501  502  0.00000000000E+00  0.00000000000E+00  0.19785950302E+03  0.19785950302E+03  0.00000000000E+00 0. -1.
         21   -1    0    0  502  503 -0.00000000000E+00 -0.00000000000E+00 -0.39242235128E+03  0.39242235128E+03  0.00000000000E+00 0. -1.
         -6    2    1    2    0  503  0.83139974665E+02 -0.12953240597E+02 -0.31165418273E+03  0.36555039531E+03  0.17151886212E+03 0.  0.
        -24    2    3    3    0    0  0.11423409156E+03  0.21523167577E+02 -0.19662137092E+03  0.24141295285E+03  0.78150981337E+02 0.  0.
          6    2    1    2  501    0 -0.83139974665E+02  0.12953240597E+02  0.11709133448E+03  0.22473145900E+03  0.17237693066E+03 0.  0.
         24    2    5    5    0    0 -0.85777219852E+02  0.43787795094E+02  0.24641917310E+02  0.12712659463E+03  0.79239160326E+02 0.  0.
          5    1    5    5  501    0  0.26372451863E+01 -0.30834554497E+02  0.92449417166E+02  0.97604864364E+02  0.47000000000E+01 0. -1.
        -11    1    6    6    0    0  0.95035836877E+01  0.13114663168E+02 -0.12398271469E+02  0.20396804366E+02  0.00000000000E+00 0.  1.
         12    1    6    6    0    0 -0.95280803539E+02  0.30673131927E+02  0.37040188779E+02  0.10672979027E+03  0.00000000000E+00 0. -1.
         -5    1    3    3    0  503 -0.31094116896E+02 -0.34476408174E+02 -0.11503281181E+03  0.12413744246E+03  0.47000000000E+01 0.  1.
         11    1    4    4    0    0  0.55934552059E+02 -0.17849280312E+02 -0.13753184173E+03  0.14954022339E+03  0.00000000000E+00 0. -1.
        -12    1    4    4    0    0  0.58299539502E+02  0.39372447889E+02 -0.59089529197E+02  0.91872729467E+02  0.00000000000E+00 0.  1.
</event>
<event>
12    1  0.8563264E-002  0.1850613E+03  0.7818608E-02  0.1163570E+00
         21   -1    0    0  501  502  0.00000000000E+00  0.00000000000E+00  0.13064937209E+03  0.13064937209E+03  0.00000000000E+00 0.  1.
         21   -1    0    0  502  503 -0.00000000000E+00 -0.00000000000E+00 -0.26401386794E+03  0.26401386794E+03  0.00000000000E+00 0.  1.
         -6    2    1    2    0  503 -0.20174353522E+02 -0.61132217634E+02 -0.94330022393E+02  0.20553002549E+03  0.17088091081E+03 0.  0.
        -24    2    3    3    0    0  0.46123467770E+02 -0.62525207638E+02 -0.33811313495E+02  0.11563038335E+03  0.78679125346E+02 0.  0.
          6    2    1    2  501    0  0.20174353522E+02  0.61132217634E+02 -0.39034473456E+02  0.18913321453E+03  0.17350368915E+03 0.  0.
         24    2    5    5    0    0 -0.51990503148E+02  0.59155384168E+02 -0.16113101518E+02  0.11324412638E+03  0.79763577064E+02 0.  0.
          5    1    5    5  501    0  0.72164856670E+02  0.19768334668E+01 -0.22921371938E+02  0.75889088150E+02  0.47000000000E+01 0. -1.
        -11    1    6    6    0    0 -0.47736748081E+02  0.74106254038E+02 -0.29266045494E+02  0.92881835812E+02  0.00000000000E+00 0.  1.
         12    1    6    6    0    0 -0.42537550663E+01 -0.14950869870E+02  0.13152943976E+02  0.20362290571E+02  0.00000000000E+00 0. -1.
         -5    1    3    3    0  503 -0.66297821292E+02  0.13929900039E+01 -0.60518708898E+02  0.89899642134E+02  0.47000000000E+01 0.  1.
         11    1    4    4    0    0  0.22088433295E+02  0.71517465633E+01  0.14619550122E+02  0.27436793000E+02  0.00000000000E+00 0. -1.
        -12    1    4    4    0    0  0.24035034475E+02 -0.69676954202E+02 -0.48430863617E+02  0.88193590355E+02  0.00000000000E+00 0.  1.
</event>
<event>
12    1  0.8563264E-002  0.1925739E+03  0.7818608E-02  0.1156205E+00
         21   -1    0    0  501  502  0.00000000000E+00  0.00000000000E+00  0.27960743720E+02  0.27960743720E+02  0.00000000000E+00 0.  1.
         21   -1    0    0  502  503 -0.00000000000E+00 -0.00000000000E+00 -0.14324331720E+04  0.14324331720E+04  0.00000000000E+00 0. -1.
         -6    2    1    2    0  503  0.40116768217E+02  0.76914867177E+02 -0.90193586902E+03  0.92222322004E+03  0.17170353484E+03 0.  0.
        -24    2    3    3    0    0  0.14662731067E+00 -0.23929196879E+02 -0.40958370240E+03  0.41804082904E+03  0.80166685798E+02 0.  0.
          6    2    1    2  501    0 -0.40116768217E+02 -0.76914867177E+02 -0.50253655926E+03  0.53817069567E+03  0.17192862591E+03 0.  0.
         24    2    5    5    0    0 -0.33157486569E+02 -0.11835747697E+03 -0.42591441341E+03  0.45065518424E+03  0.81111628411E+02 0.  0.
          5    1    5    5  501    0 -0.69592816480E+01  0.41442609790E+02 -0.76622145852E+02  0.87515511438E+02  0.47000000000E+01 0. -1.
        -13    1    6    6    0    0 -0.52567429527E+02 -0.41611915934E+02 -0.16867505016E+03  0.18151076757E+03  0.00000000000E+00 0.  1.
         14    1    6    6    0    0  0.19409942958E+02 -0.76745561033E+02 -0.25723936324E+03  0.26914441667E+03  0.00000000000E+00 0. -1.
         -5    1    3    3    0  503  0.39970140906E+02  0.10084406406E+03 -0.49235216662E+03  0.50418239100E+03  0.47000000000E+01 0.  1.
         11    1    4    4    0    0 -0.26387473819E+02 -0.35497771264E+02 -0.13791055234E+03  0.14482993816E+03  0.00000000000E+00 0. -1.
        -12    1    4    4    0    0  0.26534101129E+02  0.11568574385E+02 -0.27167315005E+03  0.27321089088E+03  0.00000000000E+00 0.  1.
</event>
<event>
12    1  0.8563264E-002  0.1946398E+03  0.7818608E-02  0.1154531E+00
         21   -1    0    0  503  502  0.00000000000E+00  0.00000000000E+00  0.13694482427E+03  0.13694482427E+03  0.00000000000E+00 0. -1.
         21   -1    0    0  501  503 -0.00000000000E+00 -0.00000000000E+00 -0.53290561834E+03  0.53290561834E+03  0.00000000000E+00 0. -1.
          6    2    1    2  501    0 -0.29526581720E+02  0.79642213386E+02 -0.43101932887E+03  0.47292948511E+03  0.17512833822E+03 0.  0.
         24    2    3    3    0    0 -0.27577925348E+02  0.81362126557E+02 -0.44393761296E+03  0.45893922325E+03  0.78512857781E+02 0.  0.
         -6    2    1    2    0  502  0.29526581720E+02 -0.79642213386E+02  0.35058534798E+02  0.19692095751E+03  0.17416676337E+03 0.  0.
        -24    2    5    5    0    0  0.79052686484E+02 -0.20569809879E+02  0.29021186817E+02  0.11945532978E+03  0.82188212106E+02 0.  0.
          5    1    3    3  501    0 -0.19486563720E+01 -0.17199131711E+01  0.12918284091E+02  0.13990261857E+02  0.47000000000E+01 0. -1.
        -13    1    4    4    0    0  0.25346376233E+02  0.19756151654E+02 -0.83644833233E+02  0.89605817015E+02  0.00000000000E+00 0.  1.
         14    1    4    4    0    0 -0.52924301581E+02  0.61605974903E+02 -0.36029277972E+03  0.36933340624E+03  0.00000000000E+00 0. -1.
         -5    1    5    5    0  502 -0.49526104764E+02 -0.59072403507E+02  0.60373479815E+01  0.77465627731E+02  0.47000000000E+01 0.  1.
         11    1    6    6    0    0  0.27607595962E+02  0.20403311692E+02 -0.17852131968E+02  0.38693321110E+02  0.00000000000E+00 0. -1.
        -12    1    6    6    0    0  0.51445090522E+02 -0.40973121571E+02  0.46873318784E+02  0.80762008667E+02  0.00000000000E+00 0.  1.
</event>
<event>
12    1  0.8563264E-002  0.2552090E+03  0.7818608E-02  0.1110451E+00
         21   -1    0    0  501  502  0.00000000000E+00  0.00000000000E+00  0.92692924889E+03  0.92692924889E+03  0.00000000000E+00 0.  1.
         21   -1    0    0  502  503 -0.00000000000E+00 -0.00000000000E+00 -0.70376106901E+02  0.70376106901E+02  0.00000000000E+00 0.  1.
         -6    2    1    2    0  503  0.16141992447E+03 -0.97749455928E+02  0.37686473855E+03  0.45514685587E+03  0.17181467076E+03 0.  0.
        -24    2    3    3    0    0  0.90007500102E+02 -0.10816309606E+03  0.16830868460E+03  0.23440742600E+03  0.82573740559E+02 0.  0.
          6    2    1    2  501    0 -0.16141992447E+03  0.97749455928E+02  0.47968840344E+03  0.54215849993E+03  0.16799859077E+03 0.  0.
         24    2    5    5    0    0 -0.50668998131E+02  0.74868391536E+02  0.35238000754E+03  0.37180936298E+03  0.76797846731E+02 0.  0.
          5    1    5    5  501    0 -0.11075092634E+03  0.22881064391E+02  0.12730839589E+03  0.17034913695E+03  0.47000000000E+01 0. -1.
        -11    1    6    6    0    0 -0.97791623096E+01  0.47133088508E+01  0.18949751662E+03  0.18980820873E+03  0.00000000000E+00 0.  1.
         12    1    6    6    0    0 -0.40889835821E+02  0.70155082686E+02  0.16288249092E+03  0.18200115425E+03  0.00000000000E+00 0. -1.
         -5    1    3    3    0  503  0.71412424368E+02  0.10413640133E+02  0.20855605395E+03  0.22073942986E+03  0.47000000000E+01 0.  1.
         13    1    4    4    0    0  0.99965460529E+01 -0.71441649648E+02  0.53910262575E+02  0.90056408147E+02  0.00000000000E+00 0. -1.
        -14    1    4    4    0    0  0.80010954049E+02 -0.36721446413E+02  0.11439842202E+03  0.14435101786E+03  0.00000000000E+00 0.  1.
</event>
<event>
12    1  0.8563264E-002  0.2213144E+03  0.7818608E-02  0.1133017E+00
         21   -1    0    0  503  502  0.00000000000E+00  0.00000000000E+00  0.26290236697E+04  0.26290236697E+04  0.00000000000E+00 0.  1.
         21   -1    0    0  501  503 -0.00000000000E+00 -0.00000000000E+00 -0.76689591820E+02  0.76689591820E+02  0.00000000000E+00 0.  1.
          6    2    1    2  501    0 -0.12054034653E+02 -0.13871199656E+03  0.98962052536E+02  0.24243256112E+03  0.17202831485E+03 0.  0.
         24    2    3    3    0    0  0.62079209353E+01 -0.11065142658E+03  0.48120627803E+01  0.14239654171E+03  0.89282375954E+02 0.  0.
         -6    2    1    2    0  502  0.12054034653E+02  0.13871199656E+03  0.24533720253E+04  0.24632807004E+04  0.17126352931E+03 0.  0.
        -24    2    5    5    0    0 -0.20706529715E+02  0.12041513329E+03  0.11355599710E+04  0.11449261463E+04  0.80192692956E+02 0.  0.
          5    1    3    3  501    0 -0.18261955588E+02 -0.28060569983E+02  0.94149989756E+02  0.10003601942E+03  0.47000000000E+01 0. -1.
        -11    1    4    4    0    0 -0.34101942599E+02 -0.17932564168E+02 -0.10991407365E+02  0.40066574380E+02  0.00000000000E+00 0.  1.
         12    1    4    4    0    0  0.40309863534E+02 -0.92718862408E+02  0.15803470146E+02  0.10232996733E+03  0.00000000000E+00 0. -1.
         -5    1    5    5    0  502  0.32760564368E+02  0.18296863265E+02  0.13178120544E+04  0.13183545541E+04  0.47000000000E+01 0.  1.
         11    1    6    6    0    0  0.44834158202E+01  0.21562153360E+02  0.50651835683E+02  0.55232562253E+02  0.00000000000E+00 0. -1.
        -12    1    6    6    0    0 -0.25189945535E+02  0.98852979934E+02  0.10849081353E+04  0.10896935840E+04  0.00000000000E+00 0.  1.
</event>
<event>
12    1  0.8563264E-002  0.2021867E+03  0.7818608E-02  0.1149790E+00
         21   -1    0    0  501  502  0.00000000000E+00  0.00000000000E+00  0.36624762760E+02  0.36624762760E+02  0.00000000000E+00 0.  1.
         21   -1    0    0  502  503 -0.00000000000E+00 -0.00000000000E+00 -0.10688800038E+04  0.10688800038E+04  0.00000000000E+00 0.  1.
         -6    2    1    2    0  503  0.61961532059E+01 -0.89440995866E+02 -0.54431455931E+03  0.58065290875E+03  0.18122189966E+03 0.  0.
        -24    2    3    3    0    0  0.74243681560E+02 -0.33758151640E+02 -0.31710843970E+03  0.33698149877E+03  0.79668255484E+02 0.  0.
          6    2    1    2  501    0 -0.61961532059E+01  0.89440995866E+02 -0.48794068176E+03  0.52485185783E+03  0.17130464003E+03 0.  0.
         24    2    5    5    0    0  0.12895690631E+02  0.93740606617E+02 -0.19846783275E+03  0.23468017508E+03  0.82046960798E+02 0.  0.
          5    1    5    5  501    0 -0.19091843837E+02 -0.42996107507E+01 -0.28947284901E+03  0.29017168275E+03  0.47000000000E+01 0. -1.
        -13    1    6    6    0    0  0.35643204410E+02  0.56393150502E+02 -0.60901242807E+02  0.90330431305E+02  0.00000000000E+00 0.  1.
         14    1    6    6    0    0 -0.22747513779E+02  0.37347456114E+02 -0.13756658994E+03  0.14434974378E+03  0.00000000000E+00 0. -1.
         -5    1    3    3    0  503 -0.68047528354E+02 -0.55682844226E+02 -0.22720611960E+03  0.24367140998E+03  0.47000000000E+01 0.  1.
         11    1    4    4    0    0  0.13800300068E+02 -0.15590613626E+01 -0.14320350312E+01  0.13961721907E+02  0.00000000000E+00 0. -1.
        -12    1    4    4    0    0  0.60443381492E+02 -0.32199090277E+02 -0.31567640467E+03  0.32301977687E+03  0.00000000000E+00 0.  1.
</event>
<event>
12    1  0.8563264E-002  0.2025904E+03  0.7818608E-02  0.1147689E+00
         21   -1    0    0  503  502  0.00000000000E+00  0.00000000000E+00  0.44527382132E+03  0.44527382132E+03  0.00000000000E+00 0. -1.
         21   -1    0    0  501  503 -0.00000000000E+00 -0.00000000000E+00 -0.95545078583E+02  0.95545078583E+02  0.00000000000E+00 0.  1.
          6    2    1    2  501    0 -0.10099692326E+03  0.36470217946E+02  0.22778526355E+03  0.30484256684E+03  0.17179176046E+03 0.  0.
         24    2    3    3    0    0 -0.14574453325E+02 -0.91361476115E+01  0.17803840527E+03  0.19509000970E+03  0.77888087992E+02 0.  0.
         -6    2    1    2    0  502  0.10099692326E+03 -0.36470217946E+02  0.12194347919E+03  0.23597633306E+03  0.17112615914E+03 0.  0.
        -24    2    5    5    0    0 -0.71941344000E+01 -0.96517813156E+00  0.16911275501E+02  0.80993215846E+02  0.78874727482E+02 0.  0.
          5    1    3    3  501    0 -0.86422469938E+02  0.45606365557E+02  0.49746858273E+02  0.10975255713E+03  0.47000000000E+01 0. -1.
        -13    1    4    4    0    0  0.65790098590E+01 -0.28769003072E+02  0.23074623924E+02  0.37461676120E+02  0.00000000000E+00 0.  1.
         14    1    4    4    0    0 -0.21153463184E+02  0.19632855461E+02  0.15496378135E+03  0.15762833358E+03  0.00000000000E+00 0. -1.
         -5    1    5    5    0  502  0.10819105766E+03 -0.35505039814E+02  0.10503220369E+03  0.15498311721E+03  0.47000000000E+01 0.  1.
         13    1    6    6    0    0  0.59829489112E+01 -0.13035691367E+02  0.45262189786E+02  0.47480424927E+02  0.00000000000E+00 0. -1.
        -14    1    6    6    0    0 -0.13177083311E+02  0.12070513235E+02 -0.28350914285E+02  0.33512790918E+02  0.00000000000E+00 0.  1.
</event>
<event>
12    1  0.8563264E-002  0.1794665E+03  0.7818608E-02  0.1169126E+00
         21   -1    0    0  503  502  0.00000000000E+00  0.00000000000E+00  0.11744901716E+03  0.11744901716E+03  0.00000000000E+00 0.  1.
         21   -1    0    0  501  503 -0.00000000000E+00 -0.00000000000E+00 -0.41025279163E+03  0.41025279163E+03  0.00000000000E+00 0.  1.
          6    2    1    2  501    0 -0.73093399801E+01 -0.35118898243E+02 -0.30197870023E+03  0.35128246917E+03  0.17584502920E+03 0.  0.
         24    2    3    3    0    0 -0.35185724845E+02 -0.56174643175E+02 -0.29842524230E+03  0.31585431242E+03  0.79452474236E+02 0.  0.
         -6    2    1    2    0  502  0.73093399801E+01  0.35118898243E+02  0.91749257603E+01  0.17641933962E+03  0.17249011759E+03 0.  0.
        -24    2    5    5    0    0 -0.38298828263E+02  0.62483369007E+02 -0.26608872761E+02  0.11214267584E+03  0.80603821157E+02 0.  0.
          5    1    3    3  501    0  0.27876384865E+02  0.21055744932E+02 -0.35534579243E+01  0.35428156754E+02  0.47000000000E+01 0. -1.
        -13    1    4    4    0    0 -0.52231298985E+02 -0.14062302281E+02 -0.20428569570E+03  0.21132558390E+03  0.00000000000E+00 0.  1.
         14    1    4    4    0    0  0.17045574140E+02 -0.42112340894E+02 -0.94139546597E+02  0.10452872852E+03  0.00000000000E+00 0. -1.
         -5    1    5    5    0  502  0.45608168243E+02 -0.27364470764E+02  0.35783798522E+02  0.64276663785E+02  0.47000000000E+01 0.  1.
         13    1    6    6    0    0  0.14572790074E+00 -0.14718426783E+02  0.10676607047E+02  0.18183598698E+02  0.00000000000E+00 0. -1.
        -14    1    6    6    0    0 -0.38444556164E+02  0.77201795790E+02 -0.37285479808E+02  0.93959077137E+02  0.00000000000E+00 0.  1.
</event>
<event>
12    1  0.8563264E-002  0.2132789E+03  0.7818608E-02  0.1139672E+00
         21   -1    0    0  503  502  0.00000000000E+00  0.00000000000E+00  0.36602683951E+03  0.36602683951E+03  0.00000000000E+00 0. -1.
         21   -1    0    0  501  503 -0.00000000000E+00 -0.00000000000E+00 -0.24802218313E+03  0.24802218313E+03  0.00000000000E+00 0.  1.
          6    2    1    2  501    0 -0.12153318581E+03  0.17526599861E+02 -0.15985175547E+03  0.26377473700E+03  0.17013827082E+03 0.  0.
         24    2    3    3    0    0 -0.53158014165E+02  0.56844850740E+01 -0.16799724382E+03  0.19374732265E+03  0.80354609466E+02 0.  0.
         -6    2    1    2    0  502  0.12153318581E+03 -0.17526599861E+02  0.27785641185E+03  0.35027428564E+03  0.17438575807E+03 0.  0.
        -24    2    5    5    0    0  0.38269765724E+02 -0.68926970115E+02  0.12080099254E+03  0.16517082830E+03  0.80455084012E+02 0.  0.
          5    1    3    3  501    0 -0.68375171642E+02  0.11842114787E+02  0.81454883562E+01  0.70027414348E+02  0.47000000000E+01 0. -1.
        -11    1    4    4    0    0  0.93924954236E+01 -0.24421915554E+02 -0.34727279295E+02  0.43481408175E+02  0.00000000000E+00 0.  1.
         12    1    4    4    0    0 -0.62550509588E+02  0.30106400628E+02 -0.13326996453E+03  0.15026591448E+03  0.00000000000E+00 0. -1.
         -5    1    5    5    0  502  0.83263420083E+02  0.51400370254E+02  0.15705541931E+03  0.18510345734E+03  0.47000000000E+01 0.  1.
         11    1    6    6    0    0  0.29488909631E+02 -0.84355832030E+01  0.93173069693E+02  0.98091670243E+02  0.00000000000E+00 0. -1.
        -12    1    6    6    0    0  0.87808560931E+01 -0.60491386912E+02  0.27627922851E+02  0.67079158054E+02  0.00000000000E+00 0.  1.
</event>
<event>
12    1  0.8563264E-002  0.1978555E+03  0.7818608E-02  0.1152867E+00
         21   -1    0    0  503  502  0.00000000000E+00  0.00000000000E+00  0.45403506577E+03  0.45403506577E+03  0.00000000000E+00 0. -1.
         21   -1    0    0  501  503 -0.00000000000E+00 -0.00000000000E+00 -0.25711617817E+03  0.25711617817E+03  0.00000000000E+00 0. -1.
          6    2    1    2  501    0  0.37937840690E+02 -0.92068653875E+02 -0.19410717237E+03  0.27291823742E+03  0.16398430769E+03 0.  0.
         24    2    3    3    0    0 -0.27802110176E+02 -0.11589624594E+02 -0.11503002564E+03  0.14225110143E+03  0.78078116847E+02 0.  0.
         -6    2    1    2    0  502 -0.37937840690E+02  0.92068653875E+02  0.39102605997E+03  0.43823300652E+03  0.17097038237E+03 0.  0.
        -24    2    5    5    0    0  0.45483822420E+01  0.10621070405E+03  0.18778750291E+03  0.23006702035E+03  0.79782743553E+02 0.  0.
          5    1    3    3  501    0  0.65739950866E+02 -0.80479029281E+02 -0.79077146733E+02  0.13066713600E+03  0.47000000000E+01 0. -1.
        -11    1    4    4    0    0 -0.27086342980E+02 -0.26164653861E+02 -0.14008096610E+02  0.40180665230E+02  0.00000000000E+00 0.  1.
         12    1    4    4    0    0 -0.71576719605E+00  0.14575029267E+02 -0.10102192903E+03  0.10207043620E+03  0.00000000000E+00 0. -1.
         -5    1    5    5    0  502 -0.42486222932E+02 -0.14142050178E+02  0.20323855706E+03  0.20816598617E+03  0.47000000000E+01 0.  1.
         11    1    6    6    0    0  0.20157198420E+02  0.61113523063E+02  0.42442035253E+02  0.77087623557E+02  0.00000000000E+00 0. -1.
        -12    1    6    6    0    0 -0.15608816178E+02  0.45097180990E+02  0.14534546766E+03  0.15297939680E+03  0.00000000000E+00 0.  1.
</event>
<event>
12    1  0.8563264E-002  0.1919747E+03  0.7818608E-02  0.1156906E+00
         21   -1    0    0  501  502  0.00000000000E+00  0.00000000000E+00  0.18388926095E+03  0.18388926095E+03  0.00000000000E+00 0.  1.
         21   -1    0    0  502  503 -0.00000000000E+00 -0.00000000000E+00 -0.20044804009E+03  0.20044804009E+03  0.00000000000E+00 0.  1.
         -6    2    1    2    0  503 -0.76414917954E+02 -0.34841815770E+02 -0.22046186396E+02  0.19228415953E+03  0.17156331734E+03 0.  0.
        -24    2    3    3    0    0 -0.49177414703E+02 -0.34392785826E+02  0.52951433330E+02  0.11235408899E+03  0.78856231125E+02 0.  0.
          6    2    1    2  501    0  0.76414917954E+02  0.34841815770E+02  0.54874072520E+01  0.19205314151E+03  0.17262996760E+03 0.  0.
         24    2    5    5    0    0  0.12172799808E+03  0.25392090217E+02 -0.47003530977E+00  0.14514734586E+03  0.74866997511E+02 0.  0.
          5    1    5    5  501    0 -0.45313080125E+02  0.94497255530E+01  0.59574425617E+01  0.46905795648E+02  0.47000000000E+01 0. -1.
        -13    1    6    6    0    0  0.11176092989E+03  0.43128004374E+02  0.13375828782E+02  0.12053813922E+03  0.00000000000E+00 0.  1.
         14    1    6    6    0    0  0.99670681939E+01 -0.17735914157E+02 -0.13845864092E+02  0.24609206648E+02  0.00000000000E+00 0. -1.
         -5    1    3    3    0  503 -0.27237503251E+02 -0.44902994414E+00 -0.74997619726E+02  0.79930070535E+02  0.47000000000E+01 0.  1.
         13    1    4    4    0    0 -0.26797938181E+02 -0.54417099978E+02  0.12430246774E+02  0.61918182270E+02  0.00000000000E+00 0. -1.
        -14    1    4    4    0    0 -0.22379476523E+02  0.20024314153E+02  0.40521186556E+02  0.50435906720E+02  0.00000000000E+00 0.  1.
</event>
<event>
12    1  0.8563264E-002  0.1721579E+03  0.7818608E-02  0.1175889E+00
         21   -1    0    0  503  502  0.00000000000E+00  0.00000000000E+00  0.97779566691E+03  0.97779566691E+03  0.00000000000E+00 0.  1.
         21   -1    0    0  501  503 -0.00000000000E+00 -0.00000000000E+00 -0.31489607886E+02  0.31489607886E+02  0.00000000000E+00 0.  1.
          6    2    1    2  501    0 -0.12040195924E+01 -0.56060318240E+01  0.36949669977E+03  0.40763481818E+03  0.17206236251E+03 0.  0.
         24    2    3    3    0    0 -0.17676392453E+02 -0.59486854922E+02  0.30765562074E+03  0.32384405961E+03  0.79823888744E+02 0.  0.
         -6    2    1    2    0  502  0.12040195924E+01  0.56060318240E+01  0.57680935926E+03  0.60165045662E+03  0.17100104611E+03 0.  0.
        -24    2    5    5    0    0 -0.33639753170E+02 -0.35575009319E+02  0.23465220597E+03  0.25523513624E+03  0.87670421031E+02 0.  0.
          5    1    3    3  501    0  0.16472372860E+02  0.53880823098E+02  0.61841079034E+02  0.83790758568E+02  0.47000000000E+01 0. -1.
        -11    1    4    4    0    0 -0.39151042734E+02 -0.41232910483E+02  0.27450398031E+03  0.28033086212E+03  0.00000000000E+00 0.  1.
         12    1    4    4    0    0  0.21474650281E+02 -0.18253944439E+02  0.33151640430E+02  0.43513197486E+02  0.00000000000E+00 0. -1.
         -5    1    5    5    0  502  0.34843772762E+02  0.41181041143E+02  0.34215715328E+03  0.34641532038E+03  0.47000000000E+01 0.  1.
         11    1    6    6    0    0 -0.42068226915E+02 -0.25400807092E+02  0.23680391942E+03  0.24184919469E+03  0.00000000000E+00 0. -1.
        -12    1    6    6    0    0  0.84284737448E+01 -0.10174202227E+02 -0.21517134483E+01  0.13385941558E+02  0.00000000000E+00 0.  1.
</event>
<event>
12    1  0.8563264E-002  0.2175544E+03  0.7818608E-02  0.1135728E+00
         21   -1    0    0  501  502  0.00000000000E+00  0.00000000000E+00  0.11446523539E+03  0.11446523539E+03  0.00000000000E+00 0. -1.
         21   -1    0    0  502  503 -0.00000000000E+00 -0.00000000000E+00 -0.64045291560E+03  0.64045291560E+03  0.00000000000E+00 0. -1.
         -6    2    1    2    0  503 -0.13325716520E+03 -0.83507226611E+01 -0.48775296609E+03  0.53407198111E+03  0.17176355387E+03 0.  0.
        -24    2    3    3    0    0 -0.14257231402E+03 -0.84067537909E+01 -0.49525767118E+03  0.52121952082E+03  0.77408589890E+02 0.  0.
          6    2    1    2  501    0  0.13325716520E+03  0.83507226611E+01 -0.38234714115E+02  0.22084616988E+03  0.17170885458E+03 0.  0.
         24    2    5    5    0    0  0.80564198572E+02 -0.39988570487E+02 -0.73866660078E+02  0.14081516609E+03  0.79265072188E+02 0.  0.
          5    1    5    5  501    0  0.52692966626E+02  0.48339293148E+02  0.35631945962E+02  0.80031003786E+02  0.47000000000E+01 0. -1.
        -13    1    6    6    0    0  0.50064596231E+02 -0.55169209606E+02 -0.20098954488E+02  0.77162642878E+02  0.00000000000E+00 0.  1.
         14    1    6    6    0    0  0.30499602341E+02  0.15180639119E+02 -0.53767705590E+02  0.63652523213E+02  0.00000000000E+00 0. -1.
         -5    1    3    3    0  503  0.93151488192E+01  0.56031129832E-01  0.75047050937E+01  0.12852460292E+02  0.47000000000E+01 0.  1.
         11    1    4    4    0    0 -0.12587041218E+03 -0.28110424259E+02 -0.33640035355E+03  0.36027594214E+03  0.00000000000E+00 0. -1.
        -12    1    4    4    0    0 -0.16701901837E+02  0.19703670468E+02 -0.15885731763E+03  0.16094357869E+03  0.00000000000E+00 0.  1.
</event>
<event>
12    1  0.8563264E-002  0.1948926E+03  0.7818608E-02  0.1154363E+00
         21   -1    0    0  503  502  0.00000000000E+00  0.00000000000E+00  0.87533395258E+03  0.87533395258E+03  0.00000000000E+00 0.  1.
         21   -1    0    0  501  503 -0.00000000000E+00 -0.00000000000E+00 -0.10624958633E+03  0.10624958633E+03  0.00000000000E+00 0. -1.
          6    2    1    2  501    0 -0.13696790639E+02  0.89785360752E+02  0.67556051537E+01  0.19500968884E+03  0.17243586478E+03 0.  0.
         24    2    3    3    0    0  0.43508414765E+02  0.83331583700E+02  0.42519978266E+02  0.12707393134E+03  0.74180189247E+02 0.  0.
         -6    2    1    2    0  502  0.13696790639E+02 -0.89785360752E+02  0.76232876110E+03  0.78657385006E+03  0.17118489573E+03 0.  0.
        -24    2    5    5    0    0  0.63894600066E+02 -0.23863499263E+02  0.27962473441E+03  0.29678738712E+03  0.72393194080E+02 0.  0.
          5    1    3    3  501    0 -0.57205205404E+02  0.64537770525E+01 -0.35764373112E+02  0.67935757504E+02  0.47000000000E+01 0. -1.
        -13    1    4    4    0    0 -0.45319769995E+01  0.34292460253E+02  0.46910218213E+02  0.58284476651E+02  0.00000000000E+00 0.  1.
         14    1    4    4    0    0  0.48040391765E+02  0.49039123446E+02 -0.43902399473E+01  0.68789454687E+02  0.00000000000E+00 0. -1.
         -5    1    5    5    0  502 -0.50197809427E+02 -0.65921861489E+02  0.48270402669E+03  0.48978646294E+03  0.47000000000E+01 0.  1.
         11    1    6    6    0    0  0.34863901792E+02 -0.38051069411E+02  0.84559373804E+02  0.99063935060E+02  0.00000000000E+00 0. -1.
        -12    1    6    6    0    0  0.29030698275E+02  0.14187570148E+02  0.19506536060E+03  0.19772345206E+03  0.00000000000E+00 0.  1.
</event>
<event>
12    1  0.8563264E-002  0.1951973E+03  0.7818608E-02  0.1154520E+00
         21   -1    0    0  501  502  0.00000000000E+00  0.00000000000E+00  0.14976844003E+03  0.14976844003E+03  0.00000000000E+00 0.  1.
         21   -1    0    0  502  503 -0.00000000000E+00 -0.00000000000E+00 -0.30700673093E+03  0.30700673093E+03  0.00000000000E+00 0.  1.
         -6    2    1    2    0  503 -0.39110348527E+01 -0.86199365035E+02 -0.17712235961E+03  0.26357983402E+03  0.17508961106E+03 0.  0.
        -24    2    3    3    0    0 -0.23104110019E+02  0.13939306317E+02 -0.12133886978E+03  0.14726123975E+03  0.78959782503E+02 0.  0.
          6    2    1    2  501    0  0.39110348527E+01  0.86199365035E+02  0.19884068704E+02  0.19319533694E+03  0.17170741190E+03 0.  0.
         24    2    5    5    0    0 -0.10320796576E+01  0.11271224951E+03  0.54831540632E+02  0.14880183271E+03  0.80189595286E+02 0.  0.
          5    1    5    5  501    0  0.49431145103E+01 -0.26512884471E+02 -0.34947471928E+02  0.44393504234E+02  0.47000000000E+01 0. -1.
        -11    1    6    6    0    0 -0.22336724297E+02  0.78923528740E+02  0.13306965556E+01  0.82034281824E+02  0.00000000000E+00 0.  1.
         12    1    6    6    0    0  0.21304644639E+02  0.33788720766E+02  0.53500844076E+02  0.66767550884E+02  0.00000000000E+00 0. -1.
         -5    1    3    3    0  503  0.19193075166E+02 -0.10013867135E+03 -0.55783489834E+02  0.11631859427E+03  0.47000000000E+01 0.  1.
         13    1    4    4    0    0 -0.13763986607E+01 -0.27180709085E+01 -0.11980123663E+03  0.11983997113E+03  0.00000000000E+00 0. -1.
        -14    1    4    4    0    0 -0.21727711358E+02  0.16657377226E+02 -0.15376331484E+01  0.27421268617E+02  0.00000000000E+00 0.  1.
</event>
<event>
12    1  0.8563264E-002  0.2101857E+03  0.7818608E-02  0.1142373E+00
         21   -1    0    0  501  502  0.00000000000E+00  0.00000000000E+00  0.13245460822E+04  0.13245460822E+04  0.00000000000E+00 0.  1.
         21   -1    0    0  502  503 -0.00000000000E+00 -0.00000000000E+00 -0.63549107841E+02  0.63549107841E+02  0.00000000000E+00 0.  1.
         -6    2    1    2    0  503  0.12028882489E+03  0.67908644022E+01  0.14988548094E+03  0.25815438837E+03  0.17222808600E+03 0.  0.
        -24    2    3    3    0    0  0.91313585542E+02  0.70074691760E+02  0.99343389149E+02  0.17200916017E+03  0.80432635688E+02 0.  0.
          6    2    1    2  501    0 -0.12028882489E+03 -0.67908644022E+01  0.11111114934E+04  0.11299408017E+04  0.16637892662E+03 0.  0.
         24    2    5    5    0    0 -0.12776893618E+03  0.11864211979E+02  0.10902328626E+04  0.11005814562E+04  0.78779353378E+02 0.  0.
          5    1    5    5  501    0  0.74801112885E+01 -0.18655076381E+02  0.20878630822E+02  0.29359345440E+02  0.47000000000E+01 0. -1.
        -11    1    6    6    0    0 -0.74695085479E+02  0.42570680001E+02  0.51973834527E+03  0.52680125867E+03  0.00000000000E+00 0.  1.
         12    1    6    6    0    0 -0.53073850702E+02 -0.30706468022E+02  0.57049451734E+03  0.57378019757E+03  0.00000000000E+00 0. -1.
         -5    1    3    3    0  503  0.28975239350E+02 -0.63283827358E+02  0.50542091786E+02  0.86145228206E+02  0.47000000000E+01 0.  1.
         11    1    4    4    0    0  0.56441261221E+02  0.39599698004E+01  0.73851369274E+02  0.93033983429E+02  0.00000000000E+00 0. -1.
        -12    1    4    4    0    0  0.34872324321E+02  0.66114721960E+02  0.25492019874E+02  0.78975176737E+02  0.00000000000E+00 0.  1.
</event>
<event>
12    1  0.8563264E-002  0.2268360E+03  0.7818608E-02  0.1128896E+00
         21   -1    0    0  501  502  0.00000000000E+00  0.00000000000E+00  0.18742794446E+04  0.18742794446E+04  0.00000000000E+00 0. -1.
         21   -1    0    0  502  503 -0.00000000000E+00 -0.00000000000E+00 -0.63407213090E+02  0.63407213090E+02  0.00000000000E+00 0. -1.
         -6    2    1    2    0  503 -0.13923668056E+03  0.50925523121E+02  0.17586021911E+03  0.28702159385E+03  0.17168085669E+03 0.  0.
        -24    2    3    3    0    0 -0.12628551080E+03  0.90611753367E+02  0.17143775449E+03  0.24477969685E+03  0.79797720753E+02 0.  0.
          6    2    1    2  501    0  0.13923668056E+03 -0.50925523121E+02  0.16350120124E+04  0.16506650638E+04  0.17161180077E+03 0.  0.
         24    2    5    5    0    0  0.91779031494E+02  0.37347397123E+02  0.93825977217E+03  0.94672606707E+03  0.78362154809E+02 0.  0.
          5    1    5    5  501    0  0.47457649065E+02 -0.88272920244E+02  0.69675224019E+03  0.70393899672E+03  0.47000000000E+01 0. -1.
        -11    1    6    6    0    0  0.24486824089E+02 -0.18112707949E+02  0.11889919256E+03  0.12273830997E+03  0.00000000000E+00 0.  1.
         12    1    6    6    0    0  0.67292207405E+02  0.55460105072E+02  0.81936057961E+03  0.82398775710E+03  0.00000000000E+00 0. -1.
         -5    1    3    3    0  503 -0.12951169756E+02 -0.39686230246E+02  0.44224646175E+01  0.42241897004E+02  0.47000000000E+01 0.  1.
         11    1    4    4    0    0 -0.11849710975E+03  0.65046191467E+02  0.98950091348E+02  0.16752221530E+03  0.00000000000E+00 0. -1.
        -12    1    4    4    0    0 -0.77884010539E+01  0.25565561900E+02  0.72487663147E+02  0.77257481546E+02  0.00000000000E+00 0.  1.
</event>
<event>
12    1  0.8563264E-002  0.2863202E+03  0.7818608E-02  0.1093165E+00
         21   -1    0    0  501  502  0.00000000000E+00  0.00000000000E+00  0.38874842631E+03  0.38874842631E+03  0.00000000000E+00 0. -1.
         21   -1    0    0  502  503 -0.00000000000E+00 -0.00000000000E+00 -0.23717258256E+03  0.23717258256E+03  0.00000000000E+00 0.  1.
         -6    2    1    2    0  503  0.21780860640E+03  0.30683014754E+02  0.18984233067E+03  0.34353943516E+03  0.18329538069E+03 0.  0.
        -24    2    3    3    0    0  0.19069466714E+03  0.84061488527E+02  0.17033808962E+03  0.28039727347E+03  0.78592469505E+02 0.  0.
          6    2    1    2  501    0 -0.21780860640E+03 -0.30683014754E+02 -0.38266486923E+02  0.28238157371E+03  0.17289590143E+03 0.  0.
         24    2    5    5    0    0 -0.72191184322E+02  0.49718780015E+01  0.42452335564E+02  0.11204859600E+03  0.74272474086E+02 0.  0.
          5    1    5    5  501    0 -0.14561742208E+03 -0.35654892755E+02 -0.80718822487E+02  0.17033297770E+03  0.47000000000E+01 0. -1.
        -13    1    6    6    0    0 -0.54962694095E+02  0.15437492610E+02 -0.80663936156E+01  0.57656574874E+02  0.00000000000E+00 0.  1.
         14    1    6    6    0    0 -0.17228490228E+02 -0.10465614608E+02  0.50518729180E+02  0.54392021130E+02  0.00000000000E+00 0. -1.
         -5    1    3    3    0  503  0.27113939263E+02 -0.53378473773E+02  0.19504241048E+02  0.63142161695E+02  0.47000000000E+01 0.  1.
         11    1    4    4    0    0  0.15050975100E+03  0.28184767936E+02  0.12811159503E+03  0.19965006154E+03  0.00000000000E+00 0. -1.
        -12    1    4    4    0    0  0.40184916133E+02  0.55876720591E+02  0.42226494593E+02  0.80747211929E+02  0.00000000000E+00 0.  1.
</event>
<event>
12    1  0.8563264E-002  0.2064673E+03  0.7818608E-02  0.1144445E+00
         21   -1    0    0  501  502  0.00000000000E+00  0.00000000000E+00  0.79811860035E+03  0.79811860035E+03  0.00000000000E+00 0.  1.
         21   -1    0    0  502  503 -0.00000000000E+00 -0.00000000000E+00 -0.66941409392E+02  0.66941409392E+02  0.00000000000E+00 0.  1.
         -6    2    1    2    0  503 -0.64996066801E+01  0.11291919961E+03  0.17049333845E+03  0.26756931417E+03  0.17243076553E+03 0.  0.
        -24    2    3    3    0    0 -0.53107348091E+01 -0.97586572495E+01  0.54397518652E+02  0.98597129018E+02  0.81479252080E+02 0.  0.
          6    2    1    2  501    0  0.64996066801E+01 -0.11291919961E+03  0.56068385251E+03  0.59749069557E+03  0.17273030513E+03 0.  0.
         24    2    5    5    0    0  0.13734822181E+01  0.90498124986E+01  0.16347678889E+03  0.18192089584E+03  0.79289130890E+02 0.  0.
          5    1    5    5  501    0  0.51261244620E+01 -0.12196901211E+03  0.39720706361E+03  0.41556979973E+03  0.47000000000E+01 0. -1.
        -11    1    6    6    0    0 -0.11834618219E+02 -0.14003693940E+02  0.21953914107E+01  0.18465681027E+02  0.00000000000E+00 0.  1.
         12    1    6    6    0    0  0.13208100437E+02  0.23053506438E+02  0.16128139748E+03  0.16345521482E+03  0.00000000000E+00 0. -1.
         -5    1    3    3    0  503 -0.11888718709E+01  0.12267785686E+03  0.11609581980E+03  0.16897218515E+03  0.47000000000E+01 0.  1.
         13    1    4    4    0    0  0.36195066762E+02 -0.47494230136E+01  0.40538632961E+02  0.54552915955E+02  0.00000000000E+00 0. -1.
        -14    1    4    4    0    0 -0.41505801571E+02 -0.50092342359E+01  0.13858885691E+02  0.44044213063E+02  0.00000000000E+00 0.  1.
</event>
<event>
12    1  0.8563264E-002  0.2076106E+03  0.7818608E-02  0.1143903E+00
         21   -1    0    0  503  502  0.00000000000E+00  0.00000000000E+00  0.62170257314E+03  0.62170257314E+03  0.00000000000E+00 0. -1.
         21   -1    0    0  501  503 -0.00000000000E+00 -0.00000000000E+00 -0.69072342836E+02  0.69072342836E+02  0.00000000000E+00 0. -1.
          6    2    1    2  501    0 -0.54406156569E+02  0.10279817380E+03  0.24973401961E+03  0.32476030712E+03  0.17197291101E+03 0.  0.
         24    2    3    3    0    0 -0.17794007954E+02  0.26905866591E+02  0.21893310553E+03  0.23492224154E+03  0.78842897550E+02 0.  0.
         -6    2    1    2    0  502  0.54406156569E+02 -0.10279817380E+03  0.30289621070E+03  0.36601460886E+03  0.16939033335E+03 0.  0.
        -24    2    5    5    0    0  0.80386356395E+02 -0.12304638616E+03  0.27712798643E+03  0.32393073702E+03  0.80801126758E+02 0.  0.
          5    1    3    3  501    0 -0.36612148615E+02  0.75892307210E+02  0.30800914072E+02  0.89838065582E+02  0.47000000000E+01 0. -1.
        -13    1    4    4    0    0  0.64809148286E+01 -0.25899662874E+02  0.59096482000E+02  0.64847428467E+02  0.00000000000E+00 0.  1.
         14    1    4    4    0    0 -0.24274922783E+02  0.52805529465E+02  0.15983662353E+03  0.17007481307E+03  0.00000000000E+00 0. -1.
         -5    1    5    5    0  502 -0.25980199826E+02  0.20248212356E+02  0.25768224273E+02  0.42083871837E+02  0.47000000000E+01 0.  1.
         11    1    6    6    0    0  0.11939822935E+02 -0.90521549498E+02  0.13730109097E+03  0.16488875000E+03  0.00000000000E+00 0. -1.
        -12    1    6    6    0    0  0.68446533460E+02 -0.32524836659E+02  0.13982689545E+03  0.15904198702E+03  0.00000000000E+00 0.  1.
</event>
<event>
12    1  0.8563264E-002  0.3649463E+03  0.7818608E-02  0.1056677E+00
         21   -1    0    0  501  502  0.00000000000E+00  0.00000000000E+00  0.80248811068E+03  0.80248811068E+03  0.00000000000E+00 0. -1.
         21   -1    0    0  502  503 -0.00000000000E+00 -0.00000000000E+00 -0.16969517863E+03  0.16969517863E+03  0.00000000000E+00 0.  1.
         -6    2    1    2    0  503 -0.32005735415E+03 -0.33320390825E+02  0.24294295554E+03  0.43841429743E+03  0.17215939752E+03 0.  0.
        -24    2    3    3    0    0 -0.30676061762E+03 -0.72482004878E+02  0.21139509819E+03  0.38618602423E+03  0.71386554927E+02 0.  0.
          6    2    1    2  501    0  0.32005735415E+03  0.33320390825E+02  0.38984997651E+03  0.53376899188E+03  0.17140412517E+03 0.  0.
         24    2    5    5    0    0  0.11444243562E+03  0.47701704210E+02  0.23038047096E+03  0.27312185475E+03  0.78408306233E+02 0.  0.
          5    1    5    5  501    0  0.20561491853E+03 -0.14381313385E+02  0.15946950555E+03  0.26064713714E+03  0.47000000000E+01 0. -1.
        -11    1    6    6    0    0  0.94484908221E+02  0.48871799901E+02  0.11756088030E+03  0.15854466652E+03  0.00000000000E+00 0.  1.
         12    1    6    6    0    0  0.19957527395E+02 -0.11700956911E+01  0.11281959066E+03  0.11457718822E+03  0.00000000000E+00 0. -1.
         -5    1    3    3    0  503 -0.13296736533E+02  0.39161614053E+02  0.31547857353E+02  0.52228273198E+02  0.47000000000E+01 0.  1.
         13    1    4    4    0    0 -0.88366013186E+02 -0.52638605675E+02  0.82175829477E+02  0.13165197319E+03  0.00000000000E+00 0. -1.
        -14    1    4    4    0    0 -0.21839460443E+03 -0.19843399203E+02  0.12921926871E+03  0.25453405105E+03  0.00000000000E+00 0.  1.
</event>
<event>
12    1  0.8563264E-002  0.1996524E+03  0.7818608E-02  0.1150174E+00
         21   -1    0    0  501  502  0.00000000000E+00  0.00000000000E+00  0.32678000269E+03  0.32678000269E+03  0.00000000000E+00 0. -1.
         21   -1    0    0  502  503 -0.00000000000E+00 -0.00000000000E+00 -0.13005023906E+03  0.13005023906E+03  0.00000000000E+00 0. -1.
         -6    2    1    2    0  503 -0.53202730789E+02  0.87533120789E+02  0.39898113974E+02  0.20294595346E+03  0.17059490828E+03 0.  0.
        -24    2    3    3    0    0 -0.49872832007E+02  0.25693857499E+02 -0.36613816755E+02  0.10439978025E+03  0.80070399363E+02 0.  0.
          6    2    1    2  501    0  0.53202730789E+02 -0.87533120789E+02  0.15683164965E+03  0.25388428829E+03  0.17137236565E+03 0.  0.
         24    2    5    5    0    0  0.87346524460E+02 -0.21891823069E+02  0.12325906892E+03  0.17249763834E+03  0.80336603793E+02 0.  0.
          5    1    5    5  501    0 -0.34143793671E+02 -0.65641297720E+02  0.33572580729E+02  0.81386649946E+02  0.47000000000E+01 0. -1.
        -11    1    6    6    0    0 -0.41578931951E+01  0.16284490885E+02  0.38683414760E+02  0.42176762520E+02  0.00000000000E+00 0.  1.
         12    1    6    6    0    0  0.91504417655E+02 -0.38176313954E+02  0.84575654161E+02  0.13032087582E+03  0.00000000000E+00 0. -1.
         -5    1    3    3    0  503 -0.33298987828E+01  0.61839263290E+02  0.76511930728E+02  0.98546173208E+02  0.47000000000E+01 0.  1.
         11    1    4    4    0    0  0.29231197917E+00  0.24199867823E+02  0.18049873333E+02  0.30191339425E+02  0.00000000000E+00 0. -1.
        -12    1    4    4    0    0 -0.50165143986E+02  0.14939896758E+01 -0.54663690088E+02  0.74208440829E+02  0.00000000000E+00 0.  1.
</event>
<event>
12    1  0.8563264E-002  0.1780994E+03  0.7818608E-02  0.1169823E+00
         21   -1    0    0  501  502  0.00000000000E+00  0.00000000000E+00  0.22396232300E+03  0.22396232300E+03  0.00000000000E+00 0. -1.
         21   -1    0    0  502  503 -0.00000000000E+00 -0.00000000000E+00 -0.14165098977E+03  0.14165098977E+03  0.00000000000E+00 0. -1.
         -6    2    1    2    0  503  0.37656251894E+01  0.41627399339E+02  0.29540168095E+02  0.17986023124E+03  0.17242407298E+03 0.  0.
        -24    2    3    3    0    0  0.32684990524E+02 -0.35059123449E+02  0.71438723012E+01  0.94767126152E+02  0.81439072594E+02 0.  0.
          6    2    1    2  501    0 -0.37656251894E+01 -0.41627399339E+02  0.52771165136E+02  0.18575308152E+03  0.17312536243E+03 0.  0.
         24    2    5    5    0    0 -0.54299790967E+02  0.91544378676E+00 -0.49552917928E+01  0.97900766577E+02  0.81306210361E+02 0.  0.
          5    1    5    5  501    0  0.50534165778E+02 -0.42542843126E+02  0.57726456928E+02  0.87852314947E+02  0.47000000000E+01 0. -1.
        -11    1    6    6    0    0 -0.10604247283E+02  0.21006589090E+02 -0.34274752078E+02  0.41575058336E+02  0.00000000000E+00 0.  1.
         12    1    6    6    0    0 -0.43695543684E+02 -0.20091145303E+02  0.29319460286E+02  0.56325708241E+02  0.00000000000E+00 0. -1.
         -5    1    3    3    0  503 -0.28919365334E+02  0.76686522788E+02  0.22396295794E+02  0.85093105090E+02  0.47000000000E+01 0.  1.
         13    1    4    4    0    0  0.26400597832E+02  0.13913172327E+02 -0.22323811980E+02  0.37268223884E+02  0.00000000000E+00 0. -1.
        -14    1    4    4    0    0  0.62843926912E+01 -0.48972295776E+02  0.29467684282E+02  0.57498902268E+02  0.00000000000E+00 0.  1.
</event>
<event>
12    1  0.8563264E-002  0.1931519E+03  0.7818608E-02  0.1156928E+00
         21   -1    0    0  503  502  0.00000000000E+00  0.00000000000E+00  0.64738983619E+02  0.64738983619E+02  0.00000000000E+00 0.  1.
         21   -1    0    0  501  503 -0.00000000000E+00 -0.00000000000E+00 -0.59854255886E+03  0.59854255886E+03  0.00000000000E+00 0.  1.
          6    2    1    2  501    0 -0.38765380868E+02 -0.75066472328E+02 -0.18583078555E+03  0.26803122938E+03  0.17369493096E+03 0.  0.
         24    2    3    3    0    0 -0.58832836118E+02 -0.10241932214E+03 -0.18446033413E+03  0.23375515478E+03  0.81638455178E+02 0.  0.
         -6    2    1    2    0  502  0.38765380868E+02  0.75066472328E+02 -0.34797278969E+03  0.39525031310E+03  0.16733205796E+03 0.  0.
        -24    2    5    5    0    0  0.11631430123E+02 -0.24366579609E+02 -0.14191282182E+03  0.16480295803E+03  0.79320524520E+02 0.  0.
          5    1    3    3  501    0  0.20067455250E+02  0.27352849813E+02 -0.13704514230E+01  0.34276074603E+02  0.47000000000E+01 0. -1.
        -11    1    4    4    0    0  0.18136580477E+02 -0.40229052611E+02 -0.66140022004E+02  0.79509840499E+02  0.00000000000E+00 0.  1.
         12    1    4    4    0    0 -0.76969416595E+02 -0.62190269530E+02 -0.11832031213E+03  0.15424531428E+03  0.00000000000E+00 0. -1.
         -5    1    5    5    0  502  0.27133950745E+02  0.99433051937E+02 -0.20605996787E+03  0.23044735507E+03  0.47000000000E+01 0.  1.
         11    1    6    6    0    0 -0.17921916817E+02  0.14310331830E+02 -0.93042988308E+02  0.95827858020E+02  0.00000000000E+00 0. -1.
        -12    1    6    6    0    0  0.29553346940E+02 -0.38676911440E+02 -0.48869833510E+02  0.68975100008E+02  0.00000000000E+00 0.  1.
</event>
<event>
12    1  0.8563264E-002  0.1800464E+03  0.7818608E-02  0.1168149E+00
         21   -1    0    0  501  502  0.00000000000E+00  0.00000000000E+00  0.12173688304E+04  0.12173688304E+04  0.00000000000E+00 0. -1.
         21   -1    0    0  502  503 -0.00000000000E+00 -0.00000000000E+00 -0.27297960008E+02  0.27297960008E+02  0.00000000000E+00 0. -1.
         -6    2    1    2    0  503  0.21946803762E+02 -0.39533923432E+02  0.48419547633E+03  0.51658683584E+03  0.17427594889E+03 0.  0.
        -24    2    3    3    0    0  0.68020925043E+02  0.16621747911E+02  0.27512075353E+03  0.29520342682E+03  0.80935192794E+02 0.  0.
          6    2    1    2  501    0 -0.21946803762E+02  0.39533923432E+02  0.70587539410E+03  0.72807995461E+03  0.17261446930E+03 0.  0.
         24    2    5    5    0    0 -0.33071081722E+02 -0.39922837342E+02  0.44825532895E+03  0.45821459121E+03  0.79625638350E+02 0.  0.
          5    1    5    5  501    0  0.11124277960E+02  0.79456760774E+02  0.25762006516E+03  0.26986536340E+03  0.47000000000E+01 0. -1.
        -11    1    6    6    0    0  0.15155653689E+02 -0.31069190915E+02  0.86504517016E+02  0.93155890459E+02  0.00000000000E+00 0.  1.
         12    1    6    6    0    0 -0.48226735411E+02 -0.88536464267E+01  0.36175081193E+03  0.36505870075E+03  0.00000000000E+00 0. -1.
         -5    1    3    3    0  503 -0.46074121282E+02 -0.56155671343E+02  0.20907472280E+03  0.22138340902E+03  0.47000000000E+01 0.  1.
         11    1    4    4    0    0  0.54886537143E+02 -0.26848473222E+02  0.14340625949E+03  0.15588049183E+03  0.00000000000E+00 0. -1.
        -12    1    4    4    0    0  0.13134387901E+02  0.43470221133E+02  0.13171449404E+03  0.13932293498E+03  0.00000000000E+00 0.  1.
</event>
<event>
12    1  0.8563264E-002  0.1785415E+03  0.7818608E-02  0.1169656E+00
         21   -1    0    0  501  502  0.00000000000E+00  0.00000000000E+00  0.20320264812E+03  0.20320264812E+03  0.00000000000E+00 0. -1.
         21   -1    0    0  502  503 -0.00000000000E+00 -0.00000000000E+00 -0.16893746545E+03  0.16893746545E+03  0.00000000000E+00 0. -1.
         -6    2    1    2    0  503 -0.37310354297E+02 -0.11196858107E+02 -0.35758655179E+02  0.18035792106E+03  0.17243220726E+03 0.  0.
        -24    2    3    3    0    0 -0.18871065138E+02  0.59447666124E+02 -0.33866140571E+02  0.10717098370E+03  0.80302939946E+02 0.  0.
          6    2    1    2  501    0  0.37310354297E+02  0.11196858107E+02  0.70023837858E+02  0.19178219251E+03  0.17424017713E+03 0.  0.
         24    2    5    5    0    0  0.20406136194E+02  0.68869453954E+02  0.75661288769E+02  0.13123674054E+03  0.79618084419E+02 0.  0.
          5    1    5    5  501    0  0.16904218104E+02 -0.57672595847E+02 -0.56374509108E+01  0.60545451969E+02  0.47000000000E+01 0. -1.
        -13    1    6    6    0    0 -0.17936129312E+02  0.64953913382E+02  0.57710071684E+02  0.88719603088E+02  0.00000000000E+00 0.  1.
         14    1    6    6    0    0  0.38342265506E+02  0.39155405721E+01  0.17951217085E+02  0.42517137450E+02  0.00000000000E+00 0. -1.
         -5    1    3    3    0  503 -0.18439289160E+02 -0.70644524231E+02 -0.18925146083E+01  0.73186937360E+02  0.47000000000E+01 0.  1.
         11    1    4    4    0    0  0.25860273181E+02  0.39796660047E+02  0.45571361416E+00  0.47462991422E+02  0.00000000000E+00 0. -1.
        -12    1    4    4    0    0 -0.44731338319E+02  0.19651006078E+02 -0.34321854185E+02  0.59707992282E+02  0.00000000000E+00 0.  1.
</event>
<event>
12    1  0.8563264E-002  0.2288805E+03  0.7818608E-02  0.1127473E+00
         21   -1    0    0  501  502  0.00000000000E+00  0.00000000000E+00  0.20733764031E+04  0.20733764031E+04  0.00000000000E+00 0.  1.
         21   -1    0    0  502  503 -0.00000000000E+00 -0.00000000000E+00 -0.89929462126E+02  0.89929462126E+02  0.00000000000E+00 0. -1.
         -6    2    1    2    0  503  0.45643216744E+01  0.15035756584E+03  0.74185456252E+02  0.24037432125E+03  0.17218624150E+03 0.  0.
        -24    2    3    3    0    0 -0.52468625755E+02  0.12323563979E+03  0.21147499115E+02  0.15777001833E+03  0.80648511205E+02 0.  0.
          6    2    1    2  501    0 -0.45643216744E+01 -0.15035756584E+03  0.19092614847E+04  0.19229315440E+04  0.17250529012E+03 0.  0.
         24    2    5    5    0    0  0.61325158424E+01 -0.10137071066E+03  0.65887056865E+03  0.67152686629E+03  0.80772997926E+02 0.  0.
          5    1    5    5  501    0 -0.10696837517E+02 -0.48986855183E+02  0.12503909161E+04  0.12514046777E+04  0.47000000000E+01 0. -1.
        -13    1    6    6    0    0  0.12466489486E+02 -0.87607521257E+02  0.64482083606E+03  0.65086434974E+03  0.00000000000E+00 0.  1.
         14    1    6    6    0    0 -0.63339736432E+01 -0.13763189402E+02  0.14049732584E+02  0.20662516553E+02  0.00000000000E+00 0. -1.
         -5    1    3    3    0  503  0.57032947429E+02  0.27121926049E+02  0.53037957137E+02  0.82604302929E+02  0.47000000000E+01 0.  1.
         11    1    4    4    0    0 -0.17944406431E+02  0.10595424675E+03  0.40176004797E+02  0.11472757074E+03  0.00000000000E+00 0. -1.
        -12    1    4    4    0    0 -0.34524219324E+02  0.17281393040E+02 -0.19028505683E+02  0.43042447582E+02  0.00000000000E+00 0.  1.
</event>
<event>
12    1  0.8563264E-002  0.1755999E+03  0.7818608E-02  0.1173996E+00
         21   -1    0    0  503  502  0.00000000000E+00  0.00000000000E+00  0.51843874006E+03  0.51843874006E+03  0.00000000000E+00 0. -1.
         21   -1    0    0  501  503 -0.00000000000E+00 -0.00000000000E+00 -0.12448840839E+03  0.12448840839E+03  0.00000000000E+00 0. -1.
          6    2    1    2  501    0  0.18659564013E+02 -0.30204229533E+02 -0.41549575019E+02  0.17335766838E+03  0.16451759538E+03 0.  0.
         24    2    3    3    0    0  0.68536258021E+02 -0.31724771498E+02 -0.56276389376E+01  0.11169347987E+03  0.82098010539E+02 0.  0.
         -6    2    1    2    0  502 -0.18659564013E+02  0.30204229533E+02  0.43549990668E+03  0.46956948008E+03  0.17197340808E+03 0.  0.
        -24    2    5    5    0    0  0.26651962816E+02  0.37928822612E+01  0.11874697721E+03  0.14846949244E+03  0.84956650777E+02 0.  0.
          5    1    3    3  501    0 -0.49876694008E+02  0.15205419644E+01 -0.35921936082E+02  0.61664188513E+02  0.47000000000E+01 0. -1.
        -13    1    4    4    0    0  0.35205849244E+02  0.78845924028E+01  0.31576130660E+02  0.47944453755E+02  0.00000000000E+00 0.  1.
         14    1    4    4    0    0  0.33330408777E+02 -0.39609363901E+02 -0.37203769598E+02  0.63749026111E+02  0.00000000000E+00 0. -1.
         -5    1    5    5    0  502 -0.45311526829E+02  0.26411347272E+02  0.31675292948E+03  0.32109998764E+03  0.47000000000E+01 0.  1.
         13    1    6    6    0    0 -0.18660004640E+02  0.26679787485E+02  0.73816555128E+02  0.80677696078E+02  0.00000000000E+00 0. -1.
        -14    1    6    6    0    0  0.45311967457E+02 -0.22886905224E+02  0.44930422078E+02  0.67791796359E+02  0.00000000000E+00 0.  1.
</event>
<event>
12    1  0.8563264E-002  0.2005742E+03  0.7818608E-02  0.1149737E+00
         21   -1    0    0  501  502  0.00000000000E+00  0.00000000000E+00  0.80755569395E+02  0.80755569395E+02  0.00000000000E+00 0.  1.
         21   -1    0    0  502  503 -0.00000000000E+00 -0.00000000000E+00 -0.66451725168E+03  0.66451725168E+03  0.00000000000E+00 0. -1.
         -6    2    1    2    0  503 -0.78493164480E+02 -0.63320889345E+02 -0.48269095129E+03  0.52270506410E+03  0.17337623157E+03 0.  0.
        -24    2    3    3    0    0 -0.10592585505E+03 -0.91404754636E+02 -0.40531436920E+03  0.43581155767E+03  0.77954217245E+02 0.  0.
          6    2    1    2  501    0  0.78493164480E+02  0.63320889345E+02 -0.10107073100E+03  0.22256775698E+03  0.17073488773E+03 0.  0.
         24    2    5    5    0    0  0.85317007777E+02 -0.15523934483E+02 -0.48955642352E+02  0.12769340035E+03  0.79931002855E+02 0.  0.
          5    1    5    5  501    0 -0.68238432965E+01  0.78844823828E+02 -0.52115088646E+02  0.94874356632E+02  0.47000000000E+01 0. -1.
        -11    1    6    6    0    0  0.48989771134E+02 -0.20522153813E+02  0.13917984473E+02  0.54907802403E+02  0.00000000000E+00 0.  1.
         12    1    6    6    0    0  0.36327236642E+02  0.49982193303E+01 -0.62873626825E+02  0.72785597948E+02  0.00000000000E+00 0. -1.
         -5    1    3    3    0  503  0.27432690570E+02  0.28083865291E+02 -0.77376582094E+02  0.86893506421E+02  0.47000000000E+01 0.  1.
         11    1    4    4    0    0 -0.10760522884E+03 -0.81793598513E+02 -0.40394581615E+03  0.42595927084E+03  0.00000000000E+00 0. -1.
        -12    1    4    4    0    0  0.16793737929E+01 -0.96111561235E+01 -0.13685530479E+01  0.98522868316E+01  0.00000000000E+00 0.  1.
</event>
<event>
12    1  0.8563264E-002  0.1924883E+03  0.7818608E-02  0.1156363E+00
         21   -1    0    0  501  502  0.00000000000E+00  0.00000000000E+00  0.31751884622E+02  0.31751884622E+02  0.00000000000E+00 0.  1.
         21   -1    0    0  502  503 -0.00000000000E+00 -0.00000000000E+00 -0.14590766465E+04  0.14590766465E+04  0.00000000000E+00 0. -1.
         -6    2    1    2    0  503  0.23942931239E+02  0.82436155128E+02 -0.10500324578E+04  0.10675298150E+04  0.17228685341E+03 0.  0.
        -24    2    3    3    0    0 -0.25804934859E+01 -0.24122857346E+02 -0.43764832002E+03  0.44536043501E+03  0.78875178990E+02 0.  0.
          6    2    1    2  501    0 -0.23942931239E+02 -0.82436155128E+02 -0.37729230401E+03  0.42329871606E+03  0.17164887625E+03 0.  0.
         24    2    5    5    0    0 -0.67552012964E+02 -0.99747544428E+02 -0.30383346459E+03  0.33600766670E+03  0.77932860853E+02 0.  0.
          5    1    5    5  501    0  0.43609081725E+02  0.17311389300E+02 -0.73458839418E+02  0.87291049353E+02  0.47000000000E+01 0. -1.
        -11    1    6    6    0    0 -0.70967270409E+02 -0.89236867174E+02 -0.18960358118E+03  0.22124441219E+03  0.00000000000E+00 0.  1.
         12    1    6    6    0    0  0.34152574449E+01 -0.10510677255E+02 -0.11422988342E+03  0.11476325451E+03  0.00000000000E+00 0. -1.
         -5    1    3    3    0  503  0.26523424725E+02  0.10655901247E+03 -0.61238413781E+03  0.62216938003E+03  0.47000000000E+01 0.  1.
         13    1    4    4    0    0 -0.13736102761E+02  0.12340070593E+02 -0.34044672919E+03  0.34094711214E+03  0.00000000000E+00 0. -1.
        -14    1    4    4    0    0  0.11155609275E+02 -0.36462927938E+02 -0.97201590833E+02  0.10441332287E+03  0.00000000000E+00 0.  1.
</event>
<event>
12    1  0.8563264E-002  0.2092231E+03  0.7818608E-02  0.1142427E+00
         21   -1    0    0  501  502  0.00000000000E+00  0.00000000000E+00  0.19369589947E+03  0.19369589947E+03  0.00000000000E+00 0.  1.
         21   -1    0    0  502  503 -0.00000000000E+00 -0.00000000000E+00 -0.23238704375E+03  0.23238704375E+03  0.00000000000E+00 0.  1.
         -6    2    1    2    0  503  0.97318972139E+02 -0.68073655481E+02 -0.58212694181E+02  0.21717052677E+03  0.17224783024E+03 0.  0.
        -24    2    3    3    0    0 -0.12014413110E+02 -0.41428983170E+02 -0.54954801748E+02  0.10449208359E+03  0.77703658405E+02 0.  0.
          6    2    1    2  501    0 -0.97318972139E+02  0.68073655481E+02  0.19521549894E+02  0.20891241645E+03  0.17075802157E+03 0.  0.
         24    2    5    5    0    0 -0.12256472927E+03  0.28353766832E+02  0.44783799496E+02  0.15529069453E+03  0.79268922999E+02 0.  0.
          5    1    5    5  501    0  0.25245757135E+02  0.39719888649E+02 -0.25262249602E+02  0.53621721928E+02  0.47000000000E+01 0. -1.
        -13    1    6    6    0    0 -0.10893940947E+03  0.52395803492E+02  0.33495453445E+02  0.12543946971E+03  0.00000000000E+00 0.  1.
         14    1    6    6    0    0 -0.13625319804E+02 -0.24042036660E+02  0.11288346051E+02  0.29851224817E+02  0.00000000000E+00 0. -1.
         -5    1    3    3    0  503  0.10933338525E+03 -0.26644672310E+02 -0.32578924332E+01  0.11267844317E+03  0.47000000000E+01 0.  1.
         11    1    4    4    0    0 -0.42409824788E+02 -0.20783015380E+02 -0.13549122790E+02  0.49133549590E+02  0.00000000000E+00 0. -1.
        -12    1    4    4    0    0  0.30395411678E+02 -0.20645967790E+02 -0.41405678957E+02  0.55358534003E+02  0.00000000000E+00 0.  1.
</event>
<event>
12    1  0.8563264E-002  0.2497971E+03  0.7818608E-02  0.1113444E+00
         21   -1    0    0  501  502  0.00000000000E+00  0.00000000000E+00  0.29224219638E+04  0.29224219638E+04  0.00000000000E+00 0.  1.
         21   -1    0    0  502  503 -0.00000000000E+00 -0.00000000000E+00 -0.22078896359E+02  0.22078896359E+02  0.00000000000E+00 0. -1.
         -6    2    1    2    0  503  0.38181382272E+02  0.17667847693E+03  0.11816538803E+04  0.12077535790E+04  0.17230703023E+03 0.  0.
        -24    2    3    3    0    0  0.22157776920E+02  0.34427521931E+02  0.26178236904E+03  0.27679827540E+03  0.80069065067E+02 0.  0.
          6    2    1    2  501    0 -0.38181382272E+02 -0.17667847693E+03  0.17186891872E+04  0.17367472811E+04  0.17241083015E+03 0.  0.
         24    2    5    5    0    0 -0.43529415813E+02 -0.18591315896E+03  0.17093067584E+04  0.17217806254E+04  0.79626722605E+02 0.  0.
          5    1    5    5  501    0  0.53480335414E+01  0.92346820364E+01  0.93824287631E+01  0.14966655758E+02  0.47000000000E+01 0. -1.
        -11    1    6    6    0    0  0.17821068033E+02 -0.26916699756E+02  0.42358579483E+03  0.42481410614E+03  0.00000000000E+00 0.  1.
         12    1    6    6    0    0 -0.61350483846E+02 -0.15899645921E+03  0.12857209636E+04  0.12969665192E+04  0.00000000000E+00 0. -1.
         -5    1    3    3    0  503  0.16023605352E+02  0.14225095499E+03  0.91987151122E+03  0.93095530359E+03  0.47000000000E+01 0.  1.
         13    1    4    4    0    0 -0.27005989451E+02  0.12567388193E+02  0.49215480329E+02  0.57527612642E+02  0.00000000000E+00 0. -1.
        -14    1    4    4    0    0  0.49163766371E+02  0.21860133738E+02  0.21256688871E+03  0.21927066276E+03  0.00000000000E+00 0.  1.
</event>
<event>
12    1  0.8563264E-002  0.1937937E+03  0.7818608E-02  0.1155525E+00
         21   -1    0    0  501  502  0.00000000000E+00  0.00000000000E+00  0.20080383698E+04  0.20080383698E+04  0.00000000000E+00 0.  1.
         21   -1    0    0  502  503 -0.00000000000E+00 -0.00000000000E+00 -0.24289640991E+02  0.24289640991E+02  0.00000000000E+00 0. -1.
         -6    2    1    2    0  503 -0.24575849113E+02 -0.82491475221E+02  0.49230010840E+03  0.52834164765E+03  0.17139627786E+03 0.  0.
        -24    2    3    3    0    0  0.80414709824E+01 -0.11101995041E+03  0.28703391958E+03  0.31849870224E+03  0.81626329640E+02 0.  0.
          6    2    1    2  501    0  0.24575849113E+02  0.82491475221E+02  0.14914486204E+04  0.15039863631E+04  0.17362942539E+03 0.  0.
         24    2    5    5    0    0 -0.16389007553E+02  0.95498956934E+02  0.13272097196E+04  0.13341516771E+04  0.95322648013E+02 0.  0.
          5    1    5    5  501    0  0.40964856666E+02 -0.13007481713E+02  0.16423890077E+03  0.16983468605E+03  0.47000000000E+01 0. -1.
        -11    1    6    6    0    0  0.17154720357E+02  0.73543425819E+02  0.11494140075E+04  0.11518921306E+04  0.00000000000E+00 0.  1.
         12    1    6    6    0    0 -0.33543727910E+02  0.21955531115E+02  0.17779571212E+03  0.18225954647E+03  0.00000000000E+00 0. -1.
         -5    1    3    3    0  503 -0.32617320095E+02  0.28528475190E+02  0.20526618882E+03  0.20984294541E+03  0.47000000000E+01 0.  1.
         11    1    4    4    0    0  0.23214543906E+02  0.25712222515E+01  0.52661121053E+02  0.57608331890E+02  0.00000000000E+00 0. -1.
        -12    1    4    4    0    0 -0.15173072924E+02 -0.11359117266E+03  0.23437279853E+03  0.26089037035E+03  0.00000000000E+00 0.  1.
</event>
<event>
12    1  0.8563264E-002  0.1998376E+03  0.7818608E-02  0.1150459E+00
         21   -1    0    0  501  502  0.00000000000E+00  0.00000000000E+00  0.44024483038E+03  0.44024483038E+03  0.00000000000E+00 0. -1.
         21   -1    0    0  502  503 -0.00000000000E+00 -0.00000000000E+00 -0.12713040189E+03  0.12713040189E+03  0.00000000000E+00 0. -1.
         -6    2    1    2    0  503  0.29815492839E+00  0.10172168066E+03  0.14005446597E+01  0.19710422687E+03  0.16882157892E+03 0.  0.
        -24    2    3    3    0    0 -0.20004204822E+02 -0.98679232920E+00  0.31778652069E+02  0.87988986661E+02  0.79567814326E+02 0.  0.
          6    2    1    2  501    0 -0.29815492839E+00 -0.10172168066E+03  0.31171388383E+03  0.37027100541E+03  0.17201070566E+03 0.  0.
         24    2    5    5    0    0 -0.24000355116E+01 -0.24425165171E+02  0.56391329397E+02  0.10345484021E+03  0.83189981775E+02 0.  0.
          5    1    5    5  501    0  0.21018805832E+01 -0.77296515491E+02  0.25532255443E+03  0.26681616520E+03  0.47000000000E+01 0. -1.
        -13    1    6    6    0    0  0.35465345176E+02 -0.25669445529E+02  0.47383568528E+02  0.64512895677E+02  0.00000000000E+00 0.  1.
         14    1    6    6    0    0 -0.37865380687E+02  0.12442803578E+01  0.90077608686E+01  0.38941944534E+02  0.00000000000E+00 0. -1.
         -5    1    3    3    0  503  0.20302359750E+02  0.10270847299E+03 -0.30378107409E+02  0.10911524021E+03  0.47000000000E+01 0.  1.
         13    1    4    4    0    0  0.18428469702E+02 -0.26191451825E+02 -0.15224105419E+00  0.32025362162E+02  0.00000000000E+00 0. -1.
        -14    1    4    4    0    0 -0.38432674524E+02  0.25204659496E+02  0.31930893123E+02  0.55963624499E+02  0.00000000000E+00 0.  1.
</event>
<event>
12    1  0.8563264E-002  0.2256171E+03  0.7818608E-02  0.1129956E+00
         21   -1    0    0  503  502  0.00000000000E+00  0.00000000000E+00  0.82947340403E+03  0.82947340403E+03  0.00000000000E+00 0.  1.
         21   -1    0    0  501  503 -0.00000000000E+00 -0.00000000000E+00 -0.11653614379E+03  0.11653614379E+03  0.00000000000E+00 0.  1.
          6    2    1    2  501    0 -0.33692697409E+02  0.14201972587E+03  0.29724642445E+02  0.22650794775E+03  0.17063849398E+03 0.  0.
         24    2    3    3    0    0 -0.11017886176E+02  0.14738189331E+03 -0.21876870876E+02  0.16969504357E+03  0.80467347666E+02 0.  0.
         -6    2    1    2    0  502  0.33692697409E+02 -0.14201972587E+03  0.68321261779E+03  0.71950160008E+03  0.17204148048E+03 0.  0.
        -24    2    5    5    0    0 -0.17348639450E+02 -0.92795489021E+01  0.23558570468E+03  0.24980263691E+03  0.80707173425E+02 0.  0.
          5    1    3    3  501    0 -0.22674811233E+02 -0.53621674400E+01  0.51601513321E+02  0.56812904177E+02  0.47000000000E+01 0. -1.
        -13    1    4    4    0    0  0.22220269770E+02  0.50090670424E+02  0.20479284273E+02  0.58499715696E+02  0.00000000000E+00 0.  1.
         14    1    4    4    0    0 -0.33238155946E+02  0.97291222889E+02 -0.42356155149E+02  0.11119532787E+03  0.00000000000E+00 0. -1.
         -5    1    5    5    0  502  0.51041336859E+02 -0.13274017697E+03  0.44762691312E+03  0.46969896316E+03  0.47000000000E+01 0.  1.
         13    1    6    6    0    0 -0.24160431983E+02 -0.29464621804E+02  0.22032886052E+03  0.22359941232E+03  0.00000000000E+00 0. -1.
        -14    1    6    6    0    0  0.68117925325E+01  0.20185072901E+02  0.15256844159E+02  0.26203224596E+02  0.00000000000E+00 0.  1.
</event>
<event>
12    1  0.8563264E-002  0.3803034E+03  0.7818608E-02  0.1050833E+00
         21   -1    0    0  503  502  0.00000000000E+00  0.00000000000E+00  0.25009173921E+04  0.25009173921E+04  0.00000000000E+00 0.  1.
         21   -1    0    0  501  503 -0.00000000000E+00 -0.00000000000E+00 -0.69954525957E+02  0.69954525957E+02  0.00000000000E+00 0. -1.
          6    2    1    2  501    0  0.10890430854E+03  0.32075160754E+03  0.17508644653E+04  0.17916642945E+04  0.17260598451E+03 0.  0.
         24    2    3    3    0    0  0.11267402425E+03  0.29620075243E+03  0.13169229202E+04  0.13569870465E+04  0.81838531854E+02 0.  0.
         -6    2    1    2    0  502 -0.10890430854E+03 -0.32075160754E+03  0.68009840075E+03  0.77920762355E+03  0.17288419168E+03 0.  0.
        -24    2    5    5    0    0 -0.10489986471E+03 -0.13062516232E+03  0.27166212917E+03  0.32864533187E+03  0.78361515328E+02 0.  0.
          5    1    3    3  501    0 -0.37697157101E+01  0.24550855106E+02  0.43394154516E+03  0.43467724792E+03  0.47000000000E+01 0. -1.
        -11    1    4    4    0    0  0.11548881825E+03  0.22748608892E+03  0.11097458589E+04  0.11386937512E+04  0.00000000000E+00 0.  1.
         12    1    4    4    0    0 -0.28147940024E+01  0.68714663513E+02  0.20717706130E+03  0.21829329531E+03  0.00000000000E+00 0. -1.
         -5    1    5    5    0  502 -0.40044438274E+01 -0.19012644522E+03  0.40843627158E+03  0.45056229168E+03  0.47000000000E+01 0.  1.
         11    1    6    6    0    0 -0.99923009056E+02 -0.14053430568E+03  0.26337122848E+03  0.31479978209E+03  0.00000000000E+00 0. -1.
        -12    1    6    6    0    0 -0.49768556542E+01  0.99091433616E+01  0.82909006887E+01  0.13845549776E+02  0.00000000000E+00 0.  1.
</event>
<event>
12    1  0.8563264E-002  0.2021945E+03  0.7818608E-02  0.1148417E+00
         21   -1    0    0  503  502  0.00000000000E+00  0.00000000000E+00  0.93584049752E+03  0.93584049752E+03  0.00000000000E+00 0. -1.
         21   -1    0    0  501  503 -0.00000000000E+00 -0.00000000000E+00 -0.75609800165E+02  0.75609800165E+02  0.00000000000E+00 0. -1.
          6    2    1    2  501    0 -0.84776199026E+02 -0.55444427243E+02  0.97272166334E+02  0.22215418443E+03  0.17213227147E+03 0.  0.
         24    2    3    3    0    0 -0.12506597930E+01 -0.78911551958E+02  0.39465201160E+02  0.11779443707E+03  0.78034800693E+02 0.  0.
         -6    2    1    2    0  502  0.84776199026E+02  0.55444427243E+02  0.76295853102E+03  0.78929611325E+03  0.17499013089E+03 0.  0.
        -24    2    5    5    0    0  0.20354846108E+02  0.78149395055E+02  0.27974581680E+03  0.30125693095E+03  0.77306977202E+02 0.  0.
          5    1    3    3  501    0 -0.83525539233E+02  0.23467124715E+02  0.57806965175E+02  0.10435974736E+03  0.47000000000E+01 0. -1.
        -11    1    4    4    0    0 -0.31585415750E+02 -0.62390665211E+02  0.44498874404E+02  0.82887776039E+02  0.00000000000E+00 0.  1.
         12    1    4    4    0    0  0.30334755957E+02 -0.16520886747E+02 -0.50336732438E+01  0.34906661029E+02  0.00000000000E+00 0. -1.
         -5    1    5    5    0  502  0.64421352918E+02 -0.22704967812E+02  0.48321271422E+03  0.48803918230E+03  0.47000000000E+01 0.  1.
         13    1    6    6    0    0 -0.12858515267E+02  0.27167447563E+02  0.19283675766E+03  0.19516512682E+03  0.00000000000E+00 0. -1.
        -14    1    6    6    0    0  0.33213361374E+02  0.50981947492E+02  0.86909059133E+02  0.10609180413E+03  0.00000000000E+00 0.  1.
</event>
<event>
12    1  0.8563264E-002  0.2417321E+03  0.7818608E-02  0.1118847E+00
         21   -1    0    0  503  502  0.00000000000E+00  0.00000000000E+00  0.23793339496E+03  0.23793339496E+03  0.00000000000E+00 0.  1.
         21   -1    0    0  501  503 -0.00000000000E+00 -0.00000000000E+00 -0.24813038138E+03  0.24813038138E+03  0.00000000000E+00 0. -1.
          6    2    1    2  501    0  0.13734803472E+03 -0.99617440190E+02  0.24895317332E+02  0.24301063430E+03  0.17218093543E+03 0.  0.
         24    2    3    3    0    0  0.13638014163E+03 -0.68272844520E+02  0.70464566120E+02  0.18749426797E+03  0.83235335735E+02 0.  0.
         -6    2    1    2    0  502 -0.13734803472E+03  0.99617440190E+02 -0.35092303752E+02  0.24305314204E+03  0.17045598565E+03 0.  0.
        -24    2    5    5    0    0 -0.91939139404E+02 -0.27212494194E+01 -0.48222581809E+02  0.13022730561E+03  0.78571770873E+02 0.  0.
          5    1    3    3  501    0  0.96789308551E+00 -0.31344595670E+02 -0.45569248788E+02  0.55516366324E+02  0.47000000000E+01 0. -1.
        -11    1    4    4    0    0  0.12625124026E+03 -0.34630427635E+02  0.30765926951E+02  0.13448116762E+03  0.00000000000E+00 0.  1.
         12    1    4    4    0    0  0.10128901375E+02 -0.33642416885E+02  0.39698639169E+02  0.53013100351E+02  0.00000000000E+00 0. -1.
         -5    1    5    5    0  502 -0.45408895312E+02  0.10233868961E+03  0.13130278057E+02  0.11282583643E+03  0.47000000000E+01 0.  1.
         11    1    6    6    0    0 -0.89179466793E+02  0.12933515129E+01 -0.66538531341E+02  0.11127455328E+03  0.00000000000E+00 0. -1.
        -12    1    6    6    0    0 -0.27596726111E+01 -0.40146009324E+01  0.18315949532E+02  0.18952752329E+02  0.00000000000E+00 0.  1.
</event>
<event>
12    1  0.8563264E-002  0.2827309E+03  0.7818608E-02  0.1094387E+00
         21   -1    0    0  501  502  0.00000000000E+00  0.00000000000E+00  0.27611012992E+03  0.27611012992E+03  0.00000000000E+00 0.  1.
         21   -1    0    0  502  503 -0.00000000000E+00 -0.00000000000E+00 -0.29139926725E+03  0.29139926725E+03  0.00000000000E+00 0.  1.
         -6    2    1    2    0  503  0.17620547914E+03  0.13625406738E+03  0.22335364293E+02  0.28361172401E+03  0.17413557862E+03 0.  0.
        -24    2    3    3    0    0  0.12749168080E+03  0.29637721843E+02  0.49976051253E+02  0.16308713374E+03  0.83470259748E+02 0.  0.
          6    2    1    2  501    0 -0.17620547914E+03 -0.13625406738E+03 -0.37624501628E+02  0.28389767316E+03  0.17195564529E+03 0.  0.
         24    2    5    5    0    0 -0.14231135444E+03 -0.25359766740E+02 -0.20927289247E+02  0.16664902923E+03  0.80239068625E+02 0.  0.
          5    1    5    5  501    0 -0.33894124698E+02 -0.11089430064E+03 -0.16697212381E+02  0.11724864393E+03  0.47000000000E+01 0. -1.
        -11    1    6    6    0    0 -0.10023937862E+03 -0.33811435814E+02  0.19640840220E+02  0.10759604464E+03  0.00000000000E+00 0.  1.
         12    1    6    6    0    0 -0.42071975822E+02  0.84516690734E+01 -0.40568129467E+02  0.59052984582E+02  0.00000000000E+00 0. -1.
         -5    1    3    3    0  503  0.48713798336E+02  0.10661634553E+03 -0.27640686961E+02  0.12052459027E+03  0.47000000000E+01 0.  1.
         11    1    4    4    0    0  0.17956787984E+02 -0.10140065708E+02 -0.18686674052E+02  0.27829102652E+02  0.00000000000E+00 0. -1.
        -12    1    4    4    0    0  0.10953489282E+03  0.39777787551E+02  0.68662725306E+02  0.13525803109E+03  0.00000000000E+00 0.  1.
</event>
<event>
12    1  0.8563264E-002  0.2241471E+03  0.7818608E-02  0.1130983E+00
         21   -1    0    0  503  502  0.00000000000E+00  0.00000000000E+00  0.15971876566E+04  0.15971876566E+04  0.00000000000E+00 0.  1.
         21   -1    0    0  501  503 -0.00000000000E+00 -0.00000000000E+00 -0.79805920124E+02  0.79805920124E+02  0.00000000000E+00 0. -1.
          6    2    1    2  501    0 -0.55034851459E+00  0.14213407609E+03  0.10467535410E+03  0.24661556629E+03  0.17222052523E+03 0.  0.
         24    2    3    3    0    0 -0.59566232496E+02  0.46591179612E+02  0.37586669147E+02  0.11571750947E+03  0.79113274673E+02 0.  0.
         -6    2    1    2    0  502  0.55034851459E+00 -0.14213407609E+03  0.14127063824E+04  0.14303780105E+04  0.17331916073E+03 0.  0.
        -24    2    5    5    0    0  0.29532373454E+02 -0.68537110169E+02  0.40523255994E+03  0.41979299964E+03  0.80269784837E+02 0.  0.
          5    1    3    3  501    0  0.59015883982E+02  0.95542896475E+02  0.67088684957E+02  0.13089805682E+03  0.47000000000E+01 0. -1.
        -11    1    4    4    0    0 -0.23337524099E+02  0.21303341719E+02  0.58765501346E+02  0.66722234284E+02  0.00000000000E+00 0.  1.
         12    1    4    4    0    0 -0.36228708397E+02  0.25287837893E+02 -0.21178832199E+02  0.48995275188E+02  0.00000000000E+00 0. -1.
         -5    1    5    5    0  502 -0.28982024939E+02 -0.73596965917E+02  0.10074738225E+04  0.10105850108E+04  0.47000000000E+01 0.  1.
         11    1    6    6    0    0  0.25954728285E+01 -0.12535260234E+02  0.34842423428E+01  0.13266844879E+02  0.00000000000E+00 0. -1.
        -12    1    6    6    0    0  0.26936900625E+02 -0.56001849935E+02  0.40174831759E+03  0.40652615476E+03  0.00000000000E+00 0.  1.
</event>
<event>
12    1  0.8563264E-002  0.1867176E+03  0.7818608E-02  0.1161729E+00
         21   -1    0    0  501  502  0.00000000000E+00  0.00000000000E+00  0.66163182075E+03  0.66163182075E+03  0.00000000000E+00 0.  1.
         21   -1    0    0  502  503 -0.00000000000E+00 -0.00000000000E+00 -0.61880645840E+02  0.61880645840E+02  0.00000000000E+00 0. -1.
         -6    2    1    2    0  503  0.24001483875E+02  0.59072554023E+02  0.44096683363E+03  0.47840854941E+03  0.17423361880E+03 0.  0.
        -24    2    3    3    0    0  0.53402293434E+02  0.10233507638E+02  0.39184564686E+03  0.40301199084E+03  0.76935844544E+02 0.  0.
          6    2    1    2  501    0 -0.24001483875E+02 -0.59072554023E+02  0.15878434128E+03  0.24510391718E+03  0.17549309193E+03 0.  0.
         24    2    5    5    0    0 -0.47504564130E+02 -0.10116857097E+03  0.12652378385E+03  0.18690337603E+03  0.80204991893E+02 0.  0.
          5    1    5    5  501    0  0.23503080255E+02  0.42096016952E+02  0.32260557431E+02  0.58200541153E+02  0.47000000000E+01 0. -1.
        -11    1    6    6    0    0 -0.43837350317E+02 -0.94958781061E+02  0.61192198846E+02  0.12117495031E+03  0.00000000000E+00 0.  1.
         12    1    6    6    0    0 -0.36672138130E+01 -0.62097899137E+01  0.65331585005E+02  0.65728425716E+02  0.00000000000E+00 0. -1.
         -5    1    3    3    0  503 -0.29400809558E+02  0.48839046384E+02  0.49121186768E+02  0.75396558568E+02  0.47000000000E+01 0.  1.
         11    1    4    4    0    0  0.42996548173E+02 -0.61823727139E+00  0.80172689936E+02  0.90976621083E+02  0.00000000000E+00 0. -1.
        -12    1    4    4    0    0  0.10405745261E+02  0.10851744910E+02  0.31167295693E+03  0.31203536976E+03  0.00000000000E+00 0.  1.
</event>
<event>
12    1  0.8563264E-002  0.2468241E+03  0.7818608E-02  0.1116040E+00
         21   -1    0    0  503  502  0.00000000000E+00  0.00000000000E+00  0.71976017356E+03  0.71976017356E+03  0.00000000000E+00 0. -1.
         21   -1    0    0  501  503 -0.00000000000E+00 -0.00000000000E+00 -0.84613424304E+02  0.84613424304E+02  0.00000000000E+00 0.  1.
          6    2    1    2  501    0 -0.10438631935E+03  0.13139922044E+03  0.36776704991E+03  0.44048617500E+03  0.17496630694E+03 0.  0.
         24    2    3    3    0    0 -0.94967204830E+02  0.16220328178E+03  0.28207612531E+03  0.34882029000E+03  0.82340631717E+02 0.  0.
         -6    2    1    2    0  502  0.10438631935E+03 -0.13139922044E+03  0.26737969934E+03  0.36388742286E+03  0.18099694500E+03 0.  0.
        -24    2    5    5    0    0  0.89557145786E+02 -0.13813950298E+03  0.12800192473E+03  0.22348233088E+03  0.80354557056E+02 0.  0.
          5    1    3    3  501    0 -0.94191145179E+01 -0.30804061343E+02  0.85690924604E+02  0.91665885001E+02  0.47000000000E+01 0. -1.
        -11    1    4    4    0    0  0.17849123239E+01  0.67299556450E+02  0.69857918366E+02  0.97018271315E+02  0.00000000000E+00 0.  1.
         12    1    4    4    0    0 -0.96752117154E+02  0.94903725331E+02  0.21221820694E+03  0.25180201868E+03  0.00000000000E+00 0. -1.
         -5    1    5    5    0  502  0.14829173561E+02  0.67402825376E+01  0.13937777461E+03  0.14040509198E+03  0.47000000000E+01 0.  1.
         13    1    6    6    0    0  0.68476108944E+02 -0.10897774359E+03  0.13533004745E+03  0.18676013450E+03  0.00000000000E+00 0. -1.
        -14    1    6    6    0    0  0.21081036842E+02 -0.29161759388E+02 -0.73281227237E+01  0.36722196389E+02  0.00000000000E+00 0.  1.
</event>
<event>
12    1  0.8563264E-002  0.2031488E+03  0.7818608E-02  0.1147842E+00
         21   -1    0    0  501  502  0.00000000000E+00  0.00000000000E+00  0.49526560038E+03  0.49526560038E+03  0.00000000000E+00 0.  1.
         21   -1    0    0  502  503 -0.00000000000E+00 -0.00000000000E+00 -0.18487125254E+03  0.18487125254E+03  0.00000000000E+00 0.  1.
         -6    2    1    2    0  503 -0.77335871235E+02  0.72701498543E+02 -0.98006240725E+02  0.22555412044E+03  0.17321400970E+03 0.  0.
        -24    2    3    3    0    0 -0.33775400319E+02  0.89873253151E+02 -0.15621330802E+02  0.13067658271E+03  0.87260323144E+02 0.  0.
          6    2    1    2  501    0  0.77335871235E+02 -0.72701498543E+02  0.40840058856E+03  0.45458273248E+03  0.16908008475E+03 0.  0.
         24    2    5    5    0    0  0.19705236271E+02 -0.48839874728E+02  0.36739805360E+03  0.37978991831E+03  0.80532121311E+02 0.  0.
          5    1    5    5  501    0  0.57630634964E+02 -0.23861623815E+02  0.41002534963E+02  0.74792814166E+02  0.47000000000E+01 0. -1.
        -11    1    6    6    0    0  0.12763648888E+02 -0.71055525405E+02  0.25589114728E+03  0.26587981811E+03  0.00000000000E+00 0.  1.
         12    1    6    6    0    0  0.69415873824E+01  0.22215650677E+02  0.11150690632E+03  0.11391010020E+03  0.00000000000E+00 0. -1.
         -5    1    3    3    0  503 -0.43560470915E+02 -0.17171754607E+02 -0.82384909922E+02  0.94877537729E+02  0.47000000000E+01 0.  1.
         11    1    4    4    0    0  0.20817021411E+02  0.43700476303E+01  0.13427309257E+02  0.25154290501E+02  0.00000000000E+00 0. -1.
        -12    1    4    4    0    0 -0.54592421731E+02  0.85503205520E+02 -0.29048640059E+02  0.10552229221E+03  0.00000000000E+00 0.  1.
</event>
<event>
12    1  0.8563264E-002  0.1758435E+03  0.7818608E-02  0.1173196E+00
         21   -1    0    0  501  502  0.00000000000E+00  0.00000000000E+00  0.32774098264E+03  0.32774098264E+03  0.00000000000E+00 0. -1.
         21   -1    0    0  502  503 -0.00000000000E+00 -0.00000000000E+00 -0.11966872883E+03  0.11966872883E+03  0.00000000000E+00 0. -1.
         -6    2    1    2    0  503 -0.16223994981E+01  0.57805495629E+02 -0.31174365618E+01  0.17587117861E+03  0.16606277593E+03 0.  0.
        -24    2    3    3    0    0 -0.11859460311E+02 -0.13486703494E+02 -0.42712253968E+02  0.93547338592E+02  0.81266413411E+02 0.  0.
          6    2    1    2  501    0  0.16223994981E+01 -0.57805495629E+02  0.21118969037E+03  0.27153853286E+03  0.16058636930E+03 0.  0.
         24    2    5    5    0    0 -0.30533375774E+02  0.18286250407E+02  0.10657935354E+03  0.13816177226E+03  0.80391807554E+02 0.  0.
          5    1    5    5  501    0  0.32155775272E+02 -0.76091746036E+02  0.10461033683E+03  0.13337676060E+03  0.47000000000E+01 0. -1.
        -11    1    6    6    0    0 -0.14926151045E+02  0.41072398774E+02  0.10091138623E+03  0.10996744881E+03  0.00000000000E+00 0.  1.
         12    1    6    6    0    0 -0.15607224729E+02 -0.22786148367E+02  0.56679673044E+01  0.28194323445E+02  0.00000000000E+00 0. -1.
         -5    1    3    3    0  503  0.10237060813E+02  0.71292199123E+02  0.39594817406E+02  0.82323840018E+02  0.47000000000E+01 0.  1.
         11    1    4    4    0    0  0.34673862047E+02 -0.86713041762E+00 -0.21993732883E+02  0.41070097523E+02  0.00000000000E+00 0. -1.
        -12    1    4    4    0    0 -0.46533322358E+02 -0.12619573076E+02 -0.20718521084E+02  0.52477241069E+02  0.00000000000E+00 0.  1.
</event>
<event>
12    1  0.8563264E-002  0.1987005E+03  0.7818608E-02  0.1151098E+00
         21   -1    0    0  501  502  0.00000000000E+00  0.00000000000E+00  0.29865133879E+03  0.29865133879E+03  0.00000000000E+00 0.  1.
         21   -1    0    0  502  503 -0.00000000000E+00 -0.00000000000E+00 -0.14939076690E+03  0.14939076690E+03  0.00000000000E+00 0.  1.
         -6    2    1    2    0  503  0.48242430498E+02  0.83796195568E+02 -0.29169637691E+01  0.19872190480E+03  0.17358788056E+03 0.  0.
        -24    2    3    3    0    0  0.56409809304E+02  0.63950548872E+02 -0.64433750590E+02  0.13339992665E+03  0.79825390244E+02 0.  0.
          6    2    1    2  501    0 -0.48242430498E+02 -0.83796195568E+02  0.15217753567E+03  0.24932020089E+03  0.17220170068E+03 0.  0.
         24    2    5    5    0    0 -0.50867785023E+02 -0.38258609125E+02  0.17107609803E+03  0.19972372999E+03  0.81063458349E+02 0.  0.
          5    1    5    5  501    0  0.26253545251E+01 -0.45537586443E+02 -0.18898562366E+02  0.49596470892E+02  0.47000000000E+01 0. -1.
        -13    1    6    6    0    0 -0.38628568454E+02 -0.63888799384E+02  0.12473966482E+03  0.14537513187E+03  0.00000000000E+00 0.  1.
         14    1    6    6    0    0 -0.12239216569E+02  0.25630190259E+02  0.46336433210E+02  0.54348598120E+02  0.00000000000E+00 0. -1.
         -5    1    3    3    0  503 -0.81673788061E+01  0.19845646696E+02  0.61516786821E+02  0.65321978155E+02  0.47000000000E+01 0.  1.
         11    1    4    4    0    0  0.45764865814E+02 -0.35619027465E+01 -0.39783473279E+02  0.60744010736E+02  0.00000000000E+00 0. -1.
        -12    1    4    4    0    0  0.10644943490E+02  0.67512451618E+02 -0.24650277311E+02  0.72655915912E+02  0.00000000000E+00 0.  1.
</event>
<event>
12    1  0.8563264E-002  0.2439623E+03  0.7818608E-02  0.1117387E+00
         21   -1    0    0  503  502  0.00000000000E+00  0.00000000000E+00  0.16859494410E+03  0.16859494410E+03  0.00000000000E+00 0. -1.
         21   -1    0    0  501  503 -0.00000000000E+00 -0.00000000000E+00 -0.37519571482E+03  0.37519571482E+03  0.00000000000E+00 0. -1.
          6    2    1    2  501    0 -0.16873394182E+03  0.39913547613E+02 -0.17230633407E+03  0.29867557269E+03  0.17161990140E+03 0.  0.
         24    2    3    3    0    0 -0.75491266196E+02  0.61802701480E+02 -0.35040624710E+02  0.13123215962E+03  0.80470672647E+02 0.  0.
         -6    2    1    2    0  502  0.16873394182E+03 -0.39913547613E+02 -0.34294436647E+02  0.24511508624E+03  0.16982656657E+03 0.  0.
        -24    2    5    5    0    0  0.96213119329E+01 -0.22813136891E+02 -0.92907997022E+01  0.83076433763E+02  0.78755101609E+02 0.  0.
          5    1    3    3  501    0 -0.93242675619E+02 -0.21889153867E+02 -0.13726570936E+03  0.16744341307E+03  0.47000000000E+01 0. -1.
        -11    1    4    4    0    0 -0.10983202642E+02  0.17090370911E+02  0.25143536624E+02  0.32325051463E+02  0.00000000000E+00 0.  1.
         12    1    4    4    0    0 -0.64508063554E+02  0.44712330569E+02 -0.60184161334E+02  0.98907108157E+02  0.00000000000E+00 0. -1.
         -5    1    5    5    0  502  0.15911262988E+03 -0.17100410722E+02 -0.25003636945E+02  0.16203865247E+03  0.47000000000E+01 0.  1.
         11    1    6    6    0    0  0.32304336619E+02 -0.97242920621E+01 -0.33405174587E+02  0.47476707023E+02  0.00000000000E+00 0. -1.
        -12    1    6    6    0    0 -0.22683024686E+02 -0.13088844829E+02  0.24114374885E+02  0.35599726740E+02  0.00000000000E+00 0.  1.
</event>
<event>
12    1  0.8563264E-002  0.1807299E+03  0.7818608E-02  0.1170150E+00
         21   -1    0    0  501  502  0.00000000000E+00  0.00000000000E+00  0.25037608142E+04  0.25037608142E+04  0.00000000000E+00 0.  1.
         21   -1    0    0  502  503 -0.00000000000E+00 -0.00000000000E+00 -0.15136691489E+02  0.15136691489E+02  0.00000000000E+00 0. -1.
         -6    2    1    2    0  503  0.12420211522E+02 -0.53183312141E+02  0.72286759760E+03  0.74511801142E+03  0.17228047170E+03 0.  0.
        -24    2    3    3    0    0  0.45411568521E+02 -0.87073462986E+02  0.61825446558E+03  0.63021383676E+03  0.72711053699E+02 0.  0.
          6    2    1    2  501    0 -0.12420211522E+02  0.53183312141E+02  0.17657565251E+04  0.17737794943E+04  0.15942039389E+03 0.  0.
         24    2    5    5    0    0 -0.37682999025E+02  0.88451358860E+02  0.12909917896E+04  0.12970136318E+04  0.79629824290E+02 0.  0.
          5    1    5    5  501    0  0.25262787503E+02 -0.35268046719E+02  0.47476473550E+03  0.47676586248E+03  0.47000000000E+01 0. -1.
        -11    1    6    6    0    0 -0.21915398695E+02  0.25664811065E+02  0.90514306482E+03  0.90577201050E+03  0.00000000000E+00 0.  1.
         12    1    6    6    0    0 -0.15767600331E+02  0.62786547796E+02  0.38584872482E+03  0.39124162132E+03  0.00000000000E+00 0. -1.
         -5    1    3    3    0  503 -0.32991356999E+02  0.33890150844E+02  0.10461313203E+03  0.11490417466E+03  0.47000000000E+01 0.  1.
         11    1    4    4    0    0  0.41400019351E+02 -0.51001855906E+02  0.20272310857E+03  0.21310046846E+03  0.00000000000E+00 0. -1.
        -12    1    4    4    0    0  0.40115491700E+01 -0.36071607079E+02  0.41553135701E+03  0.41711336830E+03  0.00000000000E+00 0.  1.
</event>
<event>
12    1  0.8563264E-002  0.2711842E+03  0.7818608E-02  0.1100649E+00
         21   -1    0    0  503  502  0.00000000000E+00  0.00000000000E+00  0.95845291440E+02  0.95845291440E+02  0.00000000000E+00 0. -1.
         21   -1    0    0  501  503 -0.00000000000E+00 -0.00000000000E+00 -0.80576545854E+03  0.80576545854E+03  0.00000000000E+00 0. -1.
          6    2    1    2  501    0 -0.19406726983E+03 -0.79361844104E+02 -0.25511618487E+03  0.37209444382E+03  0.17149227336E+03 0.  0.
         24    2    3    3    0    0 -0.74643410347E+02 -0.10052871403E+03 -0.13504436713E+03  0.20136241399E+03  0.81438195093E+02 0.  0.
         -6    2    1    2    0  502  0.19406726983E+03  0.79361844104E+02 -0.45480398223E+03  0.52951630617E+03  0.17198967621E+03 0.  0.
        -24    2    5    5    0    0  0.46984588209E+02 -0.20918430441E+02 -0.14922098959E+03  0.17583211923E+03  0.77491277950E+02 0.  0.
          5    1    3    3  501    0 -0.11942385948E+03  0.21166869926E+02 -0.12007181774E+03  0.17073202983E+03  0.47000000000E+01 0. -1.
        -11    1    4    4    0    0 -0.69378726737E+02 -0.10230211367E+03 -0.82696697213E+02  0.14872079181E+03  0.00000000000E+00 0.  1.
         12    1    4    4    0    0 -0.52646836094E+01  0.17733996452E+01 -0.52347669917E+02  0.52641622178E+02  0.00000000000E+00 0. -1.
         -5    1    5    5    0  502  0.14708268162E+03  0.10028027455E+03 -0.30558299264E+03  0.35368418693E+03  0.47000000000E+01 0.  1.
         13    1    6    6    0    0  0.18438258950E+02 -0.10099654616E+02 -0.14317658945E+03  0.14471181079E+03  0.00000000000E+00 0. -1.
        -14    1    6    6    0    0  0.28546329259E+02 -0.10818775825E+02 -0.60444001440E+01  0.31120308443E+02  0.00000000000E+00 0.  1.
</event>
<event>
12    1  0.8563264E-002  0.1960943E+03  0.7818608E-02  0.1153203E+00
         21   -1    0    0  501  502  0.00000000000E+00  0.00000000000E+00  0.98866326122E+02  0.98866326122E+02  0.00000000000E+00 0.  1.
         21   -1    0    0  502  503 -0.00000000000E+00 -0.00000000000E+00 -0.52905745368E+03  0.52905745368E+03  0.00000000000E+00 0.  1.
         -6    2    1    2    0  503  0.19225940909E+01  0.96335710676E+02 -0.37710116520E+03  0.42476981304E+03  0.17011713538E+03 0.  0.
        -24    2    3    3    0    0 -0.89896258576E+01  0.12592436553E+03 -0.35641363971E+03  0.38676154090E+03  0.81339091088E+02 0.  0.
          6    2    1    2  501    0 -0.19225940909E+01 -0.96335710676E+02 -0.53089962349E+02  0.20315396676E+03  0.17078853764E+03 0.  0.
         24    2    5    5    0    0  0.27118675840E+02  0.11437042318E+02 -0.25449944313E+02  0.88069553202E+02  0.79008341455E+02 0.  0.
          5    1    5    5  501    0 -0.29041269931E+02 -0.10777275299E+03 -0.27640018036E+02  0.11508441356E+03  0.47000000000E+01 0. -1.
        -13    1    6    6    0    0 -0.25277906845E+02 -0.46264307143E+01  0.37537384153E+01  0.25970502261E+02  0.00000000000E+00 0.  1.
         14    1    6    6    0    0  0.52396582685E+02  0.16063473032E+02 -0.29203682728E+02  0.62099050941E+02  0.00000000000E+00 0. -1.
         -5    1    3    3    0  503  0.10912219948E+02 -0.29588654850E+02 -0.20687525491E+02  0.38008272138E+02  0.47000000000E+01 0.  1.
         13    1    4    4    0    0  0.35309533776E+01  0.13450440709E+01 -0.11273175443E+03  0.11279505854E+03  0.00000000000E+00 0. -1.
        -14    1    4    4    0    0 -0.12520579235E+02  0.12457932145E+03 -0.24368188529E+03  0.27396648236E+03  0.00000000000E+00 0.  1.
</event>
<event>
12    1  0.8563264E-002  0.1746496E+03  0.7818608E-02  0.1173431E+00
         21   -1    0    0  503  502  0.00000000000E+00  0.00000000000E+00  0.29170340282E+03  0.29170340282E+03  0.00000000000E+00 0. -1.
         21   -1    0    0  501  503 -0.00000000000E+00 -0.00000000000E+00 -0.25878780426E+03  0.25878780426E+03  0.00000000000E+00 0. -1.
          6    2    1    2  501    0 -0.10434954977E+01  0.30155585480E+02 -0.19661306830E+03  0.26207154027E+03  0.17062926295E+03 0.  0.
         24    2    3    3    0    0 -0.44571686437E+02 -0.93635908569E+01 -0.17763951509E+03  0.20011547175E+03  0.80100515912E+02 0.  0.
         -6    2    1    2    0  502  0.10434954977E+01 -0.30155585480E+02  0.22952866686E+03  0.28841966680E+03  0.17202339105E+03 0.  0.
        -24    2    5    5    0    0 -0.56094973902E+02 -0.33950066808E+00  0.87389750899E+02  0.13228073818E+03  0.81941831652E+02 0.  0.
          5    1    3    3  501    0  0.43528190939E+02  0.39519176337E+02 -0.18973553212E+02  0.61956068518E+02  0.47000000000E+01 0. -1.
        -11    1    4    4    0    0  0.94946369771E+01 -0.44962785969E-01  0.40506108683E+01  0.10322674139E+02  0.00000000000E+00 0.  1.
         12    1    4    4    0    0 -0.54066323414E+02 -0.93186280709E+01 -0.18169012596E+03  0.18979279762E+03  0.00000000000E+00 0. -1.
         -5    1    5    5    0  502  0.57138469399E+02 -0.29816084812E+02  0.14213891596E+03  0.15613892862E+03  0.47000000000E+01 0.  1.
         11    1    6    6    0    0 -0.37680520132E+02  0.36747980225E+02  0.69483141909E+02  0.87167325631E+02  0.00000000000E+00 0. -1.
        -12    1    6    6    0    0 -0.18414453769E+02 -0.37087480893E+02  0.17906608990E+02  0.45113412552E+02  0.00000000000E+00 0.  1.
</event>
<event>
12    1  0.8563264E-002  0.2003705E+03  0.7818608E-02  0.1149482E+00
         21   -1    0    0  503  502  0.00000000000E+00  0.00000000000E+00  0.54296586521E+02  0.54296586521E+02  0.00000000000E+00 0.  1.
         21   -1    0    0  501  503 -0.00000000000E+00 -0.00000000000E+00 -0.86003586211E+03  0.86003586211E+03  0.00000000000E+00 0. -1.
          6    2    1    2  501    0 -0.39895675056E+02  0.94558756610E+02 -0.23075392418E+03  0.30543467444E+03  0.17178458453E+03 0.  0.
         24    2    3    3    0    0 -0.78194079373E+01  0.99108541663E+02 -0.23980815011E+03  0.27146915569E+03  0.79397150210E+02 0.  0.
         -6    2    1    2    0  502  0.39895675056E+02 -0.94558756610E+02 -0.57498535141E+03  0.60889777419E+03  0.17209102749E+03 0.  0.
        -24    2    5    5    0    0  0.22806275551E+02 -0.12912000105E+03 -0.37065782719E+03  0.40091134592E+03  0.78425643470E+02 0.  0.
          5    1    3    3  501    0 -0.32076267119E+02 -0.45497850533E+01  0.90542259314E+01  0.33965518744E+02  0.47000000000E+01 0. -1.
        -11    1    4    4    0    0 -0.32994322509E+02  0.90942200162E+02 -0.15581681270E+03  0.18340661986E+03  0.00000000000E+00 0.  1.
         12    1    4    4    0    0  0.25174914571E+02  0.81663415006E+01 -0.83991337412E+02  0.88062535834E+02  0.00000000000E+00 0. -1.
         -5    1    5    5    0  502  0.17089399505E+02  0.34561244444E+02 -0.20432752421E+03  0.20798642827E+03  0.47000000000E+01 0.  1.
         11    1    6    6    0    0  0.27696793183E+01 -0.19455431863E+02 -0.17193929869E+03  0.17305868192E+03  0.00000000000E+00 0. -1.
        -12    1    6    6    0    0  0.20036596233E+02 -0.10966456919E+03 -0.19871852850E+03  0.22785266400E+03  0.00000000000E+00 0.  1.
</event>
<event>
12    1  0.8563264E-002  0.1921223E+03  0.7818608E-02  0.1157461E+00
         21   -1    0    0  501  502  0.00000000000E+00  0.00000000000E+00  0.64925307961E+03  0.64925307961E+03  0.00000000000E+00 0. -1.
         21   -1    0    0  502  503 -0.00000000000E+00 -0.00000000000E+00 -0.55936354083E+02  0.55936354083E+02  0.00000000000E+00 0.  1.
         -6    2    1    2    0  503 -0.74438518254E+02  0.44051906971E+02  0.27554403555E+03  0.33590993245E+03  0.17154971198E+03 0.  0.
        -24    2    3    3    0    0  0.79709877058E+01 -0.18223402142E+02  0.15797827390E+03  0.17934256959E+03  0.82528741742E+02 0.  0.
          6    2    1    2  501    0  0.74438518254E+02 -0.44051906971E+02  0.31777268997E+03  0.36927950125E+03  0.16705150116E+03 0.  0.
         24    2    5    5    0    0  0.97516553090E+02 -0.65053492949E+02  0.20920375897E+03  0.25621772572E+03  0.90221256561E+02 0.  0.
          5    1    5    5  501    0 -0.23078034835E+02  0.21001585978E+02  0.10856893101E+03  0.11306177553E+03  0.47000000000E+01 0. -1.
        -13    1    6    6    0    0  0.32277912549E+02 -0.40875851520E+02  0.22065985221E+02  0.56565065012E+02  0.00000000000E+00 0.  1.
         14    1    6    6    0    0  0.65238640540E+02 -0.24177641428E+02  0.18713777375E+03  0.19965266071E+03  0.00000000000E+00 0. -1.
         -5    1    3    3    0  503 -0.82409505960E+02  0.62275309113E+02  0.11756576166E+03  0.15656736286E+03  0.47000000000E+01 0.  1.
         11    1    4    4    0    0 -0.11042886024E+02 -0.18371224088E+01  0.15342440313E+03  0.15383227174E+03  0.00000000000E+00 0. -1.
        -12    1    4    4    0    0  0.19013873729E+02 -0.16386279733E+02  0.45538707619E+01  0.25510297854E+02  0.00000000000E+00 0.  1.
</event>
<event>
12    1  0.8563264E-002  0.1787692E+03  0.7818608E-02  0.1169350E+00
         21   -1    0    0  501  502  0.00000000000E+00  0.00000000000E+00  0.57782298549E+02  0.57782298549E+02  0.00000000000E+00 0. -1.
         21   -1    0    0  502  503 -0.00000000000E+00 -0.00000000000E+00 -0.57061974160E+03  0.57061974160E+03  0.00000000000E+00 0. -1.
         -6    2    1    2    0  503  0.35223998558E+02 -0.30036409184E+02 -0.19381282254E+03  0.26270388094E+03  0.17119288224E+03 0.  0.
        -24    2    3    3    0    0  0.68703910542E+02 -0.66840408594E+02 -0.68584076481E+02  0.12787151199E+03  0.49593149590E+02 0.  0.
          6    2    1    2  501    0 -0.35223998558E+02  0.30036409184E+02 -0.31902462051E+03  0.36569815921E+03  0.17267170933E+03 0.  0.
         24    2    5    5    0    0  0.26684585356E+02  0.64381729911E+02 -0.21170538243E+03  0.23704442750E+03  0.80708223991E+02 0.  0.
          5    1    5    5  501    0 -0.61908583914E+02 -0.34345320727E+02 -0.10731923809E+03  0.12865373170E+03  0.47000000000E+01 0. -1.
        -11    1    6    6    0    0  0.41319552694E+02  0.21121154924E+01 -0.65703431255E+02  0.77644750920E+02  0.00000000000E+00 0.  1.
         12    1    6    6    0    0 -0.14634967338E+02  0.62269614418E+02 -0.14600195117E+03  0.15939967658E+03  0.00000000000E+00 0. -1.
         -5    1    3    3    0  503 -0.33479911984E+02  0.36803999410E+02 -0.12522874606E+03  0.13483236895E+03  0.47000000000E+01 0.  1.
         13    1    4    4    0    0  0.34462177218E+02 -0.19190172873E+01 -0.22717017534E+02  0.41320541763E+02  0.00000000000E+00 0. -1.
        -14    1    4    4    0    0  0.34241733324E+02 -0.64921391307E+02 -0.45867058948E+02  0.86550970224E+02  0.00000000000E+00 0.  1.
</event>
<event>
12    1  0.8563264E-002  0.2299619E+03  0.7818608E-02  0.1126753E+00
         21   -1    0    0  501  502  0.00000000000E+00  0.00000000000E+00  0.80230030648E+02  0.80230030648E+02  0.00000000000E+00 0. -1.
         21   -1    0    0  502  503 -0.00000000000E+00 -0.00000000000E+00 -0.87508463579E+03  0.87508463579E+03  0.00000000000E+00 0. -1.
         -6    2    1    2    0  503 -0.38948449891E+02  0.14673211899E+03 -0.63516330637E+03  0.67534363414E+03  0.17207353637E+03 0.  0.
        -24    2    3    3    0    0 -0.35943993455E+02  0.13663220135E+03 -0.30958464641E+03  0.34956059449E+03  0.79935141352E+02 0.  0.
          6    2    1    2  501    0  0.38948449891E+02 -0.14673211899E+03 -0.15969129877E+03  0.27997103230E+03  0.17272860658E+03 0.  0.
         24    2    5    5    0    0  0.41725046192E+02 -0.67284265624E+02 -0.16542871961E+03  0.20012944608E+03  0.80106067431E+02 0.  0.
          5    1    5    5  501    0 -0.27765963014E+01 -0.79447853365E+02  0.57374208351E+01  0.79841586214E+02  0.47000000000E+01 0. -1.
        -11    1    6    6    0    0  0.65088499415E+02 -0.58946995862E+02 -0.12997486585E+03  0.15685893927E+03  0.00000000000E+00 0.  1.
         12    1    6    6    0    0 -0.23363453222E+02 -0.83372697614E+01 -0.35453853761E+02  0.43270506815E+02  0.00000000000E+00 0. -1.
         -5    1    3    3    0  503 -0.30044564359E+01  0.10099917641E+02 -0.32557865997E+03  0.32578303964E+03  0.47000000000E+01 0.  1.
         11    1    4    4    0    0 -0.39758247636E+02  0.10703750975E+03 -0.29504168233E+03  0.31636583421E+03  0.00000000000E+00 0. -1.
        -12    1    4    4    0    0  0.38142541813E+01  0.29594691601E+02 -0.14542964079E+02  0.33194760281E+02  0.00000000000E+00 0.  1.
</event>
<event>
12    1  0.8563264E-002  0.2668636E+03  0.7818608E-02  0.1103091E+00
         21   -1    0    0  501  502  0.00000000000E+00  0.00000000000E+00  0.33804223490E+03  0.33804223490E+03  0.00000000000E+00 0.  1.
         21   -1    0    0  502  503 -0.00000000000E+00 -0.00000000000E+00 -0.30537358180E+03  0.30537358180E+03  0.00000000000E+00 0. -1.
         -6    2    1    2    0  503  0.72127443729E+02  0.19089346088E+03 -0.16283359732E+03  0.31261952090E+03  0.17196948242E+03 0.  0.
        -24    2    3    3    0    0  0.67872496838E+02  0.21115422930E+03 -0.11899266136E+03  0.26390893708E+03  0.79346639704E+02 0.  0.
          6    2    1    2  501    0 -0.72127443729E+02 -0.19089346088E+03  0.19550225042E+03  0.33079629581E+03  0.17193713345E+03 0.  0.
         24    2    5    5    0    0 -0.54482610173E+02 -0.42836623746E+02  0.13161651109E+03  0.16851368780E+03  0.79187283324E+02 0.  0.
          5    1    5    5  501    0 -0.17644833556E+02 -0.14805683713E+03  0.63885739328E+02  0.16228260801E+03  0.47000000000E+01 0. -1.
        -11    1    6    6    0    0 -0.63015989938E+02 -0.49448446179E+02  0.71295640807E+02  0.10723447307E+03  0.00000000000E+00 0.  1.
         12    1    6    6    0    0  0.85333797652E+01  0.66118224323E+01  0.60320870284E+02  0.61279214730E+02  0.00000000000E+00 0. -1.
         -5    1    3    3    0  503  0.42549468903E+01 -0.20260768427E+02 -0.43840935956E+02  0.48710583817E+02  0.47000000000E+01 0.  1.
         11    1    4    4    0    0  0.12683692302E+02  0.94065337818E+02 -0.90960909540E+02  0.13146501776E+03  0.00000000000E+00 0. -1.
        -12    1    4    4    0    0  0.55188804536E+02  0.11708889149E+03 -0.28031751822E+02  0.13244391932E+03  0.00000000000E+00 0.  1.
</event>
<event>
12    1  0.8563264E-002  0.1831713E+03  0.7818608E-02  0.1165157E+00
         21   -1    0    0  503  502  0.00000000000E+00  0.00000000000E+00  0.21499855315E+03  0.21499855315E+03  0.00000000000E+00 0.  1.
         21   -1    0    0  501  503 -0.00000000000E+00 -0.00000000000E+00 -0.15561071278E+03  0.15561071278E+03  0.00000000000E+00 0.  1.
          6    2    1    2  501    0  0.24258288598E+02 -0.57364937983E+02  0.15129841967E+02  0.18216694400E+03  0.17051886316E+03 0.  0.
         24    2    3    3    0    0  0.37125826971E+02 -0.25047405315E+02  0.69805616302E+02  0.11719366672E+03  0.82799951148E+02 0.  0.
         -6    2    1    2    0  502 -0.24258288598E+02  0.57364937983E+02  0.44257998401E+02  0.18844232193E+03  0.17225718445E+03 0.  0.
        -24    2    5    5    0    0 -0.55195551427E+01  0.44944097201E+02  0.95711226035E+02  0.13209569779E+03  0.78982258918E+02 0.  0.
          5    1    3    3  501    0 -0.12867538372E+02 -0.32317532669E+02 -0.54675774334E+02  0.64973277281E+02  0.47000000000E+01 0. -1.
        -13    1    4    4    0    0  0.48555026542E+02 -0.32581177180E+02  0.14534441671E+02  0.60252582548E+02  0.00000000000E+00 0.  1.
         14    1    4    4    0    0 -0.11429199572E+02  0.75337718655E+01  0.55271174631E+02  0.56941084170E+02  0.00000000000E+00 0. -1.
         -5    1    5    5    0  502 -0.18738733456E+02  0.12420840782E+02 -0.51453227634E+02  0.56346624133E+02  0.47000000000E+01 0.  1.
         13    1    6    6    0    0 -0.38933302937E+02  0.96342169765E+01  0.58251928203E+02  0.70724163860E+02  0.00000000000E+00 0. -1.
        -14    1    6    6    0    0  0.33413747794E+02  0.35309880225E+02  0.37459297832E+02  0.61371533932E+02  0.00000000000E+00 0.  1.
</event>
<event>
12    1  0.8563264E-002  0.1961194E+03  0.7818608E-02  0.1154977E+00
         21   -1    0    0  503  502  0.00000000000E+00  0.00000000000E+00  0.55397722065E+03  0.55397722065E+03  0.00000000000E+00 0.  1.
         21   -1    0    0  501  503 -0.00000000000E+00 -0.00000000000E+00 -0.68769736107E+02  0.68769736107E+02  0.00000000000E+00 0.  1.
          6    2    1    2  501    0 -0.13677717623E+02  0.82477452750E+02  0.17946569153E+03  0.25951031284E+03  0.16777382949E+03 0.  0.
         24    2    3    3    0    0 -0.69619644610E+02  0.34726592630E+02  0.89077478453E+02  0.14288371681E+03  0.80175608581E+02 0.  0.
         -6    2    1    2    0  502  0.13677717623E+02 -0.82477452750E+02  0.30574179302E+03  0.36323664392E+03  0.17740689197E+03 0.  0.
        -24    2    5    5    0    0 -0.55363593584E+02 -0.34424811420E+02  0.11149079944E+03  0.15150261856E+03  0.79200062715E+02 0.  0.
          5    1    3    3  501    0  0.55941926987E+02  0.47750860120E+02  0.90388213077E+02  0.11662659603E+03  0.47000000000E+01 0. -1.
        -13    1    4    4    0    0 -0.81931894637E+02  0.24484989578E+02  0.46377230009E+02  0.97278967597E+02  0.00000000000E+00 0.  1.
         14    1    4    4    0    0  0.12312250027E+02  0.10241603051E+02  0.42700248445E+02  0.45604749216E+02  0.00000000000E+00 0. -1.
         -5    1    5    5    0  502  0.69041311207E+02 -0.48052641330E+02  0.19425099357E+03  0.21173402536E+03  0.47000000000E+01 0.  1.
         13    1    6    6    0    0 -0.58670959565E+01  0.17191006595E+02 -0.10142268892E+01  0.18192915624E+02  0.00000000000E+00 0. -1.
        -14    1    6    6    0    0 -0.49496497628E+02 -0.51615818015E+02  0.11250502633E+03  0.13330970294E+03  0.00000000000E+00 0.  1.
</event>
<event>
12    1  0.8563264E-002  0.2808693E+03  0.7818608E-02  0.1095325E+00
         21   -1    0    0  501  502  0.00000000000E+00  0.00000000000E+00  0.84859830575E+03  0.84859830575E+03  0.00000000000E+00 0.  1.
         21   -1    0    0  502  503 -0.00000000000E+00 -0.00000000000E+00 -0.11211317305E+03  0.11211317305E+03  0.00000000000E+00 0. -1.
         -6    2    1    2    0  503  0.34593311158E+02  0.21826983605E+03  0.16876772275E+03  0.32767380953E+03  0.17334694317E+03 0.  0.
        -24    2    3    3    0    0  0.10075990685E+02  0.45109429655E+02  0.12508450955E+02  0.93100419382E+02  0.79842598353E+02 0.  0.
          6    2    1    2  501    0 -0.34593311158E+02 -0.21826983605E+03  0.56771740995E+03  0.63303766926E+03  0.17203259761E+03 0.  0.
         24    2    5    5    0    0 -0.39069781693E+02 -0.16767739539E+03  0.54534471442E+03  0.57733972185E+03  0.79234715363E+02 0.  0.
          5    1    5    5  501    0  0.44764705353E+01 -0.50592440662E+02  0.22372695534E+02  0.55697947414E+02  0.47000000000E+01 0. -1.
        -13    1    6    6    0    0 -0.32181783285E+02 -0.15398658542E+02  0.13368991424E+03  0.13836827320E+03  0.00000000000E+00 0.  1.
         14    1    6    6    0    0 -0.68879984079E+01 -0.15227873685E+03  0.41165480018E+03  0.43897144865E+03  0.00000000000E+00 0. -1.
         -5    1    3    3    0  503  0.24517320473E+02  0.17316040639E+03  0.15625927179E+03  0.23457339015E+03  0.47000000000E+01 0.  1.
         11    1    4    4    0    0  0.39413629842E+02  0.13892931444E+02  0.24720893940E+02  0.48554818078E+02  0.00000000000E+00 0. -1.
        -12    1    4    4    0    0 -0.29337639157E+02  0.31216498212E+02 -0.12212442985E+02  0.44545601304E+02  0.00000000000E+00 0.  1.
</event>
<event>
12    1  0.8563264E-002  0.2166837E+03  0.7818608E-02  0.1136470E+00
         21   -1    0    0  503  502  0.00000000000E+00  0.00000000000E+00  0.22832387819E+04  0.22832387819E+04  0.00000000000E+00 0.  1.
         21   -1    0    0  501  503 -0.00000000000E+00 -0.00000000000E+00 -0.34210758024E+02  0.34210758024E+02  0.00000000000E+00 0.  1.
          6    2    1    2  501    0 -0.12487380672E+03  0.43856925698E+02  0.39073255121E+03  0.44656368503E+03  0.17096871258E+03 0.  0.
         24    2    3    3    0    0 -0.42676103182E+02 -0.12286329085E+02  0.29326705441E+03  0.30717164584E+03  0.79853936289E+02 0.  0.
         -6    2    1    2    0  502  0.12487380672E+03 -0.43856925698E+02  0.18582954726E+04  0.18708858549E+04  0.17156608273E+03 0.  0.
        -24    2    5    5    0    0  0.56967287473E+02 -0.91121418579E+02  0.11284764993E+04  0.11363771405E+04  0.79658089231E+02 0.  0.
          5    1    3    3  501    0 -0.82197703543E+02  0.56143254783E+02  0.97465496799E+02  0.13939203920E+03  0.47000000000E+01 0. -1.
        -11    1    4    4    0    0  0.16205925256E+02 -0.48157628016E+01  0.14862311303E+02  0.22510261705E+02  0.00000000000E+00 0.  1.
         12    1    4    4    0    0 -0.58882028438E+02 -0.74705662831E+01  0.27840474310E+03  0.28466138413E+03  0.00000000000E+00 0. -1.
         -5    1    5    5    0  502  0.67906519251E+02  0.47264492881E+02  0.72981897333E+03  0.73450871437E+03  0.47000000000E+01 0.  1.
         11    1    6    6    0    0  0.25030131145E+02 -0.72003290386E+02  0.41584581924E+03  0.42277503080E+03  0.00000000000E+00 0. -1.
        -12    1    6    6    0    0  0.31937156329E+02 -0.19118128193E+02  0.71263068006E+03  0.71360210969E+03  0.00000000000E+00 0.  1.
</event>
<event>
12    1  0.8563264E-002  0.1848009E+03  0.7818608E-02  0.1163239E+00
         21   -1    0    0  503  502  0.00000000000E+00  0.00000000000E+00  0.11322024880E+03  0.11322024880E+03  0.00000000000E+00 0. -1.
         21   -1    0    0  501  503 -0.00000000000E+00 -0.00000000000E+00 -0.40048418578E+03  0.40048418578E+03  0.00000000000E+00 0. -1.
          6    2    1    2  501    0  0.65867207265E+02  0.11683775212E+02 -0.16006325475E+02  0.18547879368E+03  0.17225324628E+03 0.  0.
         24    2    3    3    0    0 -0.20777768678E+02 -0.23546981996E+02 -0.31339199956E+02  0.90580189112E+02  0.78971192047E+02 0.  0.
         -6    2    1    2    0  502 -0.65867207265E+02 -0.11683775212E+02 -0.27125761151E+03  0.32822564090E+03  0.17226833705E+03 0.  0.
        -24    2    5    5    0    0  0.36577158434E+01  0.46275126511E+02 -0.11739198206E+03  0.14964884749E+03  0.80368736976E+02 0.  0.
          5    1    3    3  501    0  0.86644975943E+02  0.35230757208E+02  0.15332874481E+02  0.94898604571E+02  0.47000000000E+01 0. -1.
        -13    1    4    4    0    0  0.27293773529E+02 -0.21441969161E+02 -0.23277940110E+02  0.41791992184E+02  0.00000000000E+00 0.  1.
         14    1    4    4    0    0 -0.48071542207E+02 -0.21050128354E+01 -0.80612598467E+01  0.48788196928E+02  0.00000000000E+00 0. -1.
         -5    1    5    5    0  502 -0.69524923109E+02 -0.57958901723E+02 -0.15386562944E+03  0.17857679342E+03  0.47000000000E+01 0.  1.
         13    1    6    6    0    0 -0.47767770501E+01  0.64612778068E+02 -0.58132130979E+02  0.87045811736E+02  0.00000000000E+00 0. -1.
        -14    1    6    6    0    0  0.84344928935E+01 -0.18337651556E+02 -0.59259851082E+02  0.62603035751E+02  0.00000000000E+00 0.  1.
</event>
<event>
12    1  0.8563264E-002  0.1808838E+03  0.7818608E-02  0.1167033E+00
         21   -1    0    0  501  502  0.00000000000E+00  0.00000000000E+00  0.10314945924E+03  0.10314945924E+03  0.00000000000E+00 0.  1.
         21   -1    0    0  502  503 -0.00000000000E+00 -0.00000000000E+00 -0.35119288299E+03  0.35119288299E+03  0.00000000000E+00 0.  1.
         -6    2    1    2    0  503 -0.55560150147E+02  0.20842152112E+02 -0.19542589486E+03  0.26628973824E+03  0.17087310707E+03 0.  0.
        -24    2    3    3    0    0  0.80075869556E+01  0.36030408217E+01 -0.25323625298E+02  0.83820792198E+02  0.79419996565E+02 0.  0.
          6    2    1    2  501    0  0.55560150147E+02 -0.20842152112E+02 -0.52617528891E+02  0.18805260399E+03  0.17051056252E+03 0.  0.
         24    2    5    5    0    0  0.23208524428E+02 -0.67436140194E+02  0.46464368528E+01  0.10731302766E+03  0.80051407987E+02 0.  0.
          5    1    5    5  501    0  0.32351625719E+02  0.46593988082E+02 -0.57263965744E+02  0.80739576323E+02  0.47000000000E+01 0. -1.
        -13    1    6    6    0    0  0.49377958843E+02 -0.49014025940E+02  0.19172307426E+02  0.72167409060E+02  0.00000000000E+00 0.  1.
         14    1    6    6    0    0 -0.26169434415E+02 -0.18422114254E+02 -0.14525870573E+02  0.35145618605E+02  0.00000000000E+00 0. -1.
         -5    1    3    3    0  503 -0.63567737102E+02  0.17239111290E+02 -0.17010226956E+03  0.18246894604E+03  0.47000000000E+01 0.  1.
         13    1    4    4    0    0  0.16599222642E+02  0.25853054398E+02 -0.43904273974E+02  0.53586377814E+02  0.00000000000E+00 0. -1.
        -14    1    4    4    0    0 -0.85916356868E+01 -0.22250013576E+02  0.18580648676E+02  0.30234414384E+02  0.00000000000E+00 0.  1.
</event>
<event>
12    1  0.8563264E-002  0.1978088E+03  0.7818608E-02  0.1152279E+00
         21   -1    0    0  503  502  0.00000000000E+00  0.00000000000E+00  0.22565436764E+04  0.22565436764E+04  0.00000000000E+00 0.  1.
         21   -1    0    0  501  503 -0.00000000000E+00 -0.00000000000E+00 -0.17503604534E+02  0.17503604534E+02  0.00000000000E+00 0.  1.
          6    2    1    2  501    0 -0.90189159922E+02  0.64601237414E+01  0.94840250673E+03  0.96881145330E+03  0.17593322458E+03 0.  0.
         24    2    3    3    0    0 -0.10248586497E+02  0.59196379810E+02  0.42658363749E+03  0.43825643233E+03  0.80534811084E+02 0.  0.
         -6    2    1    2    0  502  0.90189159922E+02 -0.64601237414E+01  0.12906375652E+04  0.13052358277E+04  0.17239322328E+03 0.  0.
        -24    2    5    5    0    0  0.77784194657E+02 -0.61816770062E+02  0.75046949892E+03  0.76207666936E+03  0.87662347540E+02 0.  0.
          5    1    3    3  501    0 -0.79940573425E+02 -0.52736256069E+02  0.52181886923E+03  0.53055502097E+03  0.47000000000E+01 0. -1.
        -13    1    4    4    0    0 -0.11397685135E+02  0.46559300203E+02  0.94793555064E+02  0.10622379085E+03  0.00000000000E+00 0.  1.
         14    1    4    4    0    0  0.11490986386E+01  0.12637079607E+02  0.33179008243E+03  0.33203264148E+03  0.00000000000E+00 0. -1.
         -5    1    5    5    0  502  0.12404965264E+02  0.55356646321E+02  0.54016806625E+03  0.54315915830E+03  0.47000000000E+01 0.  1.
         11    1    6    6    0    0 -0.50658756838E+01 -0.26849135233E+02  0.61929301278E+02  0.67688828591E+02  0.00000000000E+00 0. -1.
        -12    1    6    6    0    0  0.82850070341E+02 -0.34967634829E+02  0.68854019764E+03  0.69438784077E+03  0.00000000000E+00 0.  1.
</event>
<event>
12    1  0.8563264E-002  0.1727406E+03  0.7818608E-02  0.1175174E+00
         21   -1    0    0  501  502  0.00000000000E+00  0.00000000000E+00  0.22424707765E+02  0.22424707765E+02  0.00000000000E+00 0. -1.
         21   -1    0    0  502  503 -0.00000000000E+00 -0.00000000000E+00 -0.17230388236E+04  0.17230388236E+04  0.00000000000E+00 0. -1.
         -6    2    1    2    0  503 -0.26673613525E+02  0.26011772242E+01 -0.12703827637E+04  0.12820731936E+04  0.17064893701E+03 0.  0.
        -24    2    3    3    0    0  0.48381782086E+02  0.66483614268E+01 -0.57188244922E+03  0.57952463911E+03  0.80089163206E+02 0.  0.
          6    2    1    2  501    0  0.26673613525E+02 -0.26011772242E+01 -0.43023135219E+03  0.46339033780E+03  0.17003923365E+03 0.  0.
         24    2    5    5    0    0  0.76567908829E+02  0.19551765313E+02 -0.33911841498E+03  0.35707076814E+03  0.79077922895E+02 0.  0.
          5    1    5    5  501    0 -0.49894295304E+02 -0.22152942537E+02 -0.91112937208E+02  0.10631956966E+03  0.47000000000E+01 0. -1.
        -11    1    6    6    0    0  0.78487540043E+02 -0.12673120765E+02 -0.23907717438E+03  0.25194998956E+03  0.00000000000E+00 0.  1.
         12    1    6    6    0    0 -0.19196312140E+01  0.32224886078E+02 -0.10004124060E+03  0.10512077858E+03  0.00000000000E+00 0. -1.
         -5    1    3    3    0  503 -0.75055395611E+02 -0.40471842026E+01 -0.69850031443E+03  0.70254855446E+03  0.47000000000E+01 0.  1.
         11    1    4    4    0    0  0.38053672255E+02 -0.25530454682E+02 -0.46900563960E+03  0.47123897979E+03  0.00000000000E+00 0. -1.
        -12    1    4    4    0    0  0.10328109831E+02  0.32178816109E+02 -0.10287680962E+03  0.10828565933E+03  0.00000000000E+00 0.  1.
</event>
<event>
12    1  0.8563264E-002  0.1807752E+03  0.7818608E-02  0.1167120E+00
         21   -1    0    0  501  502  0.00000000000E+00  0.00000000000E+00  0.12727333651E+03  0.12727333651E+03  0.00000000000E+00 0. -1.
         21   -1    0    0  502  503 -0.00000000000E+00 -0.00000000000E+00 -0.26080001645E+03  0.26080001645E+03  0.00000000000E+00 0. -1.
         -6    2    1    2    0  503 -0.27248891173E+02  0.47546687808E+02 -0.92067726225E+02  0.20286972345E+03  0.17226859519E+03 0.  0.
        -24    2    3    3    0    0  0.51241585713E+01  0.68103746233E+02 -0.21857846940E+02  0.12273156681E+03  0.99603688521E+02 0.  0.
          6    2    1    2  501    0  0.27248891173E+02 -0.47546687808E+02 -0.41458953707E+02  0.18520362951E+03  0.17198357465E+03 0.  0.
         24    2    5    5    0    0  0.16163223574E+01  0.40758691421E+02 -0.24361931984E+02  0.91559266427E+02  0.78266928612E+02 0.  0.
          5    1    5    5  501    0  0.25632568815E+02 -0.88305379229E+02 -0.17097021724E+02  0.93644363080E+02  0.47000000000E+01 0. -1.
        -13    1    6    6    0    0 -0.56119648054E+01  0.27078609035E+02 -0.52562375624E+02  0.59393169199E+02  0.00000000000E+00 0.  1.
         14    1    6    6    0    0  0.72282871628E+01  0.13680082386E+02  0.28200443640E+02  0.32166097228E+02  0.00000000000E+00 0. -1.
         -5    1    3    3    0  503 -0.32373049744E+02 -0.20557058425E+02 -0.70209879286E+02  0.80138156643E+02  0.47000000000E+01 0.  1.
         13    1    4    4    0    0 -0.46084268332E+02  0.33816252648E+02  0.53259264572E+00  0.57162770977E+02  0.00000000000E+00 0. -1.
        -14    1    4    4    0    0  0.51208426903E+02  0.34287493585E+02 -0.22390439585E+02  0.65568795834E+02  0.00000000000E+00 0.  1.
</event>
<event>
12    1  0.8563264E-002  0.2087058E+03  0.7818608E-02  0.1143082E+00
         21   -1    0    0  501  502  0.00000000000E+00  0.00000000000E+00  0.31805277231E+03  0.31805277231E+03  0.00000000000E+00 0. -1.
         21   -1    0    0  502  503 -0.00000000000E+00 -0.00000000000E+00 -0.14415309402E+03  0.14415309402E+03  0.00000000000E+00 0.  1.
         -6    2    1    2    0  503  0.10215736574E+03 -0.59752038121E+02  0.29414206539E+02  0.20836699424E+03  0.16895317489E+03 0.  0.
        -24    2    3    3    0    0  0.10203052951E+03 -0.91823325470E+02  0.52426382187E+02  0.16861483973E+03  0.82708443202E+02 0.  0.
          6    2    1    2  501    0 -0.10215736574E+03  0.59752038121E+02  0.14448547175E+03  0.25383887210E+03  0.17190604412E+03 0.  0.
         24    2    5    5    0    0 -0.12701786263E+03  0.42669051522E+02  0.66471086482E+02  0.17006413220E+03  0.80927241010E+02 0.  0.
          5    1    5    5  501    0  0.24860496888E+02  0.17082986599E+02  0.78014385269E+02  0.83774739901E+02  0.47000000000E+01 0. -1.
        -11    1    6    6    0    0 -0.26292551242E+02  0.41809463638E+02  0.17928282586E-01  0.49389571996E+02  0.00000000000E+00 0.  1.
         12    1    6    6    0    0 -0.10072531138E+03  0.85958788396E+00  0.66453158199E+02  0.12067456020E+03  0.00000000000E+00 0. -1.
         -5    1    3    3    0  503  0.12683623365E+00  0.32071287350E+02 -0.23012175648E+02  0.39752154504E+02  0.47000000000E+01 0.  1.
         13    1    4    4    0    0  0.73833548199E+02 -0.32422622810E+02  0.62591984268E+02  0.10208024199E+03  0.00000000000E+00 0. -1.
        -14    1    4    4    0    0  0.28196981307E+02 -0.59400702660E+02 -0.10165602082E+02  0.66534597744E+02  0.00000000000E+00 0.  1.
</event>
<event>
12    1  0.8563264E-002  0.1935615E+03  0.7818608E-02  0.1155368E+00
         21   -1    0    0  501  502  0.00000000000E+00  0.00000000000E+00  0.11047014571E+03  0.11047014571E+03  0.00000000000E+00 0. -1.
         21   -1    0    0  502  503 -0.00000000000E+00 -0.00000000000E+00 -0.40026780562E+03  0.40026780562E+03  0.00000000000E+00 0.  1.
         -6    2    1    2    0  503 -0.60053099943E+02 -0.61661698087E+02 -0.24508820775E+03  0.31207993854E+03  0.17296565739E+03 0.  0.
        -24    2    3    3    0    0 -0.79027142506E+02 -0.21495363367E+02 -0.75772750701E+02  0.13697093611E+03  0.79449277476E+02 0.  0.
          6    2    1    2  501    0  0.60053099943E+02  0.61661698087E+02 -0.44709452155E+02  0.19865801278E+03  0.17337107921E+03 0.  0.
         24    2    5    5    0    0 -0.62889062898E+01  0.61213429379E+02  0.15969389697E+02  0.10862760356E+03  0.88081215758E+02 0.  0.
          5    1    5    5  501    0  0.66342006233E+02  0.44826870754E+00 -0.60678841852E+02  0.90030409220E+02  0.47000000000E+01 0. -1.
        -13    1    6    6    0    0 -0.34211378060E+02  0.16938674066E+02 -0.21909476412E+02  0.44015477102E+02  0.00000000000E+00 0.  1.
         14    1    6    6    0    0  0.27922471770E+02  0.44274755313E+02  0.37878866109E+02  0.64612126459E+02  0.00000000000E+00 0. -1.
         -5    1    3    3    0  503  0.18974042564E+02 -0.40166334720E+02 -0.16931545705E+03  0.17510900243E+03  0.47000000000E+01 0.  1.
         13    1    4    4    0    0 -0.81190902748E+02 -0.91264109757E+01 -0.87553206909E+02  0.11975315489E+03  0.00000000000E+00 0. -1.
        -14    1    4    4    0    0  0.21637602421E+01 -0.12368952391E+02  0.11780456209E+02  0.17217781220E+02  0.00000000000E+00 0.  1.
</event>
<event>
12    1  0.8563264E-002  0.1796191E+03  0.7818608E-02  0.1169366E+00
         21   -1    0    0  501  502  0.00000000000E+00  0.00000000000E+00  0.24690554420E+03  0.24690554420E+03  0.00000000000E+00 0.  1.
         21   -1    0    0  502  503 -0.00000000000E+00 -0.00000000000E+00 -0.55699973133E+03  0.55699973133E+03  0.00000000000E+00 0.  1.
         -6    2    1    2    0  503 -0.16431729210E+02  0.51724221671E+02 -0.50862338043E+03  0.53940778264E+03  0.17122387691E+03 0.  0.
        -24    2    3    3    0    0  0.44873662588E+02  0.73079123041E+02 -0.29051956018E+03  0.31179901901E+03  0.73910821870E+02 0.  0.
          6    2    1    2  501    0  0.16431729210E+02 -0.51724221671E+02  0.19852919330E+03  0.26449749288E+03  0.16613153318E+03 0.  0.
         24    2    5    5    0    0  0.37036933863E+02  0.34695015863E+00  0.18583149876E+03  0.20688410172E+03  0.83041139018E+02 0.  0.
          5    1    5    5  501    0 -0.20605204654E+02 -0.52071171830E+02  0.12697694538E+02  0.57613391161E+02  0.47000000000E+01 0. -1.
        -11    1    6    6    0    0 -0.71031337466E+01  0.15178148400E+02  0.14183518788E+03  0.14282174631E+03  0.00000000000E+00 0.  1.
         12    1    6    6    0    0  0.44140067610E+02 -0.14831198241E+02  0.43996310878E+02  0.64062355411E+02  0.00000000000E+00 0. -1.
         -5    1    3    3    0  503 -0.61305391798E+02 -0.21354901370E+02 -0.21810382024E+03  0.22760876363E+03  0.47000000000E+01 0.  1.
         11    1    4    4    0    0 -0.19337128406E+02  0.61787493168E+01 -0.45670731298E+02  0.49979167414E+02  0.00000000000E+00 0. -1.
        -12    1    4    4    0    0  0.64210790994E+02  0.66900373724E+02 -0.24484882888E+03  0.26181985160E+03  0.00000000000E+00 0.  1.
</event>
<event>
12    1  0.8563264E-002  0.1946526E+03  0.7818608E-02  0.1154833E+00
         21   -1    0    0  501  502  0.00000000000E+00  0.00000000000E+00  0.68637226996E+03  0.68637226996E+03  0.00000000000E+00 0. -1.
         21   -1    0    0  502  503 -0.00000000000E+00 -0.00000000000E+00 -0.55966471340E+02  0.55966471340E+02  0.00000000000E+00 0. -1.
         -6    2    1    2    0  503  0.47188570349E+02  0.73483379879E+02  0.25810421962E+03  0.32327610203E+03  0.17396287440E+03 0.  0.
        -24    2    3    3    0    0  0.92377302212E+02  0.84404289129E+02  0.19942790065E+03  0.24826751483E+03  0.78788459650E+02 0.  0.
          6    2    1    2  501    0 -0.47188570349E+02 -0.73483379879E+02  0.37230157900E+03  0.41906263927E+03  0.17140146328E+03 0.  0.
         24    2    5    5    0    0  0.16960124405E+02  0.15618925924E+02  0.16710429387E+03  0.18629173954E+03  0.79051695255E+02 0.  0.
          5    1    5    5  501    0 -0.64148694754E+02 -0.89102305803E+02  0.20519728513E+03  0.23277089973E+03  0.47000000000E+01 0. -1.
        -11    1    6    6    0    0 -0.16104784914E+02 -0.15938671234E+02  0.11398128804E+03  0.11621161458E+03  0.00000000000E+00 0.  1.
         12    1    6    6    0    0  0.33064909319E+02  0.31557597158E+02  0.53123005826E+02  0.70080124961E+02  0.00000000000E+00 0. -1.
         -5    1    3    3    0  503 -0.45188731863E+02 -0.10920909249E+02  0.58676318974E+02  0.75008587206E+02  0.47000000000E+01 0.  1.
         13    1    4    4    0    0  0.67945988392E+02  0.44790990543E+02  0.59527509778E+02  0.10082863974E+03  0.00000000000E+00 0. -1.
        -14    1    4    4    0    0  0.24431313820E+02  0.39613298586E+02  0.13990039087E+03  0.14743887508E+03  0.00000000000E+00 0.  1.
</event>
<event>
12    1  0.8563264E-002  0.3838141E+03  0.7818608E-02  0.1049674E+00
         21   -1    0    0  501  502  0.00000000000E+00  0.00000000000E+00  0.28421611284E+03  0.28421611284E+03  0.00000000000E+00 0. -1.
         21   -1    0    0  502  503 -0.00000000000E+00 -0.00000000000E+00 -0.71346682069E+03  0.71346682069E+03  0.00000000000E+00 0. -1.
         -6    2    1    2    0  503  0.10487538201E+02  0.34263131090E+03 -0.47659173436E+03  0.61096020495E+03  0.16919363791E+03 0.  0.
        -24    2    3    3    0    0 -0.38189343375E+02  0.16596764017E+03 -0.31916220401E+03  0.36932900171E+03  0.74402389087E+02 0.  0.
          6    2    1    2  501    0 -0.10487538201E+02 -0.34263131090E+03  0.47341026509E+02  0.38672272858E+03  0.17264730621E+03 0.  0.
         24    2    5    5    0    0 -0.32716950943E+02 -0.33070488228E+03  0.10717266199E+02  0.34200387003E+03  0.80097873104E+02 0.  0.
          5    1    5    5  501    0  0.22229412742E+02 -0.11926428617E+02  0.36623760311E+02  0.44718858547E+02  0.47000000000E+01 0. -1.
        -11    1    6    6    0    0 -0.38366935940E+02 -0.24516302170E+03 -0.24437880375E+02  0.24934742626E+03  0.00000000000E+00 0.  1.
         12    1    6    6    0    0  0.56499849971E+01 -0.85541860582E+02  0.35155146574E+02  0.92656443774E+02  0.00000000000E+00 0. -1.
         -5    1    3    3    0  503  0.48676881576E+02  0.17666367073E+03 -0.15742953035E+03  0.24163120325E+03  0.47000000000E+01 0.  1.
         11    1    4    4    0    0 -0.20513024727E+02  0.14800225980E+03 -0.21277640659E+03  0.25999856209E+03  0.00000000000E+00 0. -1.
        -12    1    4    4    0    0 -0.17676318648E+02  0.17965380366E+02 -0.10638579743E+03  0.10933043962E+03  0.00000000000E+00 0.  1.
</event>
<event>
12    1  0.8563264E-002  0.2251019E+03  0.7818608E-02  0.1130670E+00
         21   -1    0    0  501  502  0.00000000000E+00  0.00000000000E+00  0.79266901426E+02  0.79266901426E+02  0.00000000000E+00 0. -1.
         21   -1    0    0  502  503 -0.00000000000E+00 -0.00000000000E+00 -0.68071778366E+03  0.68071778366E+03  0.00000000000E+00 0. -1.
         -6    2    1    2    0  503  0.13585015596E+03 -0.36478019698E+02 -0.40529975518E+03  0.46361486069E+03  0.17574110705E+03 0.  0.
        -24    2    3    3    0    0  0.35416652785E+02 -0.54057626626E+02 -0.10679262944E+03  0.14813978202E+03  0.79775704479E+02 0.  0.
          6    2    1    2  501    0 -0.13585015596E+03  0.36478019698E+02 -0.19615112705E+03  0.29636982439E+03  0.17197062939E+03 0.  0.
         24    2    5    5    0    0 -0.97568575913E+02  0.75467300578E+02 -0.77316264629E+02  0.16549026938E+03  0.78703773860E+02 0.  0.
          5    1    5    5  501    0 -0.38281580049E+02 -0.38989280880E+02 -0.11883486242E+03  0.13087955502E+03  0.47000000000E+01 0. -1.
        -11    1    6    6    0    0 -0.28615696864E+02 -0.11160061899E+02 -0.47479403622E+00  0.30718569596E+02  0.00000000000E+00 0.  1.
         12    1    6    6    0    0 -0.68952879049E+02  0.86627362477E+02 -0.76841470593E+02  0.13477169978E+03  0.00000000000E+00 0. -1.
         -5    1    3    3    0  503  0.10043350318E+03  0.17579606928E+02 -0.29850712574E+03  0.31547507867E+03  0.47000000000E+01 0.  1.
         11    1    4    4    0    0  0.34732345178E+02  0.80400913840E+00 -0.88093786702E+01  0.35841140953E+02  0.00000000000E+00 0. -1.
        -12    1    4    4    0    0  0.68430760724E+00 -0.54861635764E+02 -0.97983250766E+02  0.11229864107E+03  0.00000000000E+00 0.  1.
</event>
<event>
12    1  0.8563264E-002  0.2603540E+03  0.7818608E-02  0.1107041E+00
         21   -1    0    0  501  502  0.00000000000E+00  0.00000000000E+00  0.35738945682E+03  0.35738945682E+03  0.00000000000E+00 0. -1.
         21   -1    0    0  502  503 -0.00000000000E+00 -0.00000000000E+00 -0.23929348606E+03  0.23929348606E+03  0.00000000000E+00 0.  1.
         -6    2    1    2    0  503  0.15391702993E+03  0.11953060143E+03 -0.77612754052E+02  0.27097434682E+03  0.17153815978E+03 0.  0.
        -24    2    3    3    0    0  0.11346737474E+03  0.14964875969E+02 -0.92980085208E+01  0.13960022454E+03  0.79391290995E+02 0.  0.
          6    2    1    2  501    0 -0.15391702993E+03 -0.11953060143E+03  0.19570872482E+03  0.32570859606E+03  0.17264462864E+03 0.  0.
         24    2    5    5    0    0 -0.17024877449E+03 -0.59380570943E+02  0.14213352720E+03  0.24338518598E+03  0.80769497821E+02 0.  0.
          5    1    5    5  501    0  0.16331744559E+02 -0.60150030490E+02  0.53575197613E+02  0.82323410082E+02  0.47000000000E+01 0. -1.
        -13    1    6    6    0    0 -0.27789778295E+02 -0.68322994634E+01 -0.81421606132E+01  0.29753098546E+02  0.00000000000E+00 0.  1.
         14    1    6    6    0    0 -0.14245899619E+03 -0.52548271479E+02  0.15027568782E+03  0.21363208743E+03  0.00000000000E+00 0. -1.
         -5    1    3    3    0  503  0.40449655182E+02  0.10456572546E+03 -0.68314745531E+02  0.13137412227E+03  0.47000000000E+01 0.  1.
         13    1    4    4    0    0  0.48207507374E+02  0.28940306350E+02  0.28354488253E+02  0.62972073992E+02  0.00000000000E+00 0. -1.
        -14    1    4    4    0    0  0.65259867371E+02 -0.13975430381E+02 -0.37652496773E+02  0.76628150551E+02  0.00000000000E+00 0.  1.
</event>
<event>
12    1  0.8563264E-002  0.1917117E+03  0.7818608E-02  0.1157107E+00
         21   -1    0    0  501  502  0.00000000000E+00  0.00000000000E+00  0.54956791086E+03  0.54956791086E+03  0.00000000000E+00 0.  1.
         21   -1    0    0  502  503 -0.00000000000E+00 -0.00000000000E+00 -0.83420389657E+02  0.83420389657E+02  0.00000000000E+00 0. -1.
         -6    2    1    2    0  503  0.45883087582E+02 -0.67397103777E+02  0.37481816754E+03  0.42063384860E+03  0.17261676787E+03 0.  0.
        -24    2    3    3    0    0  0.52387800343E+01 -0.21600250445E+02  0.64181756381E+02  0.10398517665E+03  0.78737560770E+02 0.  0.
          6    2    1    2  501    0 -0.45883087582E+02  0.67397103777E+02  0.91329353663E+02  0.21235445191E+03  0.17351004318E+03 0.  0.
         24    2    5    5    0    0  0.26593584836E+02  0.81528788035E+02  0.64736278897E+02  0.13372968374E+03  0.79615830555E+02 0.  0.
          5    1    5    5  501    0 -0.72476672417E+02 -0.14131684258E+02  0.26593074767E+02  0.78624768173E+02  0.47000000000E+01 0. -1.
        -13    1    6    6    0    0 -0.17239723697E+02  0.45719751827E+02  0.15319441253E+01  0.48886098567E+02  0.00000000000E+00 0.  1.
         14    1    6    6    0    0  0.43833308533E+02  0.35809036207E+02  0.63204334771E+02  0.84843585173E+02  0.00000000000E+00 0. -1.
         -5    1    3    3    0  503  0.40644307547E+02 -0.45796853332E+02  0.31063641116E+03  0.31664867195E+03  0.47000000000E+01 0.  1.
         13    1    4    4    0    0 -0.20395454036E+02 -0.32088864988E+02  0.66064124451E+02  0.76224263467E+02  0.00000000000E+00 0. -1.
        -14    1    4    4    0    0  0.25634234071E+02  0.10488614542E+02 -0.18823680701E+01  0.27760913187E+02  0.00000000000E+00 0.  1.
</event>
<event>
12    1  0.8563264E-002  0.2079860E+03  0.7818608E-02  0.1146918E+00
         21   -1    0    0  501  502  0.00000000000E+00  0.00000000000E+00  0.11167280723E+03  0.11167280723E+03  0.00000000000E+00 0.  1.
         21   -1    0    0  502  503 -0.00000000000E+00 -0.00000000000E+00 -0.45798762378E+03  0.45798762378E+03  0.00000000000E+00 0.  1.
         -6    2    1    2    0  503  0.36501321933E+01 -0.90757474592E+02 -0.31419934316E+03  0.37680156356E+03  0.18710411112E+03 0.  0.
        -24    2    3    3    0    0  0.34600340155E+02 -0.12904596985E+03 -0.26238409739E+03  0.30517172385E+03  0.80214216946E+02 0.  0.
          6    2    1    2  501    0 -0.36501321933E+01  0.90757474592E+02 -0.32115473388E+02  0.19285886745E+03  0.16707153098E+03 0.  0.
         24    2    5    5    0    0 -0.32449466597E+02  0.17318223074E+02  0.31276090928E+02  0.91550892680E+02  0.77784852985E+02 0.  0.
          5    1    5    5  501    0  0.28799334404E+02  0.73439251518E+02 -0.63391564316E+02  0.10130797477E+03  0.47000000000E+01 0. -1.
        -11    1    6    6    0    0 -0.37869746410E+02  0.43908585112E+02  0.14944451417E+02  0.59878361432E+02  0.00000000000E+00 0.  1.
         12    1    6    6    0    0  0.54202798121E+01 -0.26590362038E+02  0.16331639511E+02  0.31672531248E+02  0.00000000000E+00 0. -1.
         -5    1    3    3    0  503 -0.30950207961E+02  0.38288495262E+02 -0.51815245769E+02  0.71629839707E+02  0.47000000000E+01 0.  1.
         11    1    4    4    0    0 -0.11258955950E+02  0.26247530118E+01 -0.53118898871E+01  0.12722798105E+02  0.00000000000E+00 0. -1.
        -12    1    4    4    0    0  0.45859296104E+02 -0.13167072287E+03 -0.25707220750E+03  0.29244892574E+03  0.00000000000E+00 0.  1.
</event>
<event>
12    1  0.8563264E-002  0.2103116E+03  0.7818608E-02  0.1141623E+00
         21   -1    0    0  501  502  0.00000000000E+00  0.00000000000E+00  0.99592945096E+02  0.99592945096E+02  0.00000000000E+00 0. -1.
         21   -1    0    0  502  503 -0.00000000000E+00 -0.00000000000E+00 -0.44355857456E+03  0.44355857456E+03  0.00000000000E+00 0. -1.
         -6    2    1    2    0  503  0.10067199677E+03 -0.62564830525E+02 -0.15031402477E+03  0.25726359001E+03  0.17187507018E+03 0.  0.
        -24    2    3    3    0    0 -0.89209696316E+01 -0.22832911824E+02 -0.10453545306E+03  0.13193597423E+03  0.76671473110E+02 0.  0.
          6    2    1    2  501    0 -0.10067199677E+03  0.62564830525E+02 -0.19365160470E+03  0.28588792965E+03  0.17372897100E+03 0.  0.
         24    2    5    5    0    0 -0.13832747649E+03  0.63835845008E+02 -0.16554928781E+03  0.23865043558E+03  0.79611292219E+02 0.  0.
          5    1    5    5  501    0  0.37655479722E+02 -0.12710144823E+01 -0.28102316884E+02  0.47237494061E+02  0.47000000000E+01 0. -1.
        -13    1    6    6    0    0 -0.41146687769E+02  0.54796679226E+02 -0.99454015096E+02  0.12077593753E+03  0.00000000000E+00 0.  1.
         14    1    6    6    0    0 -0.97180788726E+02  0.90391657822E+01 -0.66095272715E+02  0.11787449805E+03  0.00000000000E+00 0. -1.
         -5    1    3    3    0  503  0.10959296640E+03 -0.39731918701E+02 -0.45778571710E+02  0.12532761578E+03  0.47000000000E+01 0.  1.
         11    1    4    4    0    0  0.15023342243E+02  0.12647347959E+02 -0.72995816036E+00  0.19651693603E+02  0.00000000000E+00 0. -1.
        -12    1    4    4    0    0 -0.23944311875E+02 -0.35480259783E+02 -0.10380549490E+03  0.11228428063E+03  0.00000000000E+00 0.  1.
</event>
<event>
12    1  0.8563264E-002  0.2270555E+03  0.7818608E-02  0.1128796E+00
         21   -1    0    0  501  502  0.00000000000E+00  0.00000000000E+00  0.21601103056E+03  0.21601103056E+03  0.00000000000E+00 0.  1.
         21   -1    0    0  502  503 -0.00000000000E+00 -0.00000000000E+00 -0.41944469974E+03  0.41944469974E+03  0.00000000000E+00 0.  1.
         -6    2    1    2    0  503 -0.14367723284E+03 -0.36926468402E+02 -0.31048291959E+03  0.38443030880E+03  0.17140684835E+03 0.  0.
        -24    2    3    3    0    0 -0.13918354616E+03  0.16557891604E+02 -0.17102582312E+03  0.23492732642E+03  0.79339732973E+02 0.  0.
          6    2    1    2  501    0  0.14367723284E+03  0.36926468402E+02  0.10704925041E+03  0.25102542150E+03  0.17189388855E+03 0.  0.
         24    2    5    5    0    0  0.16521370449E+03  0.31802039466E+02  0.12316762898E+03  0.22324104620E+03  0.79745608121E+02 0.  0.
          5    1    5    5  501    0 -0.21536471653E+02  0.51244289357E+01 -0.16118378569E+02  0.27784375301E+02  0.47000000000E+01 0. -1.
        -11    1    6    6    0    0  0.64110240502E+02 -0.18179584997E+02  0.75765818150E+02  0.10090133521E+03  0.00000000000E+00 0.  1.
         12    1    6    6    0    0  0.10110346399E+03  0.49981624463E+02  0.47401810830E+02  0.12233971099E+03  0.00000000000E+00 0. -1.
         -5    1    3    3    0  503 -0.44936866785E+01 -0.53484360005E+02 -0.13945709647E+03  0.14950298238E+03  0.47000000000E+01 0.  1.
         13    1    4    4    0    0  0.88075581070E+01 -0.65254726443E+01 -0.15709468214E+02  0.19155737120E+02  0.00000000000E+00 0. -1.
        -14    1    4    4    0    0 -0.14799110427E+03  0.23083364248E+02 -0.15531635491E+03  0.21577158930E+03  0.00000000000E+00 0.  1.
</event>
<event>
12    1  0.8563264E-002  0.2194551E+03  0.7818608E-02  0.1136126E+00
         21   -1    0    0  501  502  0.00000000000E+00  0.00000000000E+00  0.31197279023E+04  0.31197279023E+04  0.00000000000E+00 0.  1.
         21   -1    0    0  502  503 -0.00000000000E+00 -0.00000000000E+00 -0.17031007033E+02  0.17031007033E+02  0.00000000000E+00 0.  1.
         -6    2    1    2    0  503  0.16424592346E+02  0.11612496486E+03  0.10101148021E+04  0.10336790856E+04  0.18548790781E+03 0.  0.
        -24    2    3    3    0    0 -0.46074585687E+02  0.46490382190E+02  0.32940356223E+03  0.34655100117E+03  0.85479041424E+02 0.  0.
          6    2    1    2  501    0 -0.16424592346E+02 -0.11612496486E+03  0.20925820932E+04  0.21030798238E+04  0.17404066635E+03 0.  0.
         24    2    5    5    0    0  0.18667754902E+02 -0.94901245556E+02  0.19668251715E+04  0.19707211729E+04  0.77368951139E+02 0.  0.
          5    1    5    5  501    0 -0.35092347249E+02 -0.21223719301E+02  0.12575692174E+03  0.13235865088E+03  0.47000000000E+01 0. -1.
        -11    1    6    6    0    0  0.52732734422E+01 -0.10071705628E+03  0.13658125908E+04  0.13695312212E+04  0.00000000000E+00 0.  1.
         12    1    6    6    0    0  0.13394481460E+02  0.58158107202E+01  0.60101258072E+03  0.60118995165E+03  0.00000000000E+00 0. -1.
         -5    1    3    3    0  503  0.62499178033E+02  0.69634582667E+02  0.68071123983E+03  0.68712808442E+03  0.47000000000E+01 0.  1.
         11    1    4    4    0    0 -0.53695627984E+02  0.57531011511E+02  0.17881342476E+03  0.19536447636E+03  0.00000000000E+00 0. -1.
        -12    1    4    4    0    0  0.76210422974E+01 -0.11040629320E+02  0.15059013747E+03  0.15118652481E+03  0.00000000000E+00 0.  1.
</event>
<event>
12    1  0.8563264E-002  0.1835165E+03  0.7818608E-02  0.1164598E+00
         21   -1    0    0  501  502  0.00000000000E+00  0.00000000000E+00  0.54613929383E+02  0.54613929383E+02  0.00000000000E+00 0. -1.
         21   -1    0    0  502  503 -0.00000000000E+00 -0.00000000000E+00 -0.66726315110E+03  0.66726315110E+03  0.00000000000E+00 0. -1.
         -6    2    1    2    0  503 -0.32402054343E+02  0.52025714541E+02 -0.40735725792E+03  0.44651714481E+03  0.17228191121E+03 0.  0.
        -24    2    3    3    0    0 -0.73130289065E+02  0.57804934192E+02 -0.37459687516E+03  0.39372016420E+03  0.77480960358E+02 0.  0.
          6    2    1    2  501    0  0.32402054343E+02 -0.52025714541E+02 -0.20529196379E+03  0.27535993567E+03  0.17297900357E+03 0.  0.
         24    2    5    5    0    0 -0.17567378556E+02  0.13433742279E+02 -0.16222044817E+03  0.18230548833E+03  0.80191888939E+02 0.  0.
          5    1    5    5  501    0  0.49969432899E+02 -0.65459456820E+02 -0.43071515627E+02  0.93054447340E+02  0.47000000000E+01 0. -1.
        -11    1    6    6    0    0 -0.21700128269E+02  0.34410771021E+02 -0.36111610791E+02  0.54397106201E+02  0.00000000000E+00 0.  1.
         12    1    6    6    0    0  0.41327497128E+01 -0.20977028742E+02 -0.12610883737E+03  0.12790838213E+03  0.00000000000E+00 0. -1.
         -5    1    3    3    0  503  0.40728234721E+02 -0.57792196513E+01 -0.32760382758E+02  0.52796980612E+02  0.47000000000E+01 0.  1.
         13    1    4    4    0    0 -0.49065250700E+02  0.76302273836E+02 -0.27211706253E+03  0.28683990577E+03  0.00000000000E+00 0. -1.
        -14    1    4    4    0    0 -0.24065038365E+02 -0.18497339644E+02 -0.10247981263E+03  0.10688025843E+03  0.00000000000E+00 0.  1.
</event>
<event>
12    1  0.8563264E-002  0.2341284E+03  0.7818608E-02  0.1124246E+00
         21   -1    0    0  501  502  0.00000000000E+00  0.00000000000E+00  0.16857983166E+04  0.16857983166E+04  0.00000000000E+00 0. -1.
         21   -1    0    0  502  503 -0.00000000000E+00 -0.00000000000E+00 -0.39991722969E+02  0.39991722969E+02  0.00000000000E+00 0. -1.
         -6    2    1    2    0  503  0.13899549209E+03  0.77496387411E+02  0.44432629005E+03  0.50223697846E+03  0.17172854632E+03 0.  0.
        -24    2    3    3    0    0  0.10540598708E+03  0.27208349144E+02  0.41143360048E+03  0.43323581422E+03  0.81024358950E+02 0.  0.
          6    2    1    2  501    0 -0.13899549209E+03 -0.77496387411E+02  0.12014803036E+04  0.12235530611E+04  0.16793372671E+03 0.  0.
         24    2    5    5    0    0 -0.63873013748E+01 -0.41632861401E+02  0.30674121195E+03  0.31831759073E+03  0.73904158809E+02 0.  0.
          5    1    5    5  501    0 -0.13260819072E+03 -0.35863526010E+02  0.89473909161E+03  0.90523547036E+03  0.47000000000E+01 0. -1.
        -13    1    6    6    0    0 -0.14059819121E+02 -0.40112049332E+02  0.73202016605E+02  0.84647446804E+02  0.00000000000E+00 0.  1.
         14    1    6    6    0    0  0.76725177463E+01 -0.15208120688E+01  0.23353919535E+03  0.23367014392E+03  0.00000000000E+00 0. -1.
         -5    1    3    3    0  503  0.33589505013E+02  0.50288038267E+02  0.32892689571E+02  0.69001164244E+02  0.47000000000E+01 0.  1.
         13    1    4    4    0    0  0.11003079061E+03  0.43414103204E+02  0.37196549603E+03  0.39032023965E+03  0.00000000000E+00 0. -1.
        -14    1    4    4    0    0 -0.46248035269E+01 -0.16205754060E+02  0.39468104441E+02  0.42915574568E+02  0.00000000000E+00 0.  1.
</event>
<event>
12    1  0.8563264E-002  0.2083060E+03  0.7818608E-02  0.1143178E+00
         21   -1    0    0  503  502  0.00000000000E+00  0.00000000000E+00  0.68723501325E+02  0.68723501325E+02  0.00000000000E+00 0.  1.
         21   -1    0    0  501  503 -0.00000000000E+00 -0.00000000000E+00 -0.11960984361E+04  0.11960984361E+04  0.00000000000E+00 0.  1.
          6    2    1    2  501    0 -0.25459185057E+02 -0.11373265952E+03 -0.12669236369E+03  0.24268838122E+03  0.17106550621E+03 0.  0.
         24    2    3    3    0    0  0.38798645974E+02 -0.25885797053E+02 -0.75712043909E+02  0.12240861110E+03  0.84119825608E+02 0.  0.
         -6    2    1    2    0  502  0.25459185057E+02  0.11373265952E+03 -0.10006825711E+04  0.10221335562E+04  0.17265025546E+03 0.  0.
        -24    2    5    5    0    0  0.77100263551E+02  0.52083057522E+02 -0.68578662753E+03  0.69709660495E+03  0.83566037462E+02 0.  0.
          5    1    3    3  501    0 -0.64257831031E+02 -0.87846862468E+02 -0.50980319785E+02  0.12027977012E+03  0.47000000000E+01 0. -1.
        -11    1    4    4    0    0  0.44955252942E+02 -0.51397862316E+02 -0.64289350634E+02  0.93786116364E+02  0.00000000000E+00 0.  1.
         12    1    4    4    0    0 -0.61566069682E+01  0.25512065262E+02 -0.11422693275E+02  0.28622494737E+02  0.00000000000E+00 0. -1.
         -5    1    5    5    0  502 -0.51641078494E+02  0.61649602000E+02 -0.31489594353E+03  0.32503695123E+03  0.47000000000E+01 0.  1.
         11    1    6    6    0    0 -0.69611716213E+01  0.19163717558E+02 -0.38695443327E+02  0.43738350624E+02  0.00000000000E+00 0. -1.
        -12    1    6    6    0    0  0.84061435172E+02  0.32919339963E+02 -0.64709118420E+03  0.65335825433E+03  0.00000000000E+00 0.  1.
</event>
<event>
12    1  0.8563264E-002  0.2723311E+03  0.7818608E-02  0.1100118E+00
         21   -1    0    0  503  502  0.00000000000E+00  0.00000000000E+00  0.43046501889E+03  0.43046501889E+03  0.00000000000E+00 0. -1.
         21   -1    0    0  501  503 -0.00000000000E+00 -0.00000000000E+00 -0.25353736785E+03  0.25353736785E+03  0.00000000000E+00 0. -1.
          6    2    1    2  501    0  0.15549599679E+02 -0.21025855621E+03 -0.10588897522E+03  0.29219296268E+03  0.17237691799E+03 0.  0.
         24    2    3    3    0    0 -0.32373872392E+02 -0.11422321894E+03 -0.11612749385E+03  0.18427464892E+03  0.79853240682E+02 0.  0.
         -6    2    1    2    0  502 -0.15549599679E+02  0.21025855621E+03  0.28281662626E+03  0.39180942406E+03  0.17052545319E+03 0.  0.
        -24    2    5    5    0    0 -0.83140923486E+01  0.22297279994E+03  0.20716837176E+03  0.31461646475E+03  0.79238828763E+02 0.  0.
          5    1    3    3  501    0  0.47923472071E+02 -0.96035337278E+02  0.10238518632E+02  0.10791831376E+03  0.47000000000E+01 0. -1.
        -13    1    4    4    0    0  0.17862058466E+02 -0.52573301467E+02 -0.18872135025E+02  0.58644374327E+02  0.00000000000E+00 0.  1.
         14    1    4    4    0    0 -0.50235930858E+02 -0.61649917469E+02 -0.97255358828E+02  0.12563027459E+03  0.00000000000E+00 0. -1.
         -5    1    5    5    0  502 -0.72355073308E+01 -0.12714243731E+02  0.75648254496E+02  0.77192959318E+02  0.47000000000E+01 0.  1.
         11    1    6    6    0    0  0.24671982784E+02  0.14711209627E+03  0.16258268975E+03  0.22064407223E+03  0.00000000000E+00 0. -1.
        -12    1    6    6    0    0 -0.32986075133E+02  0.75860703675E+02  0.44585682010E+02  0.93972392515E+02  0.00000000000E+00 0.  1.
</event>
<event>
12    1  0.8563264E-002  0.2906600E+03  0.7818608E-02  0.1090007E+00
         21   -1    0    0  501  502  0.00000000000E+00  0.00000000000E+00  0.12240232740E+03  0.12240232740E+03  0.00000000000E+00 0. -1.
         21   -1    0    0  502  503 -0.00000000000E+00 -0.00000000000E+00 -0.26706851473E+04  0.26706851473E+04  0.00000000000E+00 0.  1.
         -6    2    1    2    0  503  0.15609110014E+03  0.17468068418E+03 -0.24767822682E+04  0.24937789874E+04  0.17206237466E+03 0.  0.
        -24    2    3    3    0    0  0.13930077933E+03  0.63536436894E+02 -0.17216306214E+04  0.17302928655E+04  0.80372992986E+02 0.  0.
          6    2    1    2  501    0 -0.15609110014E+03 -0.17468068418E+03 -0.71500551698E+02  0.29930848732E+03  0.17203333608E+03 0.  0.
         24    2    5    5    0    0 -0.32082975286E+02 -0.29593761610E+02  0.58235650523E+01  0.93324655040E+02  0.82282861515E+02 0.  0.
          5    1    5    5  501    0 -0.12400812486E+03 -0.14508692257E+03 -0.77324116750E+02  0.20598383228E+03  0.47000000000E+01 0. -1.
        -13    1    6    6    0    0 -0.13285995264E+02 -0.56416782449E+02 -0.65127961916E+01  0.58324844846E+02  0.00000000000E+00 0.  1.
         14    1    6    6    0    0 -0.18796980021E+02  0.26823020840E+02  0.12336361244E+02  0.34999810194E+02  0.00000000000E+00 0. -1.
         -5    1    3    3    0  503  0.16790320806E+02  0.11114424729E+03 -0.75515164683E+03  0.76348612187E+03  0.47000000000E+01 0.  1.
         11    1    4    4    0    0  0.19952084975E+02  0.14877623916E+02 -0.71654086865E+03  0.71697297427E+03  0.00000000000E+00 0. -1.
        -12    1    4    4    0    0  0.11934869436E+03  0.48658812978E+02 -0.10050897528E+04  0.10133198913E+04  0.00000000000E+00 0.  1.
</event>
<event>
12    1  0.8563264E-002  0.1791808E+03  0.7818608E-02  0.1168769E+00
         21   -1    0    0  501  502  0.00000000000E+00  0.00000000000E+00  0.28164904221E+03  0.28164904221E+03  0.00000000000E+00 0.  1.
         21   -1    0    0  502  503 -0.00000000000E+00 -0.00000000000E+00 -0.11541734332E+03  0.11541734332E+03  0.00000000000E+00 0. -1.
         -6    2    1    2    0  503  0.37598051874E+02 -0.34340537589E+02  0.57674677050E+02  0.18756603166E+03  0.17106069635E+03 0.  0.
        -24    2    3    3    0    0  0.89061995187E+02 -0.22566732043E+02  0.18732586921E+02  0.12179570141E+03  0.77730217336E+02 0.  0.
          6    2    1    2  501    0 -0.37598051874E+02  0.34340537589E+02  0.10855702184E+03  0.20950035386E+03  0.17179314669E+03 0.  0.
         24    2    5    5    0    0  0.29356415464E+02 -0.26583171463E+02  0.43375872581E+02  0.97852374749E+02  0.78263380887E+02 0.  0.
          5    1    5    5  501    0 -0.66954467339E+02  0.60923709052E+02  0.65181149258E+02  0.11164797911E+03  0.47000000000E+01 0. -1.
        -13    1    6    6    0    0 -0.20052864798E+02 -0.94978165364E+01  0.39654602536E+02  0.45440217955E+02  0.00000000000E+00 0.  1.
         14    1    6    6    0    0  0.49409280262E+02 -0.17085354927E+02  0.37212700447E+01  0.52412156793E+02  0.00000000000E+00 0. -1.
         -5    1    3    3    0  503 -0.51463943312E+02 -0.11773805546E+02  0.38942090129E+02  0.65770330255E+02  0.47000000000E+01 0.  1.
         11    1    4    4    0    0 -0.29271555488E+01 -0.27748379326E+02  0.69087379767E+00  0.27910895747E+02  0.00000000000E+00 0. -1.
        -12    1    4    4    0    0  0.91989150735E+02  0.51816472824E+01  0.18041713124E+02  0.93884805661E+02  0.00000000000E+00 0.  1.
</event>
<event>
12    1  0.8563264E-002  0.1947829E+03  0.7818608E-02  0.1154438E+00
         21   -1    0    0  503  502  0.00000000000E+00  0.00000000000E+00  0.22331247834E+03  0.22331247834E+03  0.00000000000E+00 0. -1.
         21   -1    0    0  501  503 -0.00000000000E+00 -0.00000000000E+00 -0.20781466849E+03  0.20781466849E+03  0.00000000000E+00 0.  1.
          6    2    1    2  501    0 -0.52097960590E+02  0.70873734981E+02  0.10090465735E+03  0.21936755143E+03  0.17379035917E+03 0.  0.
         24    2    3    3    0    0 -0.92237037321E+02  0.88316760259E+02  0.68048455920E+02  0.16444010307E+03  0.78118076953E+02 0.  0.
         -6    2    1    2    0  502  0.52097960590E+02 -0.70873734981E+02 -0.85406847505E+02  0.21175959540E+03  0.17265721194E+03 0.  0.
        -24    2    5    5    0    0  0.84492237669E+02 -0.28237038057E+02 -0.10033234792E+03  0.15597305872E+03  0.79528274607E+02 0.  0.
          5    1    3    3  501    0  0.40139076731E+02 -0.17443025278E+02  0.32856201430E+02  0.54927448367E+02  0.47000000000E+01 0. -1.
        -11    1    4    4    0    0 -0.53088094914E+02  0.68728131699E+02  0.40968928917E+01  0.86940706461E+02  0.00000000000E+00 0.  1.
         12    1    4    4    0    0 -0.39148942407E+02  0.19588628559E+02  0.63951563029E+02  0.77499396606E+02  0.00000000000E+00 0. -1.
         -5    1    5    5    0  502 -0.32394277079E+02 -0.42636696924E+02  0.14925500416E+02  0.55786536680E+02  0.47000000000E+01 0.  1.
         13    1    6    6    0    0  0.20861545721E+02  0.19910461334E+02 -0.13998327336E+01  0.28871960309E+02  0.00000000000E+00 0. -1.
        -14    1    6    6    0    0  0.63630691948E+02 -0.48147499391E+02 -0.98932515187E+02  0.12710109841E+03  0.00000000000E+00 0.  1.
</event>
<event>
12    1  0.8563264E-002  0.1824689E+03  0.7818608E-02  0.1166347E+00
         21   -1    0    0  503  502  0.00000000000E+00  0.00000000000E+00  0.13406835764E+03  0.13406835764E+03  0.00000000000E+00 0.  1.
         21   -1    0    0  501  503 -0.00000000000E+00 -0.00000000000E+00 -0.24324048737E+03  0.24324048737E+03  0.00000000000E+00 0.  1.
          6    2    1    2  501    0  0.35329893587E+02  0.45804355660E+02 -0.56356220279E+02  0.18734985489E+03  0.16904941345E+03 0.  0.
         24    2    3    3    0    0  0.26761879667E+02 -0.39163553288E+02 -0.31302185215E+02  0.98227741553E+02  0.80117914987E+02 0.  0.
         -6    2    1    2    0  502 -0.35329893587E+02 -0.45804355660E+02 -0.52815909451E+02  0.18995899012E+03  0.17305680355E+03 0.  0.
        -24    2    5    5    0    0  0.24814101160E+02 -0.41235933872E+02  0.24043661000E+02  0.92144603895E+02  0.74809013721E+02 0.  0.
          5    1    3    3  501    0  0.85680139207E+01  0.84967908948E+02 -0.25054035064E+02  0.89122113342E+02  0.47000000000E+01 0. -1.
        -13    1    4    4    0    0 -0.23878050061E+02 -0.27722402801E+02 -0.28244108315E+02  0.46221451149E+02  0.00000000000E+00 0.  1.
         14    1    4    4    0    0  0.50639929727E+02 -0.11441150487E+02 -0.30580768995E+01  0.52006290404E+02  0.00000000000E+00 0. -1.
         -5    1    5    5    0  502 -0.60143994748E+02 -0.45684217881E+01 -0.76859570451E+02  0.97814386221E+02  0.47000000000E+01 0.  1.
         11    1    6    6    0    0 -0.15851490500E+02 -0.45200973639E+02  0.99390280585E+01  0.48920159932E+02  0.00000000000E+00 0. -1.
        -12    1    6    6    0    0  0.40665591660E+02  0.39650397675E+01  0.14104632941E+02  0.43224443962E+02  0.00000000000E+00 0.  1.
</event>
<event>
12    1  0.8563264E-002  0.1732990E+03  0.7818608E-02  0.1174889E+00
         21   -1    0    0  501  502  0.00000000000E+00  0.00000000000E+00  0.20835708650E+03  0.20835708650E+03  0.00000000000E+00 0.  1.
         21   -1    0    0  502  503 -0.00000000000E+00 -0.00000000000E+00 -0.17684248924E+03  0.17684248924E+03  0.00000000000E+00 0.  1.
         -6    2    1    2    0  503 -0.13628551318E+02  0.30449927896E+01  0.10042538205E+03  0.20029427057E+03  0.17273542796E+03 0.  0.
        -24    2    3    3    0    0 -0.42721296874E+02  0.58177045765E+02  0.41016648301E+02  0.11405380005E+03  0.78206304147E+02 0.  0.
          6    2    1    2  501    0  0.13628551318E+02 -0.30449927896E+01 -0.68910784795E+02  0.18490530517E+03  0.17101539764E+03 0.  0.
         24    2    5    5    0    0 -0.20925059788E+02 -0.30184551253E+02 -0.97881922253E+02  0.13206664055E+03  0.80695486737E+02 0.  0.
          5    1    5    5  501    0  0.34553611107E+02  0.27139558464E+02  0.28971137458E+02  0.52838664629E+02  0.47000000000E+01 0. -1.
        -11    1    6    6    0    0 -0.24096376714E+01 -0.52243586731E+02 -0.86536832697E+02  0.10111291768E+03  0.00000000000E+00 0.  1.
         12    1    6    6    0    0 -0.18515422117E+02  0.22059035477E+02 -0.11345089556E+02  0.30953722868E+02  0.00000000000E+00 0. -1.
         -5    1    3    3    0  503  0.29092745555E+02 -0.55132052975E+02  0.59408733749E+02  0.86240470516E+02  0.47000000000E+01 0.  1.
         11    1    4    4    0    0 -0.41251462014E+01  0.16574110375E+02 -0.22907644377E+02  0.28574081557E+02  0.00000000000E+00 0. -1.
        -12    1    4    4    0    0 -0.38596150673E+02  0.41602935390E+02  0.63924292679E+02  0.85479718496E+02  0.00000000000E+00 0.  1.
</event>
<event>
12    1  0.8563264E-002  0.2232075E+03  0.7818608E-02  0.1131550E+00
         21   -1    0    0  503  502  0.00000000000E+00  0.00000000000E+00  0.25376706558E+03  0.25376706558E+03  0.00000000000E+00 0.  1.
         21   -1    0    0  501  503 -0.00000000000E+00 -0.00000000000E+00 -0.47392319733E+03  0.47392319733E+03  0.00000000000E+00 0.  1.
          6    2    1    2  501    0 -0.42878128268E+02  0.13598795984E+03 -0.38860745400E+03  0.44805219216E+03  0.17147522996E+03 0.  0.
         24    2    3    3    0    0 -0.51693146372E+02  0.11693515852E+03 -0.39569252762E+03  0.42540264359E+03  0.89715216524E+02 0.  0.
         -6    2    1    2    0  502  0.42878128268E+02 -0.13598795984E+03  0.16845132226E+03  0.27963807074E+03  0.17172752701E+03 0.  0.
        -24    2    5    5    0    0  0.41706233494E+01 -0.88819137601E+02  0.22743514716E+02  0.12160002499E+03  0.79768824186E+02 0.  0.
          5    1    3    3  501    0  0.88150181040E+01  0.19052801324E+02  0.70850736199E+01  0.22649548575E+02  0.47000000000E+01 0. -1.
        -13    1    4    4    0    0  0.17401486490E+02  0.71261436055E+02 -0.18786866666E+03  0.20168202675E+03  0.00000000000E+00 0.  1.
         14    1    4    4    0    0 -0.69094632861E+02  0.45673722464E+02 -0.20782386096E+03  0.22372061684E+03  0.00000000000E+00 0. -1.
         -5    1    5    5    0  502  0.38707504918E+02 -0.47168822241E+02  0.14570780754E+03  0.15803804576E+03  0.47000000000E+01 0.  1.
         13    1    6    6    0    0  0.24857442861E+01 -0.89558370568E+02  0.44312726418E+02  0.99952480640E+02  0.00000000000E+00 0. -1.
        -14    1    6    6    0    0  0.16848790633E+01  0.73923296621E+00 -0.21569211703E+02  0.21647544348E+02  0.00000000000E+00 0.  1.
</event>
<event>
12    1  0.8563264E-002  0.2350969E+03  0.7818608E-02  0.1123145E+00
         21   -1    0    0  501  502  0.00000000000E+00  0.00000000000E+00  0.93040745391E+02  0.93040745391E+02  0.00000000000E+00 0.  1.
         21   -1    0    0  502  503 -0.00000000000E+00 -0.00000000000E+00 -0.61450222740E+03  0.61450222740E+03  0.00000000000E+00 0. -1.
         -6    2    1    2    0  503 -0.15976156109E+03  0.12879967073E+02 -0.19509158488E+03  0.30531437063E+03  0.17165805681E+03 0.  0.
        -24    2    3    3    0    0 -0.87520446935E+02  0.68694241630E+02 -0.15082776644E+03  0.20374967478E+03  0.79913624507E+02 0.  0.
          6    2    1    2  501    0  0.15976156109E+03 -0.12879967073E+02 -0.32636989713E+03  0.40222860216E+03  0.17199095525E+03 0.  0.
         24    2    5    5    0    0  0.13785647334E+03  0.20363201457E+02 -0.14298347271E+03  0.21451176278E+03  0.78434403738E+02 0.  0.
          5    1    5    5  501    0  0.21905087751E+02 -0.33243168530E+02 -0.18338642442E+03  0.18771683937E+03  0.47000000000E+01 0. -1.
        -11    1    6    6    0    0  0.14503703785E+03  0.25226587333E+02 -0.11993469572E+03  0.18988537146E+03  0.00000000000E+00 0.  1.
         12    1    6    6    0    0 -0.71805645127E+01 -0.48633858754E+01 -0.23048776991E+02  0.24626391324E+02  0.00000000000E+00 0. -1.
         -5    1    3    3    0  503 -0.72241114157E+02 -0.55814274557E+02 -0.44263818444E+02  0.10156469585E+03  0.47000000000E+01 0.  1.
         13    1    4    4    0    0 -0.13724812535E+02  0.54359662352E+02 -0.94242010044E+02  0.10965810425E+03  0.00000000000E+00 0. -1.
        -14    1    4    4    0    0 -0.73795634400E+02  0.14334579278E+02 -0.56585756392E+02  0.94091570537E+02  0.00000000000E+00 0.  1.
</event>
<event>
12    1  0.8563264E-002  0.2088125E+03  0.7818608E-02  0.1143277E+00
         21   -1    0    0  503  502  0.00000000000E+00  0.00000000000E+00  0.59751481175E+02  0.59751481175E+02  0.00000000000E+00 0. -1.
         21   -1    0    0  501  503 -0.00000000000E+00 -0.00000000000E+00 -0.71649138765E+03  0.71649138765E+03  0.00000000000E+00 0. -1.
          6    2    1    2  501    0  0.16889953714E+02  0.10901671316E+03 -0.33191717030E+03  0.39213731963E+03  0.17729285157E+03 0.  0.
         24    2    3    3    0    0 -0.41525168640E+02  0.52040694728E+02 -0.27102109543E+03  0.29021080134E+03  0.79607169935E+02 0.  0.
         -6    2    1    2    0  502 -0.16889953714E+02 -0.10901671316E+03 -0.32482273618E+03  0.38410554920E+03  0.17279279124E+03 0.  0.
        -24    2    5    5    0    0  0.29056652954E+02  0.52335614354E+01 -0.13007254655E+03  0.15364092661E+03  0.76256066747E+02 0.  0.
          5    1    3    3  501    0  0.58415122354E+02  0.56976018432E+02 -0.60896074867E+02  0.10192651829E+03  0.47000000000E+01 0. -1.
        -13    1    4    4    0    0  0.17233797385E+02  0.17373461805E+02 -0.14364722058E+03  0.14571672837E+03  0.00000000000E+00 0.  1.
         14    1    4    4    0    0 -0.58758966025E+02  0.34667232923E+02 -0.12737387485E+03  0.14449407297E+03  0.00000000000E+00 0. -1.
         -5    1    5    5    0  502 -0.45946606668E+02 -0.11425027459E+03 -0.19475018963E+03  0.23046462260E+03  0.47000000000E+01 0.  1.
         13    1    6    6    0    0 -0.18747042796E+02  0.23361929563E+02 -0.57977047716E+02  0.65257715471E+02  0.00000000000E+00 0. -1.
        -14    1    6    6    0    0  0.47803695750E+02 -0.18128368128E+02 -0.72095498836E+02  0.88383211136E+02  0.00000000000E+00 0.  1.
</event>
<event>
12    1  0.8563264E-002  0.2393382E+03  0.7818608E-02  0.1121136E+00
         21   -1    0    0  501  502  0.00000000000E+00  0.00000000000E+00  0.15816305285E+03  0.15816305285E+03  0.00000000000E+00 0.  1.
         21   -1    0    0  502  503 -0.00000000000E+00 -0.00000000000E+00 -0.57118864024E+03  0.57118864024E+03  0.00000000000E+00 0.  1.
         -6    2    1    2    0  503 -0.33441859333E+02  0.15627701536E+03 -0.42985364109E+03  0.48942258932E+03  0.17093699042E+03 0.  0.
        -24    2    3    3    0    0  0.39546584928E+02  0.48489951007E+02 -0.21577994493E+03  0.23883328064E+03  0.81025573619E+02 0.  0.
          6    2    1    2  501    0  0.33441859333E+02 -0.15627701536E+03  0.16828053699E+02  0.23992910377E+03  0.17816264468E+03 0.  0.
         24    2    5    5    0    0  0.49578907104E+02 -0.45259063016E+02  0.58034811815E+02  0.12032359818E+03  0.81260556736E+02 0.  0.
          5    1    5    5  501    0 -0.16137047772E+02 -0.11101795234E+03 -0.41206758116E+02  0.11960550559E+03  0.47000000000E+01 0. -1.
        -11    1    6    6    0    0 -0.94815207864E+01 -0.40969649313E+02  0.40939165540E+02  0.58689238165E+02  0.00000000000E+00 0.  1.
         12    1    6    6    0    0  0.59060427891E+02 -0.42894137028E+01  0.17095646275E+02  0.61634360012E+02  0.00000000000E+00 0. -1.
         -5    1    3    3    0  503 -0.72988444260E+02  0.10778706435E+03 -0.21407369616E+03  0.25058930868E+03  0.47000000000E+01 0.  1.
         13    1    4    4    0    0 -0.23172752267E+02  0.53015522103E+01 -0.31691843581E+02  0.39616358401E+02  0.00000000000E+00 0. -1.
        -14    1    4    4    0    0  0.62719337194E+02  0.43188398797E+02 -0.18408810135E+03  0.19921692224E+03  0.00000000000E+00 0.  1.
</event>
<event>
12    1  0.8563264E-002  0.1975853E+03  0.7818608E-02  0.1152096E+00
         21   -1    0    0  503  502  0.00000000000E+00  0.00000000000E+00  0.20754816098E+03  0.20754816098E+03  0.00000000000E+00 0.  1.
         21   -1    0    0  501  503 -0.00000000000E+00 -0.00000000000E+00 -0.21446928870E+03  0.21446928870E+03  0.00000000000E+00 0. -1.
          6    2    1    2  501    0  0.55816612842E+02 -0.75836280169E+02 -0.79315310587E+02  0.21291043462E+03  0.17370463154E+03 0.  0.
         24    2    3    3    0    0  0.10108550265E+03 -0.33122966686E+02 -0.62865171067E+02  0.14836280396E+03  0.82122360531E+02 0.  0.
         -6    2    1    2    0  502 -0.55816612842E+02  0.75836280169E+02  0.72394182859E+02  0.20910701506E+03  0.17209936193E+03 0.  0.
        -24    2    5    5    0    0 -0.62210256008E+02  0.22472211338E+02  0.10436368524E+03  0.14639544039E+03  0.78515794179E+02 0.  0.
          5    1    3    3  501    0 -0.45268889806E+02 -0.42713313483E+02 -0.16450139520E+02  0.64547630655E+02  0.47000000000E+01 0. -1.
        -13    1    4    4    0    0  0.31575781559E+02 -0.90862292214E+01  0.19285671866E+02  0.38098906571E+02  0.00000000000E+00 0.  1.
         14    1    4    4    0    0  0.69509721089E+02 -0.24036737465E+02 -0.82150842933E+02  0.11026389739E+03  0.00000000000E+00 0. -1.
         -5    1    5    5    0  502  0.63936431654E+01  0.53364068832E+02 -0.31969502379E+02  0.62711574670E+02  0.47000000000E+01 0.  1.
         11    1    6    6    0    0 -0.54528842954E+02  0.28391766263E+02  0.24878153591E+02  0.66320506870E+02  0.00000000000E+00 0. -1.
        -12    1    6    6    0    0 -0.76814130544E+01 -0.59195549252E+01  0.79485531647E+02  0.80074933520E+02  0.00000000000E+00 0.  1.
</event>
<event>
12    1  0.8563264E-002  0.1782080E+03  0.7818608E-02  0.1170159E+00
         21   -1    0    0  503  502  0.00000000000E+00  0.00000000000E+00  0.12377632192E+03  0.12377632192E+03  0.00000000000E+00 0. -1.
         21   -1    0    0  501  503 -0.00000000000E+00 -0.00000000000E+00 -0.32789208650E+03  0.32789208650E+03  0.00000000000E+00 0. -1.
          6    2    1    2  501    0  0.23693074240E+02  0.33346580356E+02 -0.21051383031E+03  0.27581548086E+03  0.17344956195E+03 0.  0.
         24    2    3    3    0    0 -0.58873011624E+01  0.10813325788E+02 -0.20543424798E+02  0.82182861860E+02  0.78615533779E+02 0.  0.
         -6    2    1    2    0  502 -0.23693074240E+02 -0.33346580356E+02  0.63980657260E+01  0.17585292757E+03  0.17090921772E+03 0.  0.
        -24    2    5    5    0    0 -0.14874683604E+02  0.47857169929E+02 -0.67022375510E+01  0.92994487928E+02  0.78047997226E+02 0.  0.
          5    1    3    3  501    0  0.29580375403E+02  0.22533254568E+02 -0.18997040551E+03  0.19363261900E+03  0.47000000000E+01 0. -1.
        -11    1    4    4    0    0  0.26968007733E+02  0.10701187660E+02  0.15925141728E+02  0.33096812497E+02  0.00000000000E+00 0.  1.
         12    1    4    4    0    0 -0.32855308895E+02  0.11213812807E+00 -0.36468566526E+02  0.49086049362E+02  0.00000000000E+00 0. -1.
         -5    1    5    5    0  502 -0.88183906366E+01 -0.81203750285E+02  0.13100303277E+02  0.82858439641E+02  0.47000000000E+01 0.  1.
         13    1    6    6    0    0 -0.19056913156E+01  0.60076882599E+02  0.17809769165E+02  0.62690121709E+02  0.00000000000E+00 0. -1.
        -14    1    6    6    0    0 -0.12968992288E+02 -0.12219712670E+02 -0.24512006716E+02  0.30304366219E+02  0.00000000000E+00 0.  1.
</event>
<event>
12    1  0.8563264E-002  0.1984212E+03  0.7818608E-02  0.1152163E+00
         21   -1    0    0  503  502  0.00000000000E+00  0.00000000000E+00  0.17928467819E+04  0.17928467819E+04  0.00000000000E+00 0. -1.
         21   -1    0    0  501  503 -0.00000000000E+00 -0.00000000000E+00 -0.27636658849E+02  0.27636658849E+02  0.00000000000E+00 0. -1.
          6    2    1    2  501    0 -0.39044019965E+02  0.89279163247E+02  0.44173128834E+03  0.48221320812E+03  0.16705640515E+03 0.  0.
         24    2    3    3    0    0 -0.49860432473E+02  0.11024368388E+03  0.43322035274E+03  0.45669788078E+03  0.79078111487E+02 0.  0.
         -6    2    1    2    0  502  0.39044019965E+02 -0.89279163247E+02  0.13234788348E+04  0.13382702327E+04  0.17284613136E+03 0.  0.
        -24    2    5    5    0    0  0.57525070556E+02 -0.83829176694E+02  0.13041934609E+04  0.13106067689E+04  0.80206324855E+02 0.  0.
          5    1    3    3  501    0  0.10816412509E+02 -0.20964520629E+02  0.85109356018E+01  0.25515327346E+02  0.47000000000E+01 0. -1.
        -11    1    4    4    0    0  0.63591295929E+01  0.16399665681E+02  0.18000240542E+03  0.18085976203E+03  0.00000000000E+00 0.  1.
         12    1    4    4    0    0 -0.56219562066E+02  0.93844018196E+02  0.25321794732E+03  0.27583811875E+03  0.00000000000E+00 0. -1.
         -5    1    5    5    0  502 -0.18481050591E+02 -0.54499865537E+01  0.19285373832E+02  0.27663463779E+02  0.47000000000E+01 0.  1.
         11    1    6    6    0    0  0.23706544149E+02 -0.91579444331E+02  0.98585647829E+03  0.99038466802E+03  0.00000000000E+00 0. -1.
        -12    1    6    6    0    0  0.33818526407E+02  0.77502676376E+01  0.31833698263E+03  0.32022210087E+03  0.00000000000E+00 0.  1.
</event>
<event>
12    1  0.8563264E-002  0.2075703E+03  0.7818608E-02  0.1145519E+00
         21   -1    0    0  503  502  0.00000000000E+00  0.00000000000E+00  0.29790939909E+03  0.29790939909E+03  0.00000000000E+00 0.  1.
         21   -1    0    0  501  503 -0.00000000000E+00 -0.00000000000E+00 -0.14029499400E+03  0.14029499400E+03  0.00000000000E+00 0.  1.
          6    2    1    2  501    0 -0.50262659429E+02  0.81967967556E+02  0.52053625299E+02  0.21399763867E+03  0.18395740488E+03 0.  0.
         24    2    3    3    0    0 -0.97580615429E+02  0.39865578877E+02  0.68103366050E+02  0.14848974395E+03  0.79371876019E+02 0.  0.
         -6    2    1    2    0  502  0.50262659429E+02 -0.81967967556E+02  0.10556077980E+03  0.22420675442E+03  0.17285979249E+03 0.  0.
        -24    2    5    5    0    0  0.90002084158E+02 -0.81257176157E+02  0.11249459074E+03  0.18358785689E+03  0.79664072353E+02 0.  0.
          5    1    3    3  501    0  0.47317956000E+02  0.42102388679E+02 -0.16049740751E+02  0.65507894720E+02  0.47000000000E+01 0. -1.
        -11    1    4    4    0    0 -0.42569927558E+02  0.56089797638E+02  0.18860640238E+02  0.72897104754E+02  0.00000000000E+00 0.  1.
         12    1    4    4    0    0 -0.55010687871E+02 -0.16224218761E+02  0.49242725812E+02  0.75592639191E+02  0.00000000000E+00 0. -1.
         -5    1    5    5    0  502 -0.39739424729E+02 -0.71079139889E+00 -0.69338109396E+01  0.40618897528E+02  0.47000000000E+01 0.  1.
         13    1    6    6    0    0  0.39592738463E+02 -0.26488436733E+01  0.71138057282E+02  0.81456887404E+02  0.00000000000E+00 0. -1.
        -14    1    6    6    0    0  0.50409345695E+02 -0.78608332484E+02  0.41356533454E+02  0.10213096949E+03  0.00000000000E+00 0.  1.
</event>
<event>
12    1  0.8563264E-002  0.2187950E+03  0.7818608E-02  0.1134844E+00
         21   -1    0    0  501  502  0.00000000000E+00  0.00000000000E+00  0.48804170811E+03  0.48804170811E+03  0.00000000000E+00 0.  1.
         21   -1    0    0  502  503 -0.00000000000E+00 -0.00000000000E+00 -0.22710569070E+03  0.22710569070E+03  0.00000000000E+00 0.  1.
         -6    2    1    2    0  503 -0.12998817672E+03  0.39095794503E+02  0.40008490792E+03  0.45585285583E+03  0.17119721197E+03 0.  0.
        -24    2    3    3    0    0 -0.49159409594E+01  0.49748308871E+02  0.17079306157E+03  0.19440806046E+03  0.78263423010E+02 0.  0.
          6    2    1    2  501    0  0.12998817672E+03 -0.39095794503E+02 -0.13914889050E+03  0.25929454298E+03  0.17159789934E+03 0.  0.
         24    2    5    5    0    0  0.15058572689E+03 -0.49395664960E+02 -0.79745132119E+02  0.19540993674E+03  0.81913151698E+02 0.  0.
          5    1    5    5  501    0 -0.20597550169E+02  0.10299870457E+02 -0.59403758386E+02  0.63884606242E+02  0.47000000000E+01 0. -1.
        -11    1    6    6    0    0  0.99275917819E+02  0.72244799692E+01 -0.60968395547E+02  0.11672637331E+03  0.00000000000E+00 0.  1.
         12    1    6    6    0    0  0.51309809070E+02 -0.56620144930E+02 -0.18776736572E+02  0.78683563436E+02  0.00000000000E+00 0. -1.
         -5    1    3    3    0  503 -0.12507223576E+03 -0.10652514368E+02  0.22929184635E+03  0.26144479537E+03  0.47000000000E+01 0.  1.
         11    1    4    4    0    0 -0.16347339125E+02  0.57858397855E+02  0.68432949071E+02  0.91092800031E+02  0.00000000000E+00 0. -1.
        -12    1    4    4    0    0  0.11431398166E+02 -0.81100889841E+01  0.10236011250E+03  0.10331526043E+03  0.00000000000E+00 0.  1.
</event>
<event>
12    1  0.8563264E-002  0.1790005E+03  0.7818608E-02  0.1168912E+00
         21   -1    0    0  503  502  0.00000000000E+00  0.00000000000E+00  0.42798507910E+03  0.42798507910E+03  0.00000000000E+00 0.  1.
         21   -1    0    0  501  503 -0.00000000000E+00 -0.00000000000E+00 -0.19122557989E+03  0.19122557989E+03  0.00000000000E+00 0.  1.
          6    2    1    2  501    0  0.54420424902E+02 -0.12953114141E+00 -0.12330339687E+03  0.21735894490E+03  0.17052736972E+03 0.  0.
         24    2    3    3    0    0 -0.18618089040E+02 -0.41049742016E+02 -0.86623756936E+02  0.12583531865E+03  0.79367106504E+02 0.  0.
         -6    2    1    2    0  502 -0.54420424902E+02  0.12953114141E+00  0.36006289608E+03  0.40185171409E+03  0.16993502157E+03 0.  0.
        -24    2    5    5    0    0  0.35324570029E+02 -0.11842364546E+01  0.15891522940E+03  0.18153747508E+03  0.80327934478E+02 0.  0.
          5    1    3    3  501    0  0.73038513942E+02  0.40920210874E+02 -0.36679639935E+02  0.91523626254E+02  0.47000000000E+01 0. -1.
        -11    1    4    4    0    0 -0.41945736803E+02 -0.60764495087E+01 -0.67377835929E+02  0.79599879705E+02  0.00000000000E+00 0.  1.
         12    1    4    4    0    0  0.23327647763E+02 -0.34973292507E+02 -0.19245921007E+02  0.46235438944E+02  0.00000000000E+00 0. -1.
         -5    1    5    5    0  502 -0.89744994931E+02  0.13137675960E+01  0.20114766668E+03  0.22031423901E+03  0.47000000000E+01 0.  1.
         13    1    6    6    0    0 -0.43877332832E+01 -0.35183097390E+02  0.66411319276E+02  0.75283237665E+02  0.00000000000E+00 0. -1.
        -14    1    6    6    0    0  0.39712303312E+02  0.33998860936E+02  0.92503910125E+02  0.10625423741E+03  0.00000000000E+00 0.  1.
</event>
<event>
12    1  0.8563264E-002  0.2208701E+03  0.7818608E-02  0.1133262E+00
         21   -1    0    0  503  502  0.00000000000E+00  0.00000000000E+00  0.27974897353E+03  0.27974897353E+03  0.00000000000E+00 0.  1.
         21   -1    0    0  501  503 -0.00000000000E+00 -0.00000000000E+00 -0.18434702566E+03  0.18434702566E+03  0.00000000000E+00 0.  1.
          6    2    1    2  501    0  0.13296215887E+03 -0.39486497554E+02 -0.65285054603E+01  0.22096652064E+03  0.17188793640E+03 0.  0.
         24    2    3    3    0    0  0.15671516335E+03  0.20498514767E+01 -0.75049825318E+01  0.17287788352E+03  0.72571299653E+02 0.  0.
         -6    2    1    2    0  502 -0.13296215887E+03  0.39486497554E+02  0.10193045333E+03  0.24312947854E+03  0.17170907617E+03 0.  0.
        -24    2    5    5    0    0 -0.11489515680E+03 -0.18817370524E+02  0.23789935425E+02  0.14386322982E+03  0.81090550472E+02 0.  0.
          5    1    3    3  501    0 -0.23753004477E+02 -0.41536349031E+02  0.97647707153E+00  0.48088637119E+02  0.47000000000E+01 0. -1.
        -13    1    4    4    0    0  0.71941794291E+02  0.35638482990E+02 -0.13854894565E+02  0.81471966584E+02  0.00000000000E+00 0.  1.
         14    1    4    4    0    0  0.84773369059E+02 -0.33588631513E+02  0.63499120333E+01  0.91405916939E+02  0.00000000000E+00 0. -1.
         -5    1    5    5    0  502 -0.18067002070E+02  0.58303868078E+02  0.78140517907E+02  0.99266248722E+02  0.47000000000E+01 0.  1.
         11    1    6    6    0    0 -0.28290716531E+02 -0.15769185167E+02  0.44236122671E+02  0.54825782180E+02  0.00000000000E+00 0. -1.
        -12    1    6    6    0    0 -0.86604440273E+02 -0.30481853565E+01 -0.20446187246E+02  0.89037447638E+02  0.00000000000E+00 0.  1.
</event>
<event>
12    1  0.8563264E-002  0.1980755E+03  0.7818608E-02  0.1151400E+00
         21   -1    0    0  501  502  0.00000000000E+00  0.00000000000E+00  0.88717086131E+02  0.88717086131E+02  0.00000000000E+00 0.  1.
         21   -1    0    0  502  503 -0.00000000000E+00 -0.00000000000E+00 -0.45288355695E+03  0.45288355695E+03  0.00000000000E+00 0. -1.
         -6    2    1    2    0  503 -0.50796560635E+02 -0.86178728308E+02 -0.22421769462E+03  0.29917801594E+03  0.17095861153E+03 0.  0.
        -24    2    3    3    0    0 -0.85047547186E+02 -0.29324306675E+02 -0.18984664016E+03  0.22428466027E+03  0.78542102131E+02 0.  0.
          6    2    1    2  501    0  0.50796560635E+02  0.86178728308E+02 -0.13994877620E+03  0.24242262714E+03  0.17080985453E+03 0.  0.
         24    2    5    5    0    0 -0.24592605970E+02  0.20131146875E+02 -0.24331453203E+02  0.89336818422E+02  0.79868568085E+02 0.  0.
          5    1    5    5  501    0  0.75389166604E+02  0.66047581433E+02 -0.11561732300E+03  0.15308580872E+03  0.47000000000E+01 0. -1.
        -11    1    6    6    0    0 -0.15701302221E+02  0.28643979788E+01 -0.52640058387E+02  0.55006467022E+02  0.00000000000E+00 0.  1.
         12    1    6    6    0    0 -0.88913037482E+01  0.17266748896E+02  0.28308605184E+02  0.34330351400E+02  0.00000000000E+00 0. -1.
         -5    1    3    3    0  503  0.34250986551E+02 -0.56854421633E+02 -0.34371054458E+02  0.74893355670E+02  0.47000000000E+01 0.  1.
         13    1    4    4    0    0 -0.26612157324E+02 -0.50254923459E+02 -0.10090086113E+03  0.11582205328E+03  0.00000000000E+00 0. -1.
        -14    1    4    4    0    0 -0.58435389862E+02  0.20930616784E+02 -0.88945779031E+02  0.10846260699E+03  0.00000000000E+00 0.  1.
</event>
<event>
12    1  0.8563264E-002  0.2049273E+03  0.7818608E-02  0.1145710E+00
         21   -1    0    0  503  502  0.00000000000E+00  0.00000000000E+00  0.62316641811E+03  0.62316641811E+03  0.00000000000E+00 0. -1.
         21   -1    0    0  501  503 -0.00000000000E+00 -0.00000000000E+00 -0.15626098101E+03  0.15626098101E+03  0.00000000000E+00 0. -1.
          6    2    1    2  501    0 -0.10703262073E+03 -0.33727825618E+02 -0.60538879892E+02  0.21368239214E+03  0.17146912436E+03 0.  0.
         24    2    3    3    0    0  0.56580827464E+01  0.15893884218E+02 -0.27327820431E+02  0.86063532994E+02  0.79846681121E+02 0.  0.
         -6    2    1    2    0  502  0.10703262073E+03  0.33727825618E+02  0.52744431699E+03  0.56574500698E+03  0.17110335262E+03 0.  0.
        -24    2    5    5    0    0  0.24631363435E+02 -0.78294946800E+01  0.39327812891E+03  0.40283511134E+03  0.83309274367E+02 0.  0.
          5    1    3    3  501    0 -0.11269070348E+03 -0.49621709836E+02 -0.33211059461E+02  0.12761885914E+03  0.47000000000E+01 0. -1.
        -13    1    4    4    0    0 -0.10683299077E+02  0.42652035353E+02  0.74920513270E+00  0.43976019684E+02  0.00000000000E+00 0.  1.
         14    1    4    4    0    0  0.16341381823E+02 -0.26758151136E+02 -0.28077025564E+02  0.42087513310E+02  0.00000000000E+00 0. -1.
         -5    1    5    5    0  502  0.82401257299E+02  0.41557320298E+02  0.13416618809E+03  0.16290989565E+03  0.47000000000E+01 0.  1.
         13    1    6    6    0    0  0.47656369816E+02 -0.13792804193E+02  0.14168041303E+03  0.15011565698E+03  0.00000000000E+00 0. -1.
        -14    1    6    6    0    0 -0.23025006381E+02  0.59633095134E+01  0.25159771587E+03  0.25271945436E+03  0.00000000000E+00 0.  1.
</event>
<event>
12    1  0.8563264E-002  0.1756226E+03  0.7818608E-02  0.1172681E+00
         21   -1    0    0  501  502  0.00000000000E+00  0.00000000000E+00  0.32720187761E+03  0.32720187761E+03  0.00000000000E+00 0.  1.
         21   -1    0    0  502  503 -0.00000000000E+00 -0.00000000000E+00 -0.13868111569E+03  0.13868111569E+03  0.00000000000E+00 0.  1.
         -6    2    1    2    0  503  0.24160708608E+02  0.31104515377E+02 -0.38950663266E+02  0.17989012148E+03  0.17114926503E+03 0.  0.
        -24    2    3    3    0    0 -0.49259428830E+02  0.12694215739E+01 -0.35227394518E+02  0.10041306735E+03  0.80085654207E+02 0.  0.
          6    2    1    2  501    0 -0.24160708608E+02 -0.31104515377E+02  0.22747142519E+03  0.28599287182E+03  0.16881185604E+03 0.  0.
         24    2    5    5    0    0 -0.32749406156E+02 -0.47722744214E+02  0.24220421938E+03  0.26172197402E+03  0.80532750367E+02 0.  0.
          5    1    5    5  501    0  0.85886975482E+01  0.16618228837E+02 -0.14732794194E+02  0.24270897800E+02  0.47000000000E+01 0. -1.
        -13    1    6    6    0    0 -0.76261783700E+01 -0.36777817076E+02  0.30869179769E+02  0.48617617023E+02  0.00000000000E+00 0.  1.
         14    1    6    6    0    0 -0.25123227786E+02 -0.10944927138E+02  0.21133503961E+03  0.21310435700E+03  0.00000000000E+00 0. -1.
         -5    1    3    3    0  503  0.73420137438E+02  0.29835093803E+02 -0.37232687474E+01  0.79477054134E+02  0.47000000000E+01 0.  1.
         11    1    4    4    0    0  0.89933166162E+01 -0.20608821524E+02 -0.30657808197E+02  0.38019790528E+02  0.00000000000E+00 0. -1.
        -12    1    4    4    0    0 -0.58252745446E+02  0.21878243098E+02 -0.45695863214E+01  0.62393276819E+02  0.00000000000E+00 0.  1.
</event>
<event>
12    1  0.8563264E-002  0.1911943E+03  0.7818608E-02  0.1157571E+00
         21   -1    0    0  503  502  0.00000000000E+00  0.00000000000E+00  0.27386015055E+03  0.27386015055E+03  0.00000000000E+00 0. -1.
         21   -1    0    0  501  503 -0.00000000000E+00 -0.00000000000E+00 -0.13332336480E+03  0.13332336480E+03  0.00000000000E+00 0. -1.
          6    2    1    2  501    0 -0.72831091568E+02 -0.28671287005E+02  0.81715788963E+02  0.20792480117E+03  0.17443864876E+03 0.  0.
         24    2    3    3    0    0  0.24658622457E+01 -0.63097880584E+02  0.19432467848E+02  0.10421306757E+03  0.80593545859E+02 0.  0.
         -6    2    1    2    0  502  0.72831091568E+02  0.28671287005E+02  0.58820996788E+02  0.19925871417E+03  0.17354456175E+03 0.  0.
        -24    2    5    5    0    0  0.55992661377E+02  0.29172027028E+01  0.10485640403E+03  0.14368754980E+03  0.80669438475E+02 0.  0.
          5    1    3    3  501    0 -0.75296953814E+02  0.34426593579E+02  0.62283321114E+02  0.10371173361E+03  0.47000000000E+01 0. -1.
        -11    1    4    4    0    0  0.13659230800E+02 -0.35253554400E+02  0.49129874538E+02  0.61993001670E+02  0.00000000000E+00 0.  1.
         12    1    4    4    0    0 -0.11193368554E+02 -0.27844326184E+02 -0.29697406690E+02  0.42220065897E+02  0.00000000000E+00 0. -1.
         -5    1    5    5    0  502  0.16838430191E+02  0.25754084302E+02 -0.46035407238E+02  0.55571164367E+02  0.47000000000E+01 0.  1.
         13    1    6    6    0    0  0.62977630509E+02 -0.20914833748E+02  0.48785040725E+02  0.82362566824E+02  0.00000000000E+00 0. -1.
        -14    1    6    6    0    0 -0.69849691322E+01  0.23832036451E+02  0.56071363301E+02  0.61324982981E+02  0.00000000000E+00 0.  1.
</event>
<event>
12    1  0.8563264E-002  0.1729256E+03  0.7818608E-02  0.1179564E+00
         21   -1    0    0  503  502  0.00000000000E+00  0.00000000000E+00  0.58381808004E+03  0.58381808004E+03  0.00000000000E+00 0. -1.
         21   -1    0    0  501  503 -0.00000000000E+00 -0.00000000000E+00 -0.99550513005E+02  0.99550513005E+02  0.00000000000E+00 0. -1.
          6    2    1    2  501    0 -0.64526530089E+01 -0.54809981500E+01 -0.19362003572E+01  0.17293640224E+03  0.17271818745E+03 0.  0.
         24    2    3    3    0    0  0.27185426664E+02  0.42704067302E+02  0.34449055904E+02  0.10365943774E+03  0.83641238591E+02 0.  0.
         -6    2    1    2    0  502  0.64526530089E+01  0.54809981500E+01  0.48620376739E+03  0.51043219081E+03  0.15516197960E+03 0.  0.
        -24    2    5    5    0    0 -0.19084550599E+02  0.44694327421E+02  0.41530817102E+03  0.42535511078E+03  0.78001861370E+02 0.  0.
          5    1    3    3  501    0 -0.33638079672E+02 -0.48185065452E+02 -0.36385256262E+02  0.69276964497E+02  0.47000000000E+01 0. -1.
        -13    1    4    4    0    0  0.35486561968E+02 -0.26398417696E+01  0.43994239159E+02  0.56584078362E+02  0.00000000000E+00 0.  1.
         14    1    4    4    0    0 -0.83011353048E+01  0.45343909071E+02 -0.95451832552E+01  0.47075359378E+02  0.00000000000E+00 0. -1.
         -5    1    5    5    0  502  0.25537203608E+02 -0.39213329271E+02  0.70895596372E+02  0.85077080025E+02  0.47000000000E+01 0.  1.
         13    1    6    6    0    0 -0.60458248245E+01  0.25691647261E+02  0.39088601581E+03  0.39177607137E+03  0.00000000000E+00 0. -1.
        -14    1    6    6    0    0 -0.13038725775E+02  0.19002680160E+02  0.24422155203E+02  0.33579039412E+02  0.00000000000E+00 0.  1.
</event>
<event>
12    1  0.8563264E-002  0.1805205E+03  0.7818608E-02  0.1167308E+00
         21   -1    0    0  503  502  0.00000000000E+00  0.00000000000E+00  0.75804666371E+03  0.75804666371E+03  0.00000000000E+00 0. -1.
         21   -1    0    0  501  503 -0.00000000000E+00 -0.00000000000E+00 -0.16856114529E+03  0.16856114529E+03  0.00000000000E+00 0.  1.
          6    2    1    2  501    0  0.48864168031E+02  0.29778791881E+02 -0.10514670603E+03  0.20891023804E+03  0.17121090621E+03 0.  0.
         24    2    3    3    0    0 -0.18847973842E+02  0.26983795655E+02 -0.11155264364E+03  0.14067628610E+03  0.79135667205E+02 0.  0.
         -6    2    1    2    0  502 -0.48864168031E+02 -0.29778791881E+02  0.69463222445E+03  0.71769757096E+03  0.17117649592E+03 0.  0.
        -24    2    5    5    0    0  0.17491632939E+02  0.15265705583E+02  0.49788075862E+03  0.50517621114E+03  0.82333198084E+02 0.  0.
          5    1    3    3  501    0  0.67712141872E+02  0.27949962264E+01  0.64059376016E+01  0.68233951940E+02  0.47000000000E+01 0. -1.
        -13    1    4    4    0    0  0.47941043515E+01  0.23026615904E+02 -0.11416566741E+03  0.11656332224E+03  0.00000000000E+00 0.  1.
         14    1    4    4    0    0 -0.23642078193E+02  0.39571797504E+01  0.26130237776E+01  0.24112963860E+02  0.00000000000E+00 0. -1.
         -5    1    5    5    0  502 -0.66355800969E+02 -0.45044497464E+02  0.19675146583E+03  0.21252135982E+03  0.47000000000E+01 0.  1.
         13    1    6    6    0    0  0.28477563110E+02  0.27203901086E+02  0.10797606711E+03  0.11493413289E+03  0.00000000000E+00 0. -1.
        -14    1    6    6    0    0 -0.10985930171E+02 -0.11938195503E+02  0.38990469151E+03  0.39024207825E+03  0.00000000000E+00 0.  1.
</event>
<event>
12    1  0.8563264E-002  0.2681705E+03  0.7818608E-02  0.1102369E+00
         21   -1    0    0  501  502  0.00000000000E+00  0.00000000000E+00  0.74668569193E+02  0.74668569193E+02  0.00000000000E+00 0.  1.
         21   -1    0    0  502  503 -0.00000000000E+00 -0.00000000000E+00 -0.99832751460E+03  0.99832751460E+03  0.00000000000E+00 0. -1.
         -6    2    1    2    0  503 -0.16251161738E+03 -0.12532575396E+03 -0.35998404187E+03  0.44889190023E+03  0.17262345523E+03 0.  0.
        -24    2    3    3    0    0 -0.10236519168E+03 -0.64297159232E+01 -0.13303327553E+03  0.18567601786E+03  0.79105989003E+02 0.  0.
          6    2    1    2  501    0  0.16251161738E+03  0.12532575396E+03 -0.56367490353E+03  0.62410418356E+03  0.17222097630E+03 0.  0.
         24    2    5    5    0    0  0.84561360305E+02  0.14518337354E+03 -0.41913707322E+03  0.45862354413E+03  0.80192477718E+02 0.  0.
          5    1    5    5  501    0  0.77950257076E+02 -0.19857619573E+02 -0.14453783032E+03  0.16548063943E+03  0.47000000000E+01 0. -1.
        -13    1    6    6    0    0  0.85521341429E+02  0.10119075574E+03 -0.23979275511E+03  0.27395991365E+03  0.00000000000E+00 0.  1.
         14    1    6    6    0    0 -0.95998112443E+00  0.43992617791E+02 -0.17934431811E+03  0.18466363048E+03  0.00000000000E+00 0. -1.
         -5    1    3    3    0  503 -0.60146425701E+02 -0.11889603804E+03 -0.22695076634E+03  0.26321588237E+03  0.47000000000E+01 0.  1.
         13    1    4    4    0    0 -0.68701313308E+02 -0.14054009591E+02 -0.28679761793E+02  0.75762222594E+02  0.00000000000E+00 0. -1.
        -14    1    4    4    0    0 -0.33663878372E+02  0.76242936681E+01 -0.10435351374E+03  0.10991379527E+03  0.00000000000E+00 0.  1.
</event>
<event>
12    1  0.8563264E-002  0.1831644E+03  0.7818608E-02  0.1164926E+00
         21   -1    0    0  501  502  0.00000000000E+00  0.00000000000E+00  0.33519114460E+02  0.33519114460E+02  0.00000000000E+00 0.  1.
         21   -1    0    0  502  503 -0.00000000000E+00 -0.00000000000E+00 -0.10126765126E+04  0.10126765126E+04  0.00000000000E+00 0.  1.
         -6    2    1    2    0  503  0.60849444712E+02 -0.73596963124E+01 -0.42455816882E+03  0.46213270532E+03  0.17193073768E+03 0.  0.
        -24    2    3    3    0    0  0.46779039619E+02 -0.59477375659E+02 -0.16696640268E+03  0.19890307784E+03  0.77193380459E+02 0.  0.
          6    2    1    2  501    0 -0.60849444712E+02  0.73596963124E+01 -0.55459922935E+03  0.58406292178E+03  0.17260466779E+03 0.  0.
         24    2    5    5    0    0 -0.10700586191E+03 -0.71576868653E+01 -0.42797082596E+03  0.44842365088E+03  0.80145217157E+02 0.  0.
          5    1    5    5  501    0  0.46156417198E+02  0.14517383178E+02 -0.12662840339E+03  0.13563927089E+03  0.47000000000E+01 0. -1.
        -13    1    6    6    0    0 -0.90560887422E+02 -0.37904636679E+02 -0.29241632459E+03  0.30845638703E+03  0.00000000000E+00 0.  1.
         14    1    6    6    0    0 -0.16444974488E+02  0.30746949814E+02 -0.13555450137E+03  0.13996726385E+03  0.00000000000E+00 0. -1.
         -5    1    3    3    0  503  0.14070405093E+02  0.52117679347E+02 -0.25759176614E+03  0.26322962748E+03  0.47000000000E+01 0.  1.
         13    1    4    4    0    0 -0.17774026903E+02 -0.34262856719E+02 -0.65525174672E+02  0.76048720559E+02  0.00000000000E+00 0. -1.
        -14    1    4    4    0    0  0.64553066522E+02 -0.25214518941E+02 -0.10144122801E+03  0.12285435728E+03  0.00000000000E+00 0.  1.
</event>
<event>
12    1  0.8563264E-002  0.2645648E+03  0.7818608E-02  0.1104464E+00
         21   -1    0    0  501  502  0.00000000000E+00  0.00000000000E+00  0.13457582752E+03  0.13457582752E+03  0.00000000000E+00 0. -1.
         21   -1    0    0  502  503 -0.00000000000E+00 -0.00000000000E+00 -0.11424034190E+04  0.11424034190E+04  0.00000000000E+00 0.  1.
         -6    2    1    2    0  503  0.15589586372E+03 -0.12567323837E+03 -0.97522243492E+03  0.10104128620E+04  0.17256323772E+03 0.  0.
        -24    2    3    3    0    0  0.13364283944E+02 -0.18525551429E+02 -0.38380110841E+03  0.39267735754E+03  0.79814886892E+02 0.  0.
          6    2    1    2  501    0 -0.15589586372E+03  0.12567323837E+03 -0.32605156559E+02  0.26656638449E+03  0.17290823560E+03 0.  0.
         24    2    5    5    0    0 -0.79669965603E+02  0.26924897187E+02 -0.71664715404E+02  0.13576362623E+03  0.78890286261E+02 0.  0.
          5    1    5    5  501    0 -0.76225898115E+02  0.98748341179E+02  0.39059558845E+02  0.13080275825E+03  0.47000000000E+01 0. -1.
        -13    1    6    6    0    0 -0.10105323124E+01 -0.20784599655E+02 -0.31274858121E+01  0.21042859261E+02  0.00000000000E+00 0.  1.
         14    1    6    6    0    0 -0.78659433291E+02  0.47709496843E+02 -0.68537229592E+02  0.11472076697E+03  0.00000000000E+00 0. -1.
         -5    1    3    3    0  503  0.14253157977E+03 -0.10714768694E+03 -0.59142132650E+03  0.61773550448E+03  0.47000000000E+01 0.  1.
         13    1    4    4    0    0  0.39080472492E+02  0.11261206156E+02 -0.14256852103E+03  0.14825613405E+03  0.00000000000E+00 0. -1.
        -14    1    4    4    0    0 -0.25716188548E+02 -0.29786757585E+02 -0.24123258738E+03  0.24442122349E+03  0.00000000000E+00 0.  1.
</event>
<event>
12    1  0.8563264E-002  0.2058910E+03  0.7818608E-02  0.1144903E+00
         21   -1    0    0  503  502  0.00000000000E+00  0.00000000000E+00  0.39834497411E+03  0.39834497411E+03  0.00000000000E+00 0. -1.
         21   -1    0    0  501  503 -0.00000000000E+00 -0.00000000000E+00 -0.15475952883E+03  0.15475952883E+03  0.00000000000E+00 0. -1.
          6    2    1    2  501    0 -0.11205092262E+03 -0.24477128775E+02 -0.32979161947E+02  0.20831605536E+03  0.17074371058E+03 0.  0.
         24    2    3    3    0    0 -0.26813132055E+02 -0.60921685703E+02 -0.47518742814E+02  0.11436300281E+03  0.79940413150E+02 0.  0.
         -6    2    1    2    0  502  0.11205092262E+03  0.24477128775E+02  0.27656460723E+03  0.34478844758E+03  0.17098699519E+03 0.  0.
        -24    2    5    5    0    0  0.12314574320E+03  0.42961460413E+02  0.14399247744E+03  0.21039266954E+03  0.80750731811E+02 0.  0.
          5    1    3    3  501    0 -0.85237790565E+02  0.36444556929E+02  0.14539580867E+02  0.93953052541E+02  0.47000000000E+01 0. -1.
        -11    1    4    4    0    0 -0.62119807962E+01  0.99984356683E+01 -0.38143683579E+02  0.39918642489E+02  0.00000000000E+00 0.  1.
         12    1    4    4    0    0 -0.20601151259E+02 -0.70920121372E+02 -0.93750592348E+01  0.74444360325E+02  0.00000000000E+00 0. -1.
         -5    1    5    5    0  502 -0.11094820577E+02 -0.18484331638E+02  0.13257212979E+03  0.13439577805E+03  0.47000000000E+01 0.  1.
         11    1    6    6    0    0  0.45502442333E+02  0.51612100447E+02  0.97979040883E+02  0.11972540926E+03  0.00000000000E+00 0. -1.
        -12    1    6    6    0    0  0.77643300864E+02 -0.86506400346E+01  0.46013436554E+02  0.90667260274E+02  0.00000000000E+00 0.  1.
</event>
<event>
12    1  0.8563264E-002  0.1831024E+03  0.7818608E-02  0.1168945E+00
         21   -1    0    0  503  502  0.00000000000E+00  0.00000000000E+00  0.25295937606E+03  0.25295937606E+03  0.00000000000E+00 0.  1.
         21   -1    0    0  501  503 -0.00000000000E+00 -0.00000000000E+00 -0.16020515524E+03  0.16020515524E+03  0.00000000000E+00 0.  1.
          6    2    1    2  501    0  0.28974021200E+02 -0.59855602847E+02 -0.54274013834E+02  0.19097681644E+03  0.17059979116E+03 0.  0.
         24    2    3    3    0    0  0.54088908372E+02 -0.62414357660E+02 -0.86413130733E+02  0.14983902823E+03  0.90351221175E+02 0.  0.
         -6    2    1    2    0  502 -0.28974021200E+02  0.59855602847E+02  0.14702823466E+03  0.22218771486E+03  0.15273471038E+03 0.  0.
        -24    2    5    5    0    0 -0.26041203031E+02 -0.88477260495E+01  0.12277800469E+03  0.14911985272E+03  0.80036651169E+02 0.  0.
          5    1    3    3  501    0 -0.25114887172E+02  0.25587548128E+01  0.32139116899E+02  0.41137788211E+02  0.47000000000E+01 0. -1.
        -11    1    4    4    0    0  0.13962413808E+02 -0.72397343901E+02 -0.29325331637E+02  0.79349224816E+02  0.00000000000E+00 0.  1.
         12    1    4    4    0    0  0.40126494563E+02  0.99829862408E+01 -0.57087799096E+02  0.70489803418E+02  0.00000000000E+00 0. -1.
         -5    1    5    5    0  502 -0.29328181689E+01  0.68703328897E+02  0.24250229970E+02  0.73067862138E+02  0.47000000000E+01 0.  1.
         11    1    6    6    0    0 -0.49398644461E+02 -0.25693595882E+02  0.85071703995E+02  0.10167389913E+03  0.00000000000E+00 0. -1.
        -12    1    6    6    0    0  0.23357441430E+02  0.16845869833E+02  0.37706300691E+02  0.47445953593E+02  0.00000000000E+00 0.  1.
</event>
<event>
12    1  0.8563264E-002  0.1763163E+03  0.7818608E-02  0.1171545E+00
         21   -1    0    0  501  502  0.00000000000E+00  0.00000000000E+00  0.70735902208E+03  0.70735902208E+03  0.00000000000E+00 0. -1.
         21   -1    0    0  502  503 -0.00000000000E+00 -0.00000000000E+00 -0.67183127696E+02  0.67183127696E+02  0.00000000000E+00 0. -1.
         -6    2    1    2    0  503  0.74991081396E+01  0.39064120092E+02  0.92018167757E+02  0.19888382815E+03  0.17177075362E+03 0.  0.
        -24    2    3    3    0    0  0.63394212757E+02  0.29709777433E+00  0.81546078742E+02  0.12989905165E+03  0.78772369421E+02 0.  0.
          6    2    1    2  501    0 -0.74991081396E+01 -0.39064120092E+02  0.54815772663E+03  0.57565832163E+03  0.17124067244E+03 0.  0.
         24    2    5    5    0    0 -0.25664485561E+02  0.40654696846E+02  0.33520671254E+03  0.34750202627E+03  0.77991332435E+02 0.  0.
          5    1    5    5  501    0  0.18165377421E+02 -0.79718816938E+02  0.21295101410E+03  0.22815629537E+03  0.47000000000E+01 0. -1.
        -11    1    6    6    0    0  0.21944637108E+02  0.38032928380E+02  0.16502545941E+03  0.17076730657E+03  0.00000000000E+00 0.  1.
         12    1    6    6    0    0 -0.47609122670E+02  0.26217684663E+01  0.17018125313E+03  0.17673471970E+03  0.00000000000E+00 0. -1.
         -5    1    3    3    0  503 -0.55895104618E+02  0.38767022318E+02  0.10472089015E+02  0.68984776494E+02  0.47000000000E+01 0.  1.
         11    1    4    4    0    0  0.36971099390E+02  0.29900801070E+02  0.76257748017E+02  0.89867481479E+02  0.00000000000E+00 0. -1.
        -12    1    4    4    0    0  0.26423113367E+02 -0.29603703296E+02  0.52883307250E+01  0.40031570175E+02  0.00000000000E+00 0.  1.
</event>
<event>
12    1  0.8563264E-002  0.2763963E+03  0.7818608E-02  0.1098677E+00
         21   -1    0    0  503  502  0.00000000000E+00  0.00000000000E+00  0.48773203211E+03  0.48773203211E+03  0.00000000000E+00 0. -1.
         21   -1    0    0  501  503 -0.00000000000E+00 -0.00000000000E+00 -0.16478912277E+03  0.16478912277E+03  0.00000000000E+00 0.  1.
          6    2    1    2  501    0 -0.63651184140E+02  0.19711222819E+03  0.70864235460E+02  0.27843747770E+03  0.17204936901E+03 0.  0.
         24    2    3    3    0    0 -0.56020216577E+02  0.16100880936E+03 -0.10531991680E+02  0.18894376670E+03  0.80788135064E+02 0.  0.
         -6    2    1    2    0  502  0.63651184140E+02 -0.19711222819E+03  0.25207867388E+03  0.37408367718E+03  0.18300337692E+03 0.  0.
        -24    2    5    5    0    0 -0.19320599736E+01 -0.23338220215E+02  0.12026477754E+03  0.14627770487E+03  0.79907101337E+02 0.  0.
          5    1    3    3  501    0 -0.76309675625E+01  0.36103418828E+02  0.81396227140E+02  0.89493711006E+02  0.47000000000E+01 0. -1.
        -13    1    4    4    0    0 -0.41720103418E+02  0.21050706842E+02  0.66911636634E+01  0.47206683414E+02  0.00000000000E+00 0.  1.
         14    1    4    4    0    0 -0.14300113159E+02  0.13995810252E+03 -0.17223155344E+02  0.14173708328E+03  0.00000000000E+00 0. -1.
         -5    1    5    5    0  502  0.65583244113E+02 -0.17377400797E+03  0.13181389633E+03  0.22780597232E+03  0.47000000000E+01 0.  1.
         13    1    6    6    0    0 -0.36254022302E+01 -0.52769592081E+02  0.87116305223E+02  0.10191675047E+03  0.00000000000E+00 0. -1.
        -14    1    6    6    0    0  0.16933422566E+01  0.29431371867E+02  0.33148472322E+02  0.44360954399E+02  0.00000000000E+00 0.  1.
</event>
<event>
12    1  0.8563264E-002  0.2212603E+03  0.7818608E-02  0.1133260E+00
         21   -1    0    0  501  502  0.00000000000E+00  0.00000000000E+00  0.15023498736E+03  0.15023498736E+03  0.00000000000E+00 0.  1.
         21   -1    0    0  502  503 -0.00000000000E+00 -0.00000000000E+00 -0.80511868110E+03  0.80511868110E+03  0.00000000000E+00 0.  1.
         -6    2    1    2    0  503 -0.94643313191E+02  0.10315630687E+03 -0.69743620647E+03  0.73169213684E+03  0.17134042327E+03 0.  0.
        -24    2    3    3    0    0 -0.72566701077E+02  0.25704097078E+01 -0.24802113587E+03  0.27060549077E+03  0.80251571217E+02 0.  0.
          6    2    1    2  501    0  0.94643313191E+02 -0.10315630687E+03  0.42552512721E+02  0.22366153162E+03  0.16916023176E+03 0.  0.
         24    2    5    5    0    0  0.74170461276E+02 -0.79160424824E+02  0.98962052264E+02  0.15886132967E+03  0.60628409953E+02 0.  0.
          5    1    5    5  501    0  0.20472851916E+02 -0.23995882048E+02 -0.56409539543E+02  0.64800201946E+02  0.47000000000E+01 0. -1.
        -13    1    6    6    0    0  0.68519638309E+02 -0.50733198591E+02  0.42204116030E+02  0.95131412704E+02  0.00000000000E+00 0.  1.
         14    1    6    6    0    0  0.56508229670E+01 -0.28427226233E+02  0.56757936233E+02  0.63729916970E+02  0.00000000000E+00 0. -1.
         -5    1    3    3    0  503 -0.22076612114E+02  0.10058589716E+03 -0.44941507059E+03  0.46108664607E+03  0.47000000000E+01 0.  1.
         11    1    4    4    0    0 -0.93162779790E-01  0.29132057572E+02 -0.92568527861E+02  0.97044411524E+02  0.00000000000E+00 0. -1.
        -12    1    4    4    0    0 -0.72473538297E+02 -0.26561647865E+02 -0.15545260801E+03  0.17356107925E+03  0.00000000000E+00 0.  1.
</event>
<event>
12    1  0.8563264E-002  0.3043643E+03  0.7818608E-02  0.1083139E+00
         21   -1    0    0  501  502  0.00000000000E+00  0.00000000000E+00  0.47205921072E+03  0.47205921072E+03  0.00000000000E+00 0. -1.
         21   -1    0    0  502  503 -0.00000000000E+00 -0.00000000000E+00 -0.46569484696E+03  0.46569484696E+03  0.00000000000E+00 0.  1.
         -6    2    1    2    0  503 -0.23882915969E+03  0.75686503729E+02 -0.35368221972E+03  0.46661412939E+03  0.17282887154E+03 0.  0.
        -24    2    3    3    0    0 -0.22550667270E+03  0.53960020345E+02 -0.21766037002E+03  0.32814549636E+03  0.80860910655E+02 0.  0.
          6    2    1    2  501    0  0.23882915969E+03 -0.75686503729E+02  0.36004658348E+03  0.47113992828E+03  0.17196358739E+03 0.  0.
         24    2    5    5    0    0  0.13167769782E+03  0.16381054837E+02  0.13463693090E+03  0.20507701731E+03  0.79511790361E+02 0.  0.
          5    1    5    5  501    0  0.10715146186E+03 -0.92067558566E+02  0.22540965258E+03  0.26606291097E+03  0.47000000000E+01 0. -1.
        -13    1    6    6    0    0 -0.95674699855E+01 -0.62785991583E+01  0.74020657663E+01  0.13628934915E+02  0.00000000000E+00 0.  1.
         14    1    6    6    0    0  0.14124516781E+03  0.22659653996E+02  0.12723486513E+03  0.19144808240E+03  0.00000000000E+00 0. -1.
         -5    1    3    3    0  503 -0.13322486985E+02  0.21726483385E+02 -0.13602184970E+03  0.13846863303E+03  0.47000000000E+01 0.  1.
         13    1    4    4    0    0 -0.14247036209E+03  0.69779792150E+02 -0.11955402822E+03  0.19864588878E+03  0.00000000000E+00 0. -1.
        -14    1    4    4    0    0 -0.83036310610E+02 -0.15819771805E+02 -0.98106341801E+02  0.12949960757E+03  0.00000000000E+00 0.  1.
</event>
<event>
12    1  0.8563264E-002  0.1909284E+03  0.7818608E-02  0.1158261E+00
         21   -1    0    0  503  502  0.00000000000E+00  0.00000000000E+00  0.28486888423E+03  0.28486888423E+03  0.00000000000E+00 0. -1.
         21   -1    0    0  501  503 -0.00000000000E+00 -0.00000000000E+00 -0.70221614867E+03  0.70221614867E+03  0.00000000000E+00 0. -1.
          6    2    1    2  501    0 -0.32610983003E+02  0.70974524281E+02 -0.65599051347E+03  0.68321096710E+03  0.17422058572E+03 0.  0.
         24    2    3    3    0    0  0.46881338213E+02  0.15944986661E+02 -0.33617701392E+03  0.34907021287E+03  0.79893218428E+02 0.  0.
         -6    2    1    2    0  502  0.32610983003E+02 -0.70974524281E+02  0.23864324903E+03  0.30387406581E+03  0.17113733741E+03 0.  0.
        -24    2    5    5    0    0 -0.15065844191E+02 -0.78538153075E+02  0.22762911373E+03  0.25413786663E+03  0.79848736319E+02 0.  0.
          5    1    3    3  501    0 -0.79492321217E+02  0.55029537619E+02 -0.31981349955E+03  0.33414075423E+03  0.47000000000E+01 0. -1.
        -13    1    4    4    0    0 -0.79351678136E+01  0.17183181254E+02 -0.17719674569E+02  0.25927118488E+02  0.00000000000E+00 0.  1.
         14    1    4    4    0    0  0.54816506027E+02 -0.12381945928E+01 -0.31845733935E+03  0.32314309438E+03  0.00000000000E+00 0. -1.
         -5    1    5    5    0  502  0.47676827194E+02  0.75636287947E+01  0.11014135303E+02  0.49736199174E+02  0.47000000000E+01 0.  1.
         11    1    6    6    0    0  0.29346819553E+02 -0.21238468086E+02  0.45838953447E+02  0.58425319833E+02  0.00000000000E+00 0. -1.
        -12    1    6    6    0    0 -0.44412663744E+02 -0.57299684989E+02  0.18179016028E+03  0.19571254680E+03  0.00000000000E+00 0.  1.
</event>
<event>
12    1  0.8563264E-002  0.2353269E+03  0.7818608E-02  0.1123023E+00
         21   -1    0    0  503  502  0.00000000000E+00  0.00000000000E+00  0.18336383313E+03  0.18336383313E+03  0.00000000000E+00 0.  1.
         21   -1    0    0  501  503 -0.00000000000E+00 -0.00000000000E+00 -0.30314849258E+03  0.30314849258E+03  0.00000000000E+00 0.  1.
          6    2    1    2  501    0 -0.16315747224E+03 -0.10567465437E+02 -0.78236081585E+02  0.24799121762E+03  0.16925344156E+03 0.  0.
         24    2    3    3    0    0 -0.17547310012E+03 -0.37344695579E+02 -0.39816033191E+02  0.19934057669E+03  0.77239328477E+02 0.  0.
         -6    2    1    2    0  502  0.16315747224E+03  0.10567465437E+02 -0.41548577869E+02  0.23852110809E+03  0.16862384946E+03 0.  0.
        -24    2    5    5    0    0  0.11227992659E+03  0.70584702535E+02 -0.25175315052E+02  0.15801789613E+03  0.82139374622E+02 0.  0.
          5    1    3    3  501    0  0.12315627880E+02  0.26777230141E+02 -0.38420048394E+02  0.48650640928E+02  0.47000000000E+01 0. -1.
        -11    1    4    4    0    0 -0.17512122134E+03 -0.23790887270E+02 -0.23750830237E+02  0.17831867658E+03  0.00000000000E+00 0.  1.
         12    1    4    4    0    0 -0.35187878024E+00 -0.13553808309E+02 -0.16065202955E+02  0.21021900112E+02  0.00000000000E+00 0. -1.
         -5    1    5    5    0  502  0.50877545649E+02 -0.60017237097E+02 -0.16373262817E+02  0.80503211957E+02  0.47000000000E+01 0.  1.
         11    1    6    6    0    0  0.66473419198E+02  0.74660017692E+02  0.95114944605E+01  0.10041564733E+03  0.00000000000E+00 0. -1.
        -12    1    6    6    0    0  0.45806507392E+02 -0.40753151570E+01 -0.34686809513E+02  0.57602248803E+02  0.00000000000E+00 0.  1.
</event>
<event>
12    1  0.8563264E-002  0.1983240E+03  0.7818608E-02  0.1151165E+00
         21   -1    0    0  501  502  0.00000000000E+00  0.00000000000E+00  0.16648575147E+03  0.16648575147E+03  0.00000000000E+00 0. -1.
         21   -1    0    0  502  503 -0.00000000000E+00 -0.00000000000E+00 -0.50550392103E+03  0.50550392103E+03  0.00000000000E+00 0.  1.
         -6    2    1    2    0  503 -0.35425601925E+02  0.92484872953E+02 -0.41473216779E+03  0.45970441240E+03  0.17180497892E+03 0.  0.
        -24    2    3    3    0    0 -0.30915722709E+02  0.61752549390E+02 -0.41488311029E+03  0.42828901003E+03  0.80835151070E+02 0.  0.
          6    2    1    2  501    0  0.35425601925E+02 -0.92484872953E+02  0.75713998232E+02  0.21228526009E+03  0.17182548451E+03 0.  0.
         24    2    5    5    0    0 -0.28334063530E+02 -0.10494468105E+02  0.34828091805E+00  0.83872633096E+02  0.78240298222E+02 0.  0.
          5    1    5    5  501    0  0.63759665455E+02 -0.81990404848E+02  0.75365717314E+02  0.12841262700E+03  0.47000000000E+01 0. -1.
        -13    1    6    6    0    0 -0.30710002922E+02 -0.22081395845E+02  0.32339537091E+02  0.49764826747E+02  0.00000000000E+00 0.  1.
         14    1    6    6    0    0  0.23759393915E+01  0.11586927740E+02 -0.31991256173E+02  0.34107806349E+02  0.00000000000E+00 0. -1.
         -5    1    3    3    0  503 -0.45098792161E+01  0.30732323564E+02  0.15094249601E+00  0.31415402366E+02  0.47000000000E+01 0.  1.
         13    1    4    4    0    0 -0.41480069410E+02  0.39156661577E+01 -0.10666714280E+03  0.11451553586E+03  0.00000000000E+00 0. -1.
        -14    1    4    4    0    0  0.10564346701E+02  0.57836883232E+02 -0.30821596749E+03  0.31377347418E+03  0.00000000000E+00 0.  1.
</event>
<event>
12    1  0.8563264E-002  0.1723805E+03  0.7818608E-02  0.1175609E+00
         21   -1    0    0  501  502  0.00000000000E+00  0.00000000000E+00  0.36273424123E+02  0.36273424123E+02  0.00000000000E+00 0.  1.
         21   -1    0    0  502  503 -0.00000000000E+00 -0.00000000000E+00 -0.97557338240E+03  0.97557338240E+03  0.00000000000E+00 0.  1.
         -6    2    1    2    0  503  0.54677116679E+01  0.85034273362E+01 -0.67581021429E+03  0.69744856258E+03  0.17208383874E+03 0.  0.
        -24    2    3    3    0    0  0.51339730752E+02  0.56068373660E+02 -0.44265867755E+03  0.45506787989E+03  0.73216391765E+02 0.  0.
          6    2    1    2  501    0 -0.54677116679E+01 -0.85034273362E+01 -0.26348974399E+03  0.31439824395E+03  0.17122268092E+03 0.  0.
         24    2    5    5    0    0  0.46413968516E+02 -0.45641103939E+02 -0.14115832623E+03  0.17634759551E+03  0.83279256343E+02 0.  0.
          5    1    5    5  501    0 -0.51881680184E+02  0.37137676603E+02 -0.12233141776E+03  0.13805064844E+03  0.47000000000E+01 0. -1.
        -11    1    6    6    0    0 -0.97055144178E+01  0.73980957310E+01  0.32163612440E+01  0.12620372824E+02  0.00000000000E+00 0.  1.
         12    1    6    6    0    0  0.56119482933E+02 -0.53039199670E+02 -0.14437468748E+03  0.16372722269E+03  0.00000000000E+00 0. -1.
         -5    1    3    3    0  503 -0.45872019084E+02 -0.47564946323E+02 -0.23315153674E+03  0.24238068268E+03  0.47000000000E+01 0.  1.
         11    1    4    4    0    0  0.59837565013E+02  0.35220266231E+02 -0.20696556523E+03  0.21830196182E+03  0.00000000000E+00 0. -1.
        -12    1    4    4    0    0 -0.84978342610E+01  0.20848107428E+02 -0.23569311232E+03  0.23676591808E+03  0.00000000000E+00 0.  1.
</event>
<event>
12    1  0.8563264E-002  0.2032186E+03  0.7818608E-02  0.1147416E+00
         21   -1    0    0  503  502  0.00000000000E+00  0.00000000000E+00  0.79958091999E+02  0.79958091999E+02  0.00000000000E+00 0.  1.
         21   -1    0    0  501  503 -0.00000000000E+00 -0.00000000000E+00 -0.51327163021E+03  0.51327163021E+03  0.00000000000E+00 0.  1.
          6    2    1    2  501    0 -0.10875848831E+01  0.10546932479E+03 -0.23215734350E+03  0.30853657881E+03  0.17370327288E+03 0.  0.
         24    2    3    3    0    0 -0.19745153026E+02  0.14119594349E+03 -0.19107818006E+03  0.25079505300E+03  0.77853209255E+02 0.  0.
         -6    2    1    2    0  502  0.10875848831E+01 -0.10546932479E+03 -0.20115619471E+03  0.28469314340E+03  0.17164326354E+03 0.  0.
        -24    2    5    5    0    0  0.49551833056E+02 -0.10870950527E+03 -0.11215837045E+03  0.18319444960E+03  0.81899728985E+02 0.  0.
          5    1    3    3  501    0  0.18657568143E+02 -0.35726618701E+02 -0.41079163447E+02  0.57741525806E+02  0.47000000000E+01 0. -1.
        -11    1    4    4    0    0  0.11102853652E+02  0.12672212880E+03 -0.16217625588E+03  0.20611382598E+03  0.00000000000E+00 0.  1.
         12    1    4    4    0    0 -0.30848006678E+02  0.14473814693E+02 -0.28901924174E+02  0.44681227028E+02  0.00000000000E+00 0. -1.
         -5    1    5    5    0  502 -0.48464248173E+02  0.32401804777E+01 -0.88997824262E+02  0.10149869380E+03  0.47000000000E+01 0.  1.
         11    1    6    6    0    0 -0.64803360054E+01  0.88049000256E+01 -0.22809903099E+02  0.25294519142E+02  0.00000000000E+00 0. -1.
        -12    1    6    6    0    0  0.56032169061E+02 -0.11751440529E+03 -0.89348467349E+02  0.15789993046E+03  0.00000000000E+00 0.  1.
</event>
<event>
12    1  0.8563264E-002  0.2022373E+03  0.7818608E-02  0.1148384E+00
         21   -1    0    0  503  502  0.00000000000E+00  0.00000000000E+00  0.59833031198E+03  0.59833031198E+03  0.00000000000E+00 0.  1.
         21   -1    0    0  501  503 -0.00000000000E+00 -0.00000000000E+00 -0.13741671945E+03  0.13741671945E+03  0.00000000000E+00 0. -1.
          6    2    1    2  501    0 -0.21952690165E+02  0.98713828204E+02 -0.32603000764E+02  0.20240046132E+03  0.17226912260E+03 0.  0.
         24    2    3    3    0    0  0.16410342070E+01  0.11690200185E+03  0.19736870660E+02  0.14199329593E+03  0.78126698362E+02 0.  0.
         -6    2    1    2    0  502  0.21952690165E+02 -0.98713828204E+02  0.49351659330E+03  0.53334657011E+03  0.17513878925E+03 0.  0.
        -24    2    5    5    0    0  0.34572671028E+02 -0.52404074695E+02  0.12301436352E+03  0.15971861417E+03  0.80224967772E+02 0.  0.
          5    1    3    3  501    0 -0.23593724372E+02 -0.18188173643E+02 -0.52339871424E+02  0.60407165394E+02  0.47000000000E+01 0. -1.
        -11    1    4    4    0    0  0.25258231626E+02  0.11139011578E+03  0.65916544230E+01  0.11440798078E+03  0.00000000000E+00 0.  1.
         12    1    4    4    0    0 -0.23617197419E+02  0.55118860658E+01  0.13145216237E+02  0.27585315149E+02  0.00000000000E+00 0. -1.
         -5    1    5    5    0  502 -0.12619980863E+02 -0.46309753509E+02  0.37050222978E+03  0.37362795593E+03  0.47000000000E+01 0.  1.
         13    1    6    6    0    0  0.27801545614E+02 -0.68966782148E+02  0.12057409485E+03  0.14165964608E+03  0.00000000000E+00 0. -1.
        -14    1    6    6    0    0  0.67711254142E+01  0.16562707452E+02  0.24402686756E+01  0.18058968097E+02  0.00000000000E+00 0.  1.
</event>
<event>
12    1  0.8563264E-002  0.1878292E+03  0.7818608E-02  0.1160912E+00
         21   -1    0    0  501  502  0.00000000000E+00  0.00000000000E+00  0.27638707050E+03  0.27638707050E+03  0.00000000000E+00 0.  1.
         21   -1    0    0  502  503 -0.00000000000E+00 -0.00000000000E+00 -0.17822931434E+03  0.17822931434E+03  0.00000000000E+00 0.  1.
         -6    2    1    2    0  503 -0.34691678309E+02 -0.67621021878E+02 -0.73879275626E+02  0.19990760699E+03  0.16949568968E+03 0.  0.
        -24    2    3    3    0    0 -0.28735495383E+02 -0.56839161269E+02 -0.11705912279E+03  0.15475991786E+03  0.78685290867E+02 0.  0.
          6    2    1    2  501    0  0.34691678309E+02  0.67621021878E+02  0.17203703178E+03  0.25470877785E+03  0.17176642881E+03 0.  0.
         24    2    5    5    0    0 -0.18504907832E+02  0.74089199095E+02  0.16801250344E+03  0.20076435347E+03  0.79034696663E+02 0.  0.
          5    1    5    5  501    0  0.53196586141E+02 -0.64681772171E+01  0.40245283491E+01  0.53944424383E+02  0.47000000000E+01 0. -1.
        -13    1    6    6    0    0  0.22637586358E+02  0.46982872625E+02  0.12469035419E+03  0.13515744546E+03  0.00000000000E+00 0.  1.
         14    1    6    6    0    0 -0.41142494190E+02  0.27106326470E+02  0.43322149251E+02  0.65606908010E+02  0.00000000000E+00 0. -1.
         -5    1    3    3    0  503 -0.59561829260E+01 -0.10781860609E+02  0.43179847160E+02  0.45147689133E+02  0.47000000000E+01 0.  1.
         13    1    4    4    0    0  0.86547704948E+01 -0.24624335231E+02  0.16973637612E+01  0.26156146154E+02  0.00000000000E+00 0. -1.
        -14    1    4    4    0    0 -0.37390265878E+02 -0.32214826038E+02 -0.11875648655E+03  0.12860377170E+03  0.00000000000E+00 0.  1.
</event>
<event>
12    1  0.8563264E-002  0.4048938E+03  0.7818608E-02  0.1042203E+00
         21   -1    0    0  503  502  0.00000000000E+00  0.00000000000E+00  0.69147743210E+03  0.69147743210E+03  0.00000000000E+00 0. -1.
         21   -1    0    0  501  503 -0.00000000000E+00 -0.00000000000E+00 -0.29745591873E+03  0.29745591873E+03  0.00000000000E+00 0.  1.
          6    2    1    2  501    0  0.15827943069E+03  0.32851822326E+03 -0.26836514302E+02  0.40578222979E+03  0.17596141144E+03 0.  0.
         24    2    3    3    0    0  0.14652692591E+02  0.68750891168E+02 -0.31309019667E+02  0.10888190977E+03  0.77030053397E+02 0.  0.
         -6    2    1    2    0  502 -0.15827943069E+03 -0.32851822326E+03  0.42085802767E+03  0.58315112105E+03  0.17311022308E+03 0.  0.
        -24    2    5    5    0    0 -0.17261796645E+02 -0.12674784385E+03  0.11003595055E+03  0.18662910055E+03  0.79746631363E+02 0.  0.
          5    1    3    3  501    0  0.14362673810E+03  0.25976733209E+03  0.44725053653E+01  0.29690032001E+03  0.47000000000E+01 0. -1.
        -13    1    4    4    0    0 -0.13598206007E+02  0.57164029107E+02  0.77890609536E+01  0.59273154977E+02  0.00000000000E+00 0.  1.
         14    1    4    4    0    0  0.28250898598E+02  0.11586862061E+02 -0.39098080620E+02  0.49608754794E+02  0.00000000000E+00 0. -1.
         -5    1    5    5    0  502 -0.14101763405E+03 -0.20177037941E+03  0.31082207712E+03  0.39652202051E+03  0.47000000000E+01 0.  1.
         11    1    6    6    0    0  0.59324138417E+00  0.11413285325E+02  0.81546982951E+01  0.14039733671E+02  0.00000000000E+00 0. -1.
        -12    1    6    6    0    0 -0.17855038029E+02 -0.13816112917E+03  0.10188125225E+03  0.17258936688E+03  0.00000000000E+00 0.  1.
</event>
<event>
12    1  0.8563264E-002  0.1887396E+03  0.7818608E-02  0.1160171E+00
         21   -1    0    0  501  502  0.00000000000E+00  0.00000000000E+00  0.14508847646E+04  0.14508847646E+04  0.00000000000E+00 0.  1.
         21   -1    0    0  502  503 -0.00000000000E+00 -0.00000000000E+00 -0.39139359565E+02  0.39139359565E+02  0.00000000000E+00 0.  1.
         -6    2    1    2    0  503 -0.18053179406E+02 -0.75768514105E+02  0.24318183016E+03  0.30631661021E+03  0.16919124728E+03 0.  0.
        -24    2    3    3    0    0  0.48889896931E+02 -0.20069371274E+02  0.96975088539E+02  0.13607480783E+03  0.79493294337E+02 0.  0.
          6    2    1    2  501    0  0.18053179406E+02  0.75768514105E+02  0.11685635748E+04  0.11837075139E+04  0.17191819289E+03 0.  0.
         24    2    5    5    0    0  0.24690373661E+02  0.11532139654E+03  0.10155844222E+04  0.10254886971E+04  0.79414798273E+02 0.  0.
          5    1    5    5  501    0 -0.66371942544E+01 -0.39552882440E+02  0.15297915262E+03  0.15821881681E+03  0.47000000000E+01 0. -1.
        -13    1    6    6    0    0  0.63983845052E+01  0.52779255337E+02  0.75539761059E+03  0.75726622743E+03  0.00000000000E+00 0.  1.
         14    1    6    6    0    0  0.18291989155E+02  0.62542141207E+02  0.26018681162E+03  0.26822246967E+03  0.00000000000E+00 0. -1.
         -5    1    3    3    0  503 -0.66943076338E+02 -0.55699142831E+02  0.14620674162E+03  0.17024180237E+03  0.47000000000E+01 0.  1.
         13    1    4    4    0    0  0.46935792086E+02 -0.13321208713E+02  0.11052343101E+03  0.12081329390E+03  0.00000000000E+00 0. -1.
        -14    1    4    4    0    0  0.19541048452E+01 -0.67481625613E+01 -0.13548342475E+02  0.15261513932E+02  0.00000000000E+00 0.  1.
</event>
<event>
12    1  0.8563264E-002  0.2549983E+03  0.7818608E-02  0.1110252E+00
         21   -1    0    0  501  502  0.00000000000E+00  0.00000000000E+00  0.11099463289E+03  0.11099463289E+03  0.00000000000E+00 0. -1.
         21   -1    0    0  502  503 -0.00000000000E+00 -0.00000000000E+00 -0.59585738467E+03  0.59585738467E+03  0.00000000000E+00 0. -1.
         -6    2    1    2    0  503 -0.10820671456E+03 -0.15345387424E+03 -0.19459843622E+03  0.32076886630E+03  0.17253211182E+03 0.  0.
        -24    2    3    3    0    0  0.17725400996E+01 -0.99119266182E+02 -0.13276625235E+03  0.18331707456E+03  0.78425131403E+02 0.  0.
          6    2    1    2  501    0  0.10820671456E+03  0.15345387424E+03 -0.29026431556E+03  0.38608315126E+03  0.17190125713E+03 0.  0.
         24    2    5    5    0    0  0.92535330361E+02  0.15913699671E+03 -0.16537033886E+03  0.25999395434E+03  0.79763000410E+02 0.  0.
          5    1    5    5  501    0  0.15671384204E+02 -0.56831224610E+01 -0.12489397669E+03  0.12608919691E+03  0.47000000000E+01 0. -1.
        -11    1    6    6    0    0  0.37040930867E+02  0.64967092848E+01 -0.39274327684E+02  0.54375643500E+02  0.00000000000E+00 0.  1.
         12    1    6    6    0    0  0.55494399494E+02  0.15264028742E+03 -0.12609601118E+03  0.20561831084E+03  0.00000000000E+00 0. -1.
         -5    1    3    3    0  503 -0.10997925466E+03 -0.54334608062E+02 -0.61832183864E+02  0.13745179174E+03  0.47000000000E+01 0.  1.
         11    1    4    4    0    0  0.60293388539E+01 -0.95400953940E+02 -0.65651420656E+02  0.11596466692E+03  0.00000000000E+00 0. -1.
        -12    1    4    4    0    0 -0.42567987543E+01 -0.37183122420E+01 -0.67114831698E+02  0.67352407644E+02  0.00000000000E+00 0.  1.
</event>
<event>
12    1  0.8563264E-002  0.1836533E+03  0.7818608E-02  0.1166109E+00
         21   -1    0    0  501  502  0.00000000000E+00  0.00000000000E+00  0.28716872616E+03  0.28716872616E+03  0.00000000000E+00 0.  1.
         21   -1    0    0  502  503 -0.00000000000E+00 -0.00000000000E+00 -0.40459508258E+03  0.40459508258E+03  0.00000000000E+00 0. -1.
         -6    2    1    2    0  503  0.70106929031E+02  0.99049214889E+01 -0.35280272631E+03  0.39774151402E+03  0.16945636405E+03 0.  0.
        -24    2    3    3    0    0  0.97522217492E+02  0.39742667382E+02 -0.20259600781E+03  0.24209435727E+03  0.80464109568E+02 0.  0.
          6    2    1    2  501    0 -0.70106929031E+02 -0.99049214889E+01  0.23537636988E+03  0.29402229472E+03  0.16135050456E+03 0.  0.
         24    2    5    5    0    0  0.95879226431E+01 -0.56968856070E+01  0.59171947491E+02  0.10053052378E+03  0.80502696076E+02 0.  0.
          5    1    5    5  501    0 -0.79694851674E+02 -0.42080358819E+01  0.17620442239E+03  0.19349177093E+03  0.47000000000E+01 0. -1.
        -11    1    6    6    0    0  0.26760792499E+00  0.10925811890E+00  0.78393216819E+02  0.78393749716E+02  0.00000000000E+00 0.  1.
         12    1    6    6    0    0  0.93203147181E+01 -0.58061437259E+01 -0.19221269328E+02  0.22136774065E+02  0.00000000000E+00 0. -1.
         -5    1    3    3    0  503 -0.27415288461E+02 -0.29837745893E+02 -0.15020671850E+03  0.15564715675E+03  0.47000000000E+01 0.  1.
         13    1    4    4    0    0  0.89869614591E+02  0.24167468366E+02 -0.94559384673E+02  0.13267287358E+03  0.00000000000E+00 0. -1.
        -14    1    4    4    0    0  0.76526029009E+01  0.15575199016E+02 -0.10803662313E+03  0.10942148369E+03  0.00000000000E+00 0.  1.
</event>
<event>
12    1  0.8563264E-002  0.2422281E+03  0.7818608E-02  0.1118682E+00
         21   -1    0    0  503  502  0.00000000000E+00  0.00000000000E+00  0.27777869604E+02  0.27777869604E+02  0.00000000000E+00 0. -1.
         21   -1    0    0  501  503 -0.00000000000E+00 -0.00000000000E+00 -0.29907907992E+04  0.29907907992E+04  0.00000000000E+00 0.  1.
          6    2    1    2  501    0  0.74365552598E+02 -0.15252378240E+03 -0.23131142248E+04  0.23257626456E+04  0.17286042671E+03 0.  0.
         24    2    3    3    0    0  0.70715703270E+02 -0.15440087393E+02 -0.10525789702E+04  0.10577813843E+04  0.75761874071E+02 0.  0.
         -6    2    1    2    0  502 -0.74365552598E+02  0.15252378240E+03 -0.64989870475E+03  0.69280602315E+03  0.16975900467E+03 0.  0.
        -24    2    5    5    0    0 -0.61658216700E+02  0.17085485045E+03 -0.49196203043E+03  0.53323288150E+03  0.96527461981E+02 0.  0.
          5    1    3    3  501    0  0.36498493283E+01 -0.13708369500E+03 -0.12605352546E+04  0.12679812613E+04  0.47000000000E+01 0. -1.
        -11    1    4    4    0    0  0.55773662167E+01 -0.36034094308E+02 -0.36861534322E+03  0.37041440877E+03  0.00000000000E+00 0.  1.
         12    1    4    4    0    0  0.65138337053E+02  0.20594006915E+02 -0.68396362699E+03  0.68736697558E+03  0.00000000000E+00 0. -1.
         -5    1    5    5    0  502 -0.12707335899E+02 -0.18331068055E+02 -0.15793667432E+03  0.15957314165E+03  0.47000000000E+01 0.  1.
         11    1    6    6    0    0 -0.48540066551E+00  0.39480519058E+02 -0.31514515162E+02  0.50518428962E+02  0.00000000000E+00 0. -1.
        -12    1    6    6    0    0 -0.61172816034E+02  0.13137433139E+03 -0.46044751527E+03  0.48271445254E+03  0.00000000000E+00 0.  1.
</event>
<event>
12    1  0.8563264E-002  0.2212005E+03  0.7818608E-02  0.1133140E+00
         21   -1    0    0  501  502  0.00000000000E+00  0.00000000000E+00  0.56100640533E+03  0.56100640533E+03  0.00000000000E+00 0. -1.
         21   -1    0    0  502  503 -0.00000000000E+00 -0.00000000000E+00 -0.26420861765E+03  0.26420861765E+03  0.00000000000E+00 0. -1.
         -6    2    1    2    0  503 -0.99459444532E+02  0.96761638142E+02 -0.18969828357E+03  0.29079188947E+03  0.17122934465E+03 0.  0.
        -24    2    3    3    0    0 -0.12391780567E+03  0.10699724578E+03 -0.12828211433E+03  0.22373210318E+03  0.82436156932E+02 0.  0.
          6    2    1    2  501    0  0.99459444532E+02 -0.96761638142E+02  0.48649607126E+03  0.53442313350E+03  0.17226335232E+03 0.  0.
         24    2    5    5    0    0  0.28427616479E+01 -0.67719314540E+02  0.14757394798E+03  0.18077283220E+03  0.79415111162E+02 0.  0.
          5    1    5    5  501    0  0.96616682884E+02 -0.29042323602E+02  0.33892212327E+03  0.35365030131E+03  0.47000000000E+01 0. -1.
        -11    1    6    6    0    0  0.13599126283E+02 -0.35802190275E+02  0.10627118174E+02  0.39745046293E+02  0.00000000000E+00 0.  1.
         12    1    6    6    0    0 -0.10756364635E+02 -0.31917124265E+02  0.13694682981E+03  0.14102778590E+03  0.00000000000E+00 0. -1.
         -5    1    3    3    0  503  0.24458361137E+02 -0.10235607638E+02 -0.61416169244E+02  0.67059786294E+02  0.47000000000E+01 0.  1.
         13    1    4    4    0    0 -0.15936477756E+02  0.58109074552E+02 -0.67645475030E+02  0.90589989295E+02  0.00000000000E+00 0. -1.
        -14    1    4    4    0    0 -0.10798132791E+03  0.48888171229E+02 -0.60636639301E+02  0.13314211388E+03  0.00000000000E+00 0.  1.
</event>
<event>
12    1  0.8563264E-002  0.2003355E+03  0.7818608E-02  0.1149462E+00
         21   -1    0    0  503  502  0.00000000000E+00  0.00000000000E+00  0.86759807030E+03  0.86759807030E+03  0.00000000000E+00 0. -1.
         21   -1    0    0  501  503 -0.00000000000E+00 -0.00000000000E+00 -0.74741307053E+02  0.74741307053E+02  0.00000000000E+00 0. -1.
          6    2    1    2  501    0  0.95107718091E+02 -0.41681409096E+02  0.10555368668E+03  0.22644185144E+03  0.17132283388E+03 0.  0.
         24    2    3    3    0    0  0.36539209619E+02 -0.34249194004E+02  0.13110807512E+03  0.16193894628E+03  0.80788451088E+02 0.  0.
         -6    2    1    2    0  502 -0.95107718091E+02  0.41681409096E+02  0.68730307657E+03  0.71589752591E+03  0.17129194565E+03 0.  0.
        -24    2    5    5    0    0 -0.57410365841E+02 -0.32892031439E+02  0.50103556046E+03  0.51169183071E+03  0.80087832548E+02 0.  0.
          5    1    3    3  501    0  0.58568508472E+02 -0.74322150926E+01 -0.25554388444E+02  0.64502905163E+02  0.47000000000E+01 0. -1.
        -13    1    4    4    0    0  0.55510773460E+02 -0.54336734249E+00  0.87757736824E+02  0.10384200302E+03  0.00000000000E+00 0.  1.
         14    1    4    4    0    0 -0.18971563841E+02 -0.33705826661E+02  0.43350338301E+02  0.58096943261E+02  0.00000000000E+00 0. -1.
         -5    1    5    5    0  502 -0.37697352250E+02  0.74573440535E+02  0.18626751610E+03  0.20420569521E+03  0.47000000000E+01 0.  1.
         13    1    6    6    0    0  0.13824472905E+02 -0.28263023144E+02  0.12192935254E+03  0.12592331610E+03  0.00000000000E+00 0. -1.
        -14    1    6    6    0    0 -0.71234838746E+02 -0.46290082950E+01  0.37910620793E+03  0.38576851460E+03  0.00000000000E+00 0.  1.
</event>
<event>
12    1  0.8563264E-002  0.1981960E+03  0.7818608E-02  0.1152209E+00
         21   -1    0    0  501  502  0.00000000000E+00  0.00000000000E+00  0.12161741830E+03  0.12161741830E+03  0.00000000000E+00 0.  1.
         21   -1    0    0  502  503 -0.00000000000E+00 -0.00000000000E+00 -0.32288417938E+03  0.32288417938E+03  0.00000000000E+00 0.  1.
         -6    2    1    2    0  503  0.33262306441E+02  0.91372841947E+02 -0.13430073172E+03  0.23941251525E+03  0.17270289124E+03 0.  0.
        -24    2    3    3    0    0  0.40380387554E+02  0.33022547137E+01 -0.12304321105E+02  0.88706478151E+02  0.77948459658E+02 0.  0.
          6    2    1    2  501    0 -0.33262306441E+02 -0.91372841947E+02 -0.66966029361E+02  0.20508908243E+03  0.16769527534E+03 0.  0.
         24    2    5    5    0    0  0.12899898956E+02 -0.11050451786E+03 -0.71282323380E+02  0.15471358616E+03  0.80482720229E+02 0.  0.
          5    1    5    5  501    0 -0.46162205396E+02  0.19131675917E+02  0.43162940191E+01  0.50375496271E+02  0.47000000000E+01 0. -1.
        -13    1    6    6    0    0  0.22099233049E+00 -0.74507990665E+02 -0.86020456069E+02  0.11380249722E+03  0.00000000000E+00 0.  1.
         14    1    6    6    0    0  0.12678906625E+02 -0.35996527199E+02  0.14738132689E+02  0.40911088946E+02  0.00000000000E+00 0. -1.
         -5    1    3    3    0  503 -0.71180811131E+01  0.88070587234E+02 -0.12199641062E+03  0.15070603710E+03  0.47000000000E+01 0.  1.
         13    1    4    4    0    0  0.61638080904E+02  0.15145140083E+02 -0.76421333327E+01  0.63929887279E+02  0.00000000000E+00 0. -1.
        -14    1    4    4    0    0 -0.21257693350E+02 -0.11842885370E+02 -0.46621877724E+01  0.24776590872E+02  0.00000000000E+00 0.  1.
</event>
<event>
12    1  0.8563264E-002  0.2225999E+03  0.7818608E-02  0.1132596E+00
         21   -1    0    0  501  502  0.00000000000E+00  0.00000000000E+00  0.10522671619E+03  0.10522671619E+03  0.00000000000E+00 0.  1.
         21   -1    0    0  502  503 -0.00000000000E+00 -0.00000000000E+00 -0.47019953878E+03  0.47019953878E+03  0.00000000000E+00 0. -1.
         -6    2    1    2    0  503  0.12970482978E+03  0.56729260129E+02 -0.21783921504E+03  0.31145566116E+03  0.17178228499E+03 0.  0.
        -24    2    3    3    0    0  0.81923765407E+02 -0.30169924590E+02 -0.82022077074E+02  0.14322105300E+03  0.78504275091E+02 0.  0.
          6    2    1    2  501    0 -0.12970482978E+03 -0.56729260129E+02 -0.14713360756E+03  0.26397059381E+03  0.16730398709E+03 0.  0.
         24    2    5    5    0    0  0.44529020260E+01 -0.12657028961E+02 -0.70536095193E+02  0.10325367664E+03  0.74202104386E+02 0.  0.
          5    1    5    5  501    0 -0.13415773181E+03 -0.44072231168E+02 -0.76597512368E+02  0.16071691717E+03  0.47000000000E+01 0. -1.
        -13    1    6    6    0    0 -0.16802323047E+02  0.24273254955E+02 -0.14593223920E+02  0.32931309574E+02  0.00000000000E+00 0.  1.
         14    1    6    6    0    0  0.21255225073E+02 -0.36930283915E+02 -0.55942871274E+02  0.70322367063E+02  0.00000000000E+00 0. -1.
         -5    1    3    3    0  503  0.47781064376E+02  0.86899184718E+02 -0.13581713796E+03  0.16823460816E+03  0.47000000000E+01 0.  1.
         11    1    4    4    0    0  0.53383690624E+02 -0.29524150700E+02 -0.94164802184E+02  0.11219850208E+03  0.00000000000E+00 0. -1.
        -12    1    4    4    0    0  0.28540074782E+02 -0.64577388940E+00  0.12142725110E+02  0.31022550920E+02  0.00000000000E+00 0.  1.
</event>
<event>
12    1  0.8563264E-002  0.3154304E+03  0.7818608E-02  0.1077830E+00
         21   -1    0    0  503  502  0.00000000000E+00  0.00000000000E+00  0.32240300345E+03  0.32240300345E+03  0.00000000000E+00 0.  1.
         21   -1    0    0  501  503 -0.00000000000E+00 -0.00000000000E+00 -0.31426388316E+03  0.31426388316E+03  0.00000000000E+00 0. -1.
          6    2    1    2  501    0 -0.25931947240E+03  0.50422382913E+02 -0.40439102889E+02  0.31751769777E+03  0.17144434050E+03 0.  0.
         24    2    3    3    0    0 -0.17609714477E+03  0.35708749935E+02  0.38522693827E+02  0.20176147914E+03  0.83296922547E+02 0.  0.
         -6    2    1    2    0  502  0.25931947240E+03 -0.50422382913E+02  0.48578223180E+02  0.31914918884E+03  0.17235821855E+03 0.  0.
        -24    2    5    5    0    0  0.26778239498E+03 -0.28614577036E+02  0.12560578275E+02  0.27594545983E+03  0.58838113434E+02 0.  0.
          5    1    3    3  501    0 -0.83222327633E+02  0.14713632978E+02 -0.78961796715E+02  0.11575621863E+03  0.47000000000E+01 0. -1.
        -11    1    4    4    0    0 -0.55405496344E+02 -0.16929846237E+02  0.39443779712E+02  0.70087092083E+02  0.00000000000E+00 0.  1.
         12    1    4    4    0    0 -0.12069164843E+03  0.52638596172E+02 -0.92108588499E+00  0.13167438705E+03  0.00000000000E+00 0. -1.
         -5    1    5    5    0  502 -0.84629225774E+01 -0.21807805877E+02  0.36017644904E+02  0.43203729008E+02  0.47000000000E+01 0.  1.
         13    1    6    6    0    0  0.20193177856E+03 -0.46840663094E+02  0.11471084834E+02  0.20761039642E+03  0.00000000000E+00 0. -1.
        -14    1    6    6    0    0  0.65850616416E+02  0.18226086058E+02  0.10894934415E+01  0.68335063410E+02  0.00000000000E+00 0.  1.
</event>
<event>
12    1  0.8563264E-002  0.1846670E+03  0.7818608E-02  0.1164520E+00
         21   -1    0    0  503  502  0.00000000000E+00  0.00000000000E+00  0.26723557767E+03  0.26723557767E+03  0.00000000000E+00 0.  1.
         21   -1    0    0  501  503 -0.00000000000E+00 -0.00000000000E+00 -0.15261741488E+03  0.15261741488E+03  0.00000000000E+00 0.  1.
          6    2    1    2  501    0  0.44913773156E+02 -0.25292014416E+02 -0.32551284734E+02  0.18751392518E+03  0.17732724829E+03 0.  0.
         24    2    3    3    0    0  0.77713454769E+02  0.17286981391E+02 -0.59365447551E+02  0.12726544532E+03  0.79586534235E+02 0.  0.
         -6    2    1    2    0  502 -0.44913773156E+02  0.25292014416E+02  0.14716944752E+03  0.23233906737E+03  0.17223722863E+03 0.  0.
        -24    2    5    5    0    0  0.42544447963E+02  0.62845343916E+01  0.81594756619E+02  0.12128793128E+03  0.78762507209E+02 0.  0.
          5    1    3    3  501    0 -0.32799681613E+02 -0.42578995807E+02  0.26814162817E+02  0.60248479860E+02  0.47000000000E+01 0. -1.
        -11    1    4    4    0    0  0.29923420460E+02  0.24966178451E+02  0.12228820452E+02  0.40844402409E+02  0.00000000000E+00 0.  1.
         12    1    4    4    0    0  0.47790034309E+02 -0.76791970597E+01 -0.71594268003E+02  0.86421042910E+02  0.00000000000E+00 0. -1.
         -5    1    5    5    0  502 -0.87458221119E+02  0.19007480024E+02  0.65574690905E+02  0.11105113608E+03  0.47000000000E+01 0.  1.
         13    1    6    6    0    0  0.98496964555E+01  0.40329251987E+02  0.29130696015E+02  0.50715505878E+02  0.00000000000E+00 0. -1.
        -14    1    6    6    0    0  0.32694751508E+02 -0.34044717596E+02  0.52464060604E+02  0.70572425404E+02  0.00000000000E+00 0.  1.
</event>
<event>
12    1  0.8563264E-002  0.2445357E+03  0.7818608E-02  0.1116846E+00
         21   -1    0    0  501  502  0.00000000000E+00  0.00000000000E+00  0.88067028872E+03  0.88067028872E+03  0.00000000000E+00 0.  1.
         21   -1    0    0  502  503 -0.00000000000E+00 -0.00000000000E+00 -0.20468270866E+03  0.20468270866E+03  0.00000000000E+00 0.  1.
         -6    2    1    2    0  503 -0.15047422646E+03 -0.82521743545E+02 -0.10568238094E+03  0.26639533264E+03  0.17419924405E+03 0.  0.
        -24    2    3    3    0    0 -0.10289891641E+03 -0.12313539295E+03 -0.61491779398E+02  0.18966347545E+03  0.80252619820E+02 0.  0.
          6    2    1    2  501    0  0.15047422646E+03  0.82521743545E+02  0.78166996100E+03  0.81895766474E+03  0.17387178526E+03 0.  0.
         24    2    5    5    0    0  0.10794136938E+03  0.26649203324E+02  0.69101548107E+03  0.70419221081E+03  0.77606413578E+02 0.  0.
          5    1    5    5  501    0  0.42532857090E+02  0.55872540221E+02  0.90654479931E+02  0.11476545392E+03  0.47000000000E+01 0. -1.
        -13    1    6    6    0    0  0.14935627843E+02  0.30203662756E+02  0.31634313720E+03  0.31813254262E+03  0.00000000000E+00 0.  1.
         14    1    6    6    0    0  0.93005741532E+02 -0.35544594322E+01  0.37467234388E+03  0.38605966819E+03  0.00000000000E+00 0. -1.
         -5    1    3    3    0  503 -0.47575310050E+02  0.40613649409E+02 -0.44190601538E+02  0.76731857197E+02  0.47000000000E+01 0.  1.
         13    1    4    4    0    0 -0.51530872901E+02 -0.59028069908E+02  0.12205860992E+02  0.79301493943E+02  0.00000000000E+00 0. -1.
        -14    1    4    4    0    0 -0.51368043513E+02 -0.64107323046E+02 -0.73697640390E+02  0.11036198150E+03  0.00000000000E+00 0.  1.
</event>
<event>
12    1  0.8563264E-002  0.2180388E+03  0.7818608E-02  0.1136014E+00
         21   -1    0    0  501  502  0.00000000000E+00  0.00000000000E+00  0.18122682107E+03  0.18122682107E+03  0.00000000000E+00 0. -1.
         21   -1    0    0  502  503 -0.00000000000E+00 -0.00000000000E+00 -0.38566520566E+03  0.38566520566E+03  0.00000000000E+00 0.  1.
         -6    2    1    2    0  503  0.33855115725E+02  0.12447581355E+03 -0.26573634470E+03  0.34373930516E+03  0.17578540325E+03 0.  0.
        -24    2    3    3    0    0  0.98502927000E+00 -0.25727869158E+01 -0.96803141973E+02  0.12977130183E+03  0.86383754074E+02 0.  0.
          6    2    1    2  501    0 -0.33855115725E+02 -0.12447581355E+03  0.61297960110E+02  0.22315272157E+03  0.17146224135E+03 0.  0.
         24    2    5    5    0    0 -0.30158620270E+02 -0.26610721873E+02 -0.26463164224E+02  0.91564936451E+02  0.77885593221E+02 0.  0.
          5    1    5    5  501    0 -0.36964954557E+01 -0.97865091678E+02  0.87761124334E+02  0.13158778512E+03  0.47000000000E+01 0. -1.
        -13    1    6    6    0    0  0.49698747298E+01  0.24357756135E+02 -0.13616317821E+02  0.28344383038E+02  0.00000000000E+00 0.  1.
         14    1    6    6    0    0 -0.35128494999E+02 -0.50968478008E+02 -0.12846846403E+02  0.63220553413E+02  0.00000000000E+00 0. -1.
         -5    1    3    3    0  503  0.32870086455E+02  0.12704860047E+03 -0.16893320273E+03  0.21396800333E+03  0.47000000000E+01 0.  1.
         11    1    4    4    0    0 -0.13592100379E+02  0.33299023684E+02 -0.14432917854E+02  0.38754087382E+02  0.00000000000E+00 0. -1.
        -12    1    4    4    0    0  0.14577129649E+02 -0.35871810600E+02 -0.82370224119E+02  0.91017214449E+02  0.00000000000E+00 0.  1.
</event>
<event>
12    1  0.8563264E-002  0.2187721E+03  0.7818608E-02  0.1134984E+00
         21   -1    0    0  503  502  0.00000000000E+00  0.00000000000E+00  0.13222993410E+04  0.13222993410E+04  0.00000000000E+00 0. -1.
         21   -1    0    0  501  503 -0.00000000000E+00 -0.00000000000E+00 -0.39279228228E+02  0.39279228228E+02  0.00000000000E+00 0. -1.
          6    2    1    2  501    0 -0.43738120940E+02 -0.12806751024E+03  0.44718111483E+03  0.49782746786E+03  0.17189219846E+03 0.  0.
         24    2    3    3    0    0 -0.47228746274E+02 -0.15366651932E+03  0.31220757172E+03  0.36032313676E+03  0.80717045349E+02 0.  0.
         -6    2    1    2    0  502  0.43738120940E+02  0.12806751024E+03  0.83583899799E+03  0.86375110141E+03  0.17065996670E+03 0.  0.
        -24    2    5    5    0    0 -0.17393264767E+02  0.73867356359E+01  0.31258660210E+03  0.32327348349E+03  0.80238842157E+02 0.  0.
          5    1    3    3  501    0  0.34906253341E+01  0.25599009082E+02  0.13497354312E+03  0.13750433111E+03  0.47000000000E+01 0. -1.
        -13    1    4    4    0    0 -0.15277228182E+02 -0.11001221917E+02  0.10533469521E+03  0.10700382516E+03  0.00000000000E+00 0.  1.
         14    1    4    4    0    0 -0.31951518092E+02 -0.14266529741E+03  0.20687287651E+03  0.25331931159E+03  0.00000000000E+00 0. -1.
         -5    1    5    5    0  502  0.61131385707E+02  0.12068077461E+03  0.52325239588E+03  0.54047761792E+03  0.47000000000E+01 0.  1.
         13    1    6    6    0    0 -0.36687291839E+02  0.21901389804E+02  0.92790756704E+02  0.10215553234E+03  0.00000000000E+00 0. -1.
        -14    1    6    6    0    0  0.19294027072E+02 -0.14514654168E+02  0.21979584540E+03  0.22111795115E+03  0.00000000000E+00 0.  1.
</event>
<event>
12    1  0.8563264E-002  0.2530110E+03  0.7818608E-02  0.1111538E+00
         21   -1    0    0  503  502  0.00000000000E+00  0.00000000000E+00  0.12840808150E+03  0.12840808150E+03  0.00000000000E+00 0. -1.
         21   -1    0    0  501  503 -0.00000000000E+00 -0.00000000000E+00 -0.58388872009E+03  0.58388872009E+03  0.00000000000E+00 0.  1.
          6    2    1    2  501    0  0.57627262453E+02  0.17646942768E+03 -0.36483474572E+03  0.44353808860E+03  0.17076089737E+03 0.  0.
         24    2    3    3    0    0 -0.18062233164E+02  0.46451019097E+02 -0.19897301762E+03  0.21956065856E+03  0.78311427043E+02 0.  0.
         -6    2    1    2    0  502 -0.57627262453E+02 -0.17646942768E+03 -0.90645892868E+02  0.26875871299E+03  0.17190755548E+03 0.  0.
        -24    2    5    5    0    0  0.24889375861E+02 -0.95010848171E+02 -0.69538444536E+02  0.15080910447E+03  0.90891410059E+02 0.  0.
          5    1    3    3  501    0  0.75689495617E+02  0.13001840858E+03 -0.16586172810E+03  0.22397743004E+03  0.47000000000E+01 0. -1.
        -13    1    4    4    0    0 -0.13314244570E+02  0.38998132978E+02 -0.31536171041E+02  0.51890785003E+02  0.00000000000E+00 0.  1.
         14    1    4    4    0    0 -0.47479885945E+01  0.74528861189E+01 -0.16743684658E+03  0.16766987356E+03  0.00000000000E+00 0. -1.
         -5    1    5    5    0  502 -0.82516638314E+02 -0.81458579509E+02 -0.21107448332E+02  0.11794960852E+03  0.47000000000E+01 0.  1.
         13    1    6    6    0    0 -0.10065372106E+02 -0.53898601589E+02  0.89535131351E+01  0.55556605065E+02  0.00000000000E+00 0. -1.
        -14    1    6    6    0    0  0.34954747967E+02 -0.41112246582E+02 -0.78491957671E+02  0.95252499408E+02  0.00000000000E+00 0.  1.
</event>
<event>
12    1  0.8563264E-002  0.1906568E+03  0.7818608E-02  0.1158104E+00
         21   -1    0    0  501  502  0.00000000000E+00  0.00000000000E+00  0.21674112500E+04  0.21674112500E+04  0.00000000000E+00 0.  1.
         21   -1    0    0  502  503 -0.00000000000E+00 -0.00000000000E+00 -0.20592537592E+02  0.20592537592E+02  0.00000000000E+00 0.  1.
         -6    2    1    2    0  503  0.76985777708E+02 -0.22376681306E+02  0.59418332906E+03  0.62370629969E+03  0.17183769642E+03 0.  0.
        -24    2    3    3    0    0  0.85531535526E+01  0.45250052318E+02  0.30309644432E+03  0.31709569385E+03  0.81003091472E+02 0.  0.
          6    2    1    2  501    0 -0.76985777708E+02  0.22376681306E+02  0.15526353833E+04  0.15642974879E+04  0.17298112954E+03 0.  0.
         24    2    5    5    0    0 -0.10591217190E+03 -0.47969925980E+01  0.81251679420E+03  0.82310064438E+03  0.77914893497E+02 0.  0.
          5    1    5    5  501    0  0.28926394189E+02  0.27173673904E+02  0.74011858912E+03  0.74119684349E+03  0.47000000000E+01 0. -1.
        -11    1    6    6    0    0 -0.84692350460E+02 -0.11398300634E+02  0.77344099300E+03  0.77814759856E+03  0.00000000000E+00 0.  1.
         12    1    6    6    0    0 -0.21219821437E+02  0.66013080358E+01  0.39075801201E+02  0.44953045826E+02  0.00000000000E+00 0. -1.
         -5    1    3    3    0  503  0.68432624155E+02 -0.67626733624E+02  0.29108688474E+03  0.30661060584E+03  0.47000000000E+01 0.  1.
         13    1    4    4    0    0 -0.11477393755E+02 -0.18630098863E+01  0.21417350232E+03  0.21448890523E+03  0.00000000000E+00 0. -1.
        -14    1    4    4    0    0  0.20030547308E+02  0.47113062205E+02  0.88922942001E+02  0.10260678861E+03  0.00000000000E+00 0.  1.
</event>
<event>
12    1  0.8563264E-002  0.2046903E+03  0.7818608E-02  0.1145929E+00
         21   -1    0    0  501  502  0.00000000000E+00  0.00000000000E+00  0.57196285250E+03  0.57196285250E+03  0.00000000000E+00 0.  1.
         21   -1    0    0  502  503 -0.00000000000E+00 -0.00000000000E+00 -0.35448380502E+03  0.35448380502E+03  0.00000000000E+00 0. -1.
         -6    2    1    2    0  503  0.33384210518E+02 -0.10781138078E+03 -0.30394371727E+03  0.36644224167E+03  0.17076397125E+03 0.  0.
        -24    2    3    3    0    0 -0.49493102943E+01 -0.13139594837E+03 -0.26513970292E+03  0.30683073124E+03  0.80973110654E+02 0.  0.
          6    2    1    2  501    0 -0.33384210518E+02  0.10781138078E+03  0.52142276475E+03  0.56000441585E+03  0.17025112873E+03 0.  0.
         24    2    5    5    0    0  0.14771539088E+02  0.69427347883E+02  0.15602025877E+03  0.18941921433E+03  0.80616143622E+02 0.  0.
          5    1    5    5  501    0 -0.48155749606E+02  0.38384032898E+02  0.36540250599E+03  0.37058520152E+03  0.47000000000E+01 0. -1.
        -11    1    6    6    0    0 -0.36312891095E+01  0.76001152314E+02  0.15124016361E+03  0.16930135411E+03  0.00000000000E+00 0.  1.
         12    1    6    6    0    0  0.18402828197E+02 -0.65738044308E+01  0.47800951527E+01  0.20117860225E+02  0.00000000000E+00 0. -1.
         -5    1    3    3    0  503  0.38333520813E+02  0.23584567590E+02 -0.38804014349E+02  0.59611510432E+02  0.47000000000E+01 0.  1.
         11    1    4    4    0    0 -0.28713206000E+02 -0.75548344114E+02 -0.20928279185E+03  0.22434635603E+03  0.00000000000E+00 0. -1.
        -12    1    4    4    0    0  0.23763895706E+02 -0.55847604258E+02 -0.55856911067E+02  0.82484375214E+02  0.00000000000E+00 0.  1.
</event>
<event>
12    1  0.8563264E-002  0.1809244E+03  0.7818608E-02  0.1167134E+00
         21   -1    0    0  503  502  0.00000000000E+00  0.00000000000E+00  0.16945892305E+03  0.16945892305E+03  0.00000000000E+00 0.  1.
         21   -1    0    0  501  503 -0.00000000000E+00 -0.00000000000E+00 -0.29407300807E+03  0.29407300807E+03  0.00000000000E+00 0. -1.
          6    2    1    2  501    0  0.15087792859E+02 -0.56533300967E+02 -0.19862815308E+03  0.26805373661E+03  0.17022340293E+03 0.  0.
         24    2    3    3    0    0 -0.49841246213E+02 -0.34837712033E+02 -0.16271881965E+03  0.19060666487E+03  0.78458080658E+02 0.  0.
         -6    2    1    2    0  502 -0.15087792859E+02  0.56533300967E+02  0.74014068055E+02  0.19547819451E+03  0.17120159650E+03 0.  0.
        -24    2    5    5    0    0 -0.55435145239E+02  0.45061983495E+01  0.80777511203E+02  0.12912638659E+03  0.83995572775E+02 0.  0.
          5    1    3    3  501    0  0.64929039072E+02 -0.21695588934E+02 -0.35909333430E+02  0.77447071742E+02  0.47000000000E+01 0. -1.
        -11    1    4    4    0    0 -0.13735822039E+00 -0.12582948390E+02  0.55437036143E+01  0.13750712972E+02  0.00000000000E+00 0.  1.
         12    1    4    4    0    0 -0.49703887992E+02 -0.22254763643E+02 -0.16826252326E+03  0.17685595190E+03  0.00000000000E+00 0. -1.
         -5    1    5    5    0  502  0.40347352380E+02  0.52027102617E+02 -0.67634431478E+01  0.66351807918E+02  0.47000000000E+01 0.  1.
         11    1    6    6    0    0 -0.55012349633E+02 -0.20645722165E+02  0.17933441095E+02  0.61434621879E+02  0.00000000000E+00 0. -1.
        -12    1    6    6    0    0 -0.42279560564E+00  0.25151920515E+02  0.62844070107E+02  0.67691764709E+02  0.00000000000E+00 0.  1.
</event>
<event>
12    1  0.8563264E-002  0.2185861E+03  0.7818608E-02  0.1135080E+00
         21   -1    0    0  503  502  0.00000000000E+00  0.00000000000E+00  0.37311202539E+03  0.37311202539E+03  0.00000000000E+00 0.  1.
         21   -1    0    0  501  503 -0.00000000000E+00 -0.00000000000E+00 -0.17383513134E+03  0.17383513134E+03  0.00000000000E+00 0.  1.
          6    2    1    2  501    0 -0.56506526709E+02  0.12247537268E+03 -0.41482274610E+02  0.22176279003E+03  0.17106943462E+03 0.  0.
         24    2    3    3    0    0 -0.60974422594E+02  0.12789946928E+03 -0.79832072370E+02  0.18249219154E+03  0.82789405980E+02 0.  0.
         -6    2    1    2    0  502  0.56506526709E+02 -0.12247537268E+03  0.24075916866E+03  0.32518436671E+03  0.17200782128E+03 0.  0.
        -24    2    5    5    0    0  0.47024304611E+02  0.76699474824E+01  0.10995064886E+03  0.14035829780E+03  0.73083467742E+02 0.  0.
          5    1    3    3  501    0  0.44678958851E+01 -0.54240965935E+01  0.38349797761E+02  0.39270598490E+02  0.47000000000E+01 0. -1.
        -11    1    4    4    0    0 -0.20681575661E+02  0.12004550990E+03 -0.49669117743E+02  0.13155102917E+03  0.00000000000E+00 0.  1.
         12    1    4    4    0    0 -0.40292846933E+02  0.78539593797E+01 -0.30162954628E+02  0.50941162371E+02  0.00000000000E+00 0. -1.
         -5    1    5    5    0  502  0.94822220985E+01 -0.13014532017E+03  0.13080851980E+03  0.18482606891E+03  0.47000000000E+01 0.  1.
         11    1    6    6    0    0  0.31073125275E+02  0.16388129679E+02  0.70068882344E+01  0.35821870295E+02  0.00000000000E+00 0. -1.
        -12    1    6    6    0    0  0.15951179335E+02 -0.87181821964E+01  0.10294376063E+03  0.10453642750E+03  0.00000000000E+00 0.  1.
</event>
<event>
12    1  0.8563264E-002  0.1970832E+03  0.7818608E-02  0.1152347E+00
         21   -1    0    0  503  502  0.00000000000E+00  0.00000000000E+00  0.64663860032E+03  0.64663860032E+03  0.00000000000E+00 0.  1.
         21   -1    0    0  501  503 -0.00000000000E+00 -0.00000000000E+00 -0.88930908840E+02  0.88930908840E+02  0.00000000000E+00 0.  1.
          6    2    1    2  501    0  0.97071520387E+02  0.60446976543E+01  0.68420207904E+02  0.20808110577E+03  0.17075421894E+03 0.  0.
         24    2    3    3    0    0  0.11111706861E+03  0.12088379002E+01  0.10271383311E+03  0.17041406852E+03  0.78373203408E+02 0.  0.
         -6    2    1    2    0  502 -0.97071520387E+02 -0.60446976543E+01  0.48928748357E+03  0.52748840339E+03  0.17141282242E+03 0.  0.
        -24    2    5    5    0    0 -0.35800866528E+02  0.57976473134E+02  0.31934936701E+03  0.33577544923E+03  0.78218671764E+02 0.  0.
          5    1    3    3  501    0 -0.14045548223E+02  0.48358597541E+01 -0.34293625211E+02  0.37667037241E+02  0.47000000000E+01 0. -1.
        -11    1    4    4    0    0  0.77191625791E+02 -0.17089191562E+02  0.23760274778E+02  0.82553850413E+02  0.00000000000E+00 0.  1.
         12    1    4    4    0    0  0.33925442819E+02  0.18298029462E+02  0.78953558336E+02  0.87860218112E+02  0.00000000000E+00 0. -1.
         -5    1    5    5    0  502 -0.61270653858E+02 -0.64021170788E+02  0.16993811656E+03  0.19171295416E+03  0.47000000000E+01 0.  1.
         13    1    6    6    0    0 -0.45465290598E+02  0.37480893731E+02  0.10641741639E+03  0.12164117952E+03  0.00000000000E+00 0. -1.
        -14    1    6    6    0    0  0.96644240694E+01  0.20495579403E+02  0.21293195062E+03  0.21413426971E+03  0.00000000000E+00 0.  1.
</event>
<event>
12    1  0.8563264E-002  0.2288691E+03  0.7818608E-02  0.1128041E+00
         21   -1    0    0  503  502  0.00000000000E+00  0.00000000000E+00  0.19590806849E+03  0.19590806849E+03  0.00000000000E+00 0. -1.
         21   -1    0    0  501  503 -0.00000000000E+00 -0.00000000000E+00 -0.27261477987E+03  0.27261477987E+03  0.00000000000E+00 0. -1.
          6    2    1    2  501    0 -0.11074379891E+03 -0.95461677535E+02 -0.81032855458E+02  0.23961288225E+03  0.17167087348E+03 0.  0.
         24    2    3    3    0    0 -0.23787363288E+02 -0.83772912454E+01 -0.56622585152E+01  0.95224763227E+02  0.91649750132E+02 0.  0.
         -6    2    1    2    0  502  0.11074379891E+03  0.95461677535E+02  0.43261440766E+01  0.22890996611E+03  0.17607934628E+03 0.  0.
        -24    2    5    5    0    0  0.13122090637E+03  0.63113389869E+02 -0.38482901974E+02  0.17128681045E+03  0.81584382331E+02 0.  0.
          5    1    3    3  501    0 -0.86956435624E+02 -0.87084386290E+02 -0.75370596943E+02  0.14438811902E+03  0.47000000000E+01 0. -1.
        -13    1    4    4    0    0  0.21354067418E+01 -0.21497414255E+02  0.37451236027E+02  0.43235331172E+02  0.00000000000E+00 0.  1.
         14    1    4    4    0    0 -0.25922770029E+02  0.13120123010E+02 -0.43113494542E+02  0.51989432055E+02  0.00000000000E+00 0. -1.
         -5    1    5    5    0  502 -0.20477107454E+02  0.32348287667E+02  0.42809046051E+02  0.57623155662E+02  0.47000000000E+01 0.  1.
         11    1    6    6    0    0  0.59317201204E+02  0.54926006449E+02  0.13795966896E+02  0.82010519117E+02  0.00000000000E+00 0. -1.
        -12    1    6    6    0    0  0.71903705161E+02  0.81873834194E+01 -0.52278868871E+02  0.89276291329E+02  0.00000000000E+00 0.  1.
</event>
<event>
12    1  0.8563264E-002  0.1869050E+03  0.7818608E-02  0.1161696E+00
         21   -1    0    0  503  502  0.00000000000E+00  0.00000000000E+00  0.23179241109E+03  0.23179241109E+03  0.00000000000E+00 0.  1.
         21   -1    0    0  501  503 -0.00000000000E+00 -0.00000000000E+00 -0.16459298857E+03  0.16459298857E+03  0.00000000000E+00 0.  1.
          6    2    1    2  501    0 -0.19668450673E+02  0.69678035239E+02 -0.27011369704E+02  0.18707901786E+03  0.17037332034E+03 0.  0.
         24    2    3    3    0    0  0.16104813550E+02  0.10149238395E+03  0.67767438938E+01  0.12829461655E+03  0.76508269866E+02 0.  0.
         -6    2    1    2    0  502  0.19668450673E+02 -0.69678035239E+02  0.94210792220E+02  0.20930638181E+03  0.17231254031E+03 0.  0.
        -24    2    5    5    0    0 -0.44837723075E+02 -0.43166884642E+02  0.95952160895E+02  0.13938492643E+03  0.79671445292E+02 0.  0.
          5    1    3    3  501    0 -0.35773264223E+02 -0.31814348708E+02 -0.33788113598E+02  0.58784401310E+02  0.47000000000E+01 0. -1.
        -13    1    4    4    0    0  0.20919621542E+02 -0.25789352525E+01 -0.90095215861E+01  0.22922760560E+02  0.00000000000E+00 0.  1.
         14    1    4    4    0    0 -0.48148079918E+01  0.10407131920E+03  0.15786265480E+02  0.10537185599E+03  0.00000000000E+00 0. -1.
         -5    1    5    5    0  502  0.64506173748E+02 -0.26511150597E+02 -0.17413686751E+01  0.69921455380E+02  0.47000000000E+01 0.  1.
         11    1    6    6    0    0 -0.15815776618E+02  0.15966912309E+02 -0.62451773996E+00  0.22482684473E+02  0.00000000000E+00 0. -1.
        -12    1    6    6    0    0 -0.29021946456E+02 -0.59133796951E+02  0.96576678635E+02  0.11690224196E+03  0.00000000000E+00 0.  1.
</event>
<event>
12    1  0.8563264E-002  0.1759562E+03  0.7818608E-02  0.1172252E+00
         21   -1    0    0  501  502  0.00000000000E+00  0.00000000000E+00  0.11637945363E+03  0.11637945363E+03  0.00000000000E+00 0. -1.
         21   -1    0    0  502  503 -0.00000000000E+00 -0.00000000000E+00 -0.29201473576E+03  0.29201473576E+03  0.00000000000E+00 0. -1.
         -6    2    1    2    0  503 -0.36189408460E+02  0.61895075296E+01 -0.24060707076E+02  0.17759364374E+03  0.17208312347E+03 0.  0.
        -24    2    3    3    0    0  0.18445626868E+02  0.26431881972E+01  0.40882928411E+02  0.92521149617E+02  0.80879674187E+02 0.  0.
          6    2    1    2  501    0  0.36189408460E+02 -0.61895075296E+01 -0.15157457505E+03  0.23080054565E+03  0.17013540719E+03 0.  0.
         24    2    5    5    0    0  0.31428410118E+02 -0.69939540735E+02 -0.10113213374E+03  0.14923300477E+03  0.78507941744E+02 0.  0.
          5    1    5    5  501    0  0.47609983416E+01  0.63750033205E+02 -0.50442441318E+02  0.81567540879E+02  0.47000000000E+01 0. -1.
        -13    1    6    6    0    0  0.51107876685E+02 -0.19528301314E+02 -0.60435710565E+02  0.81522050533E+02  0.00000000000E+00 0.  1.
         14    1    6    6    0    0 -0.19679466568E+02 -0.50411239421E+02 -0.40696423171E+02  0.67710954234E+02  0.00000000000E+00 0. -1.
         -5    1    3    3    0  503 -0.54635035327E+02  0.35463193324E+01 -0.64943635487E+02  0.85072494123E+02  0.47000000000E+01 0.  1.
         11    1    4    4    0    0 -0.82044003269E+01 -0.12821414427E+02  0.56119872592E+02  0.58147579076E+02  0.00000000000E+00 0. -1.
        -12    1    4    4    0    0  0.26650027195E+02  0.15464602624E+02 -0.15236944181E+02  0.34373570541E+02  0.00000000000E+00 0.  1.
</event>
<event>
12    1  0.8563264E-002  0.1726752E+03  0.7818608E-02  0.1175950E+00
         21   -1    0    0  501  502  0.00000000000E+00  0.00000000000E+00  0.58112270856E+02  0.58112270856E+02  0.00000000000E+00 0. -1.
         21   -1    0    0  502  503 -0.00000000000E+00 -0.00000000000E+00 -0.13730787081E+04  0.13730787081E+04  0.00000000000E+00 0. -1.
         -6    2    1    2    0  503 -0.16440762981E+02 -0.32644434142E+01 -0.12246900107E+04  0.12363409272E+04  0.16850017977E+03 0.  0.
        -24    2    3    3    0    0  0.98529193761E+01  0.41367418567E+02 -0.10537283421E+04  0.10576418981E+04  0.80340665022E+02 0.  0.
          6    2    1    2  501    0  0.16440762981E+02  0.32644434142E+01 -0.90276426544E+02  0.19485005180E+03  0.17185969341E+03 0.  0.
         24    2    5    5    0    0 -0.51722430308E+02  0.23919398792E+02 -0.45671238559E+02  0.11068021815E+03  0.83167909814E+02 0.  0.
          5    1    5    5  501    0  0.68163193288E+02 -0.20654955378E+02 -0.44605187985E+02  0.84169833646E+02  0.47000000000E+01 0. -1.
        -13    1    6    6    0    0  0.16951602937E+02  0.12555546463E+02 -0.34128558382E+02  0.40121778206E+02  0.00000000000E+00 0.  1.
         14    1    6    6    0    0 -0.68674033244E+02  0.11363852329E+02 -0.11542680177E+02  0.70558439945E+02  0.00000000000E+00 0. -1.
         -5    1    3    3    0  503 -0.26293682357E+02 -0.44631861982E+02 -0.17096166865E+03  0.17869902905E+03  0.47000000000E+01 0.  1.
         13    1    4    4    0    0 -0.33030254907E+02  0.27882122781E+01 -0.40477304636E+03  0.40612804745E+03  0.00000000000E+00 0. -1.
        -14    1    4    4    0    0  0.42883174283E+02  0.38579206289E+02 -0.64895529570E+03  0.65151385066E+03  0.00000000000E+00 0.  1.
</event>
<event>
12    1  0.8563264E-002  0.1875362E+03  0.7818608E-02  0.1160877E+00
         21   -1    0    0  501  502  0.00000000000E+00  0.00000000000E+00  0.14005228389E+03  0.14005228389E+03  0.00000000000E+00 0.  1.
         21   -1    0    0  502  503 -0.00000000000E+00 -0.00000000000E+00 -0.27764528184E+03  0.27764528184E+03  0.00000000000E+00 0.  1.
         -6    2    1    2    0  503 -0.65991034036E+02 -0.33104953880E+02 -0.13445002123E+03  0.23013498185E+03  0.17156499386E+03 0.  0.
        -24    2    3    3    0    0  0.10222572467E+01 -0.72685697456E+02 -0.66901431406E+02  0.12697336856E+03  0.79763269582E+02 0.  0.
          6    2    1    2  501    0  0.65991034036E+02  0.33104953880E+02 -0.31429767207E+01  0.18756258387E+03  0.17239225627E+03 0.  0.
         24    2    5    5    0    0  0.47442329067E+02  0.10143175915E+02  0.64527738654E+02  0.11358479381E+03  0.79900048336E+02 0.  0.
          5    1    5    5  501    0  0.18548704969E+02  0.22961777964E+02 -0.67670715375E+02  0.73977790063E+02  0.47000000000E+01 0. -1.
        -11    1    6    6    0    0 -0.16936152087E+02  0.22091167308E+02  0.16239051787E+02  0.32226692717E+02  0.00000000000E+00 0.  1.
         12    1    6    6    0    0  0.64378481154E+02 -0.11947991393E+02  0.48288686867E+02  0.81358101093E+02  0.00000000000E+00 0. -1.
         -5    1    3    3    0  503 -0.67013291282E+02  0.39580743576E+02 -0.67548589822E+02  0.10316161329E+03  0.47000000000E+01 0.  1.
         11    1    4    4    0    0 -0.19608814945E+02 -0.14457481725E+02  0.11679846129E+02  0.27017461149E+02  0.00000000000E+00 0. -1.
        -12    1    4    4    0    0  0.20631072191E+02 -0.58228215731E+02 -0.78581277535E+02  0.99955907409E+02  0.00000000000E+00 0.  1.
</event>
<event>
12    1  0.8563264E-002  0.1909395E+03  0.7818608E-02  0.1157842E+00
         21   -1    0    0  501  502  0.00000000000E+00  0.00000000000E+00  0.78694833505E+03  0.78694833505E+03  0.00000000000E+00 0.  1.
         21   -1    0    0  502  503 -0.00000000000E+00 -0.00000000000E+00 -0.56085543952E+02  0.56085543952E+02  0.00000000000E+00 0. -1.
         -6    2    1    2    0  503 -0.16686797255E+02 -0.78262728881E+02  0.18823388676E+03  0.26812290057E+03  0.17336201934E+03 0.  0.
        -24    2    3    3    0    0  0.40951534273E+02  0.19894784733E+01  0.11281638457E+03  0.14373446187E+03  0.79063725670E+02 0.  0.
          6    2    1    2  501    0  0.16686797255E+02  0.78262728881E+02  0.54262890434E+03  0.57491097844E+03  0.17225853060E+03 0.  0.
         24    2    5    5    0    0  0.29508805835E+02  0.11747022847E+03  0.46342752407E+03  0.48548737660E+03  0.79138477217E+02 0.  0.
          5    1    5    5  501    0 -0.12822008580E+02 -0.39207499587E+02  0.79201380277E+02  0.89423601838E+02  0.47000000000E+01 0. -1.
        -13    1    6    6    0    0 -0.13049752307E+02  0.29896155417E+02  0.23387040386E+03  0.23613437265E+03  0.00000000000E+00 0.  1.
         14    1    6    6    0    0  0.42558558142E+02  0.87574073052E+02  0.22955712021E+03  0.24935300395E+03  0.00000000000E+00 0. -1.
         -5    1    3    3    0  503 -0.57638331528E+02 -0.80252207355E+02  0.75417502188E+02  0.12438843870E+03  0.47000000000E+01 0.  1.
         13    1    4    4    0    0  0.26242433096E+02  0.19565413660E+02  0.45252796723E+01  0.33044649530E+02  0.00000000000E+00 0. -1.
        -14    1    4    4    0    0  0.14709101177E+02 -0.17575935187E+02  0.10829110490E+03  0.11068981234E+03  0.00000000000E+00 0.  1.
</event>
<event>
12    1  0.8563264E-002  0.1750035E+03  0.7818608E-02  0.1172982E+00
         21   -1    0    0  501  502  0.00000000000E+00  0.00000000000E+00  0.59323241758E+02  0.59323241758E+02  0.00000000000E+00 0.  1.
         21   -1    0    0  502  503 -0.00000000000E+00 -0.00000000000E+00 -0.61706579967E+03  0.61706579967E+03  0.00000000000E+00 0.  1.
         -6    2    1    2    0  503  0.17993283856E+02 -0.13398578755E+02 -0.41822706373E+03  0.45336532396E+03  0.17355967260E+03 0.  0.
        -24    2    3    3    0    0  0.31450447288E+02 -0.72947808999E+02 -0.29546877339E+03  0.31618335023E+03  0.79747109274E+02 0.  0.
          6    2    1    2  501    0 -0.17993283856E+02  0.13398578755E+02 -0.13951549419E+03  0.22302371747E+03  0.17254485000E+03 0.  0.
         24    2    5    5    0    0  0.36991537392E+02 -0.40288308251E+02 -0.77139852576E+02  0.12393576124E+03  0.80112386301E+02 0.  0.
          5    1    5    5  501    0 -0.54984821249E+02  0.53686887006E+02 -0.62375641610E+02  0.99087956233E+02  0.47000000000E+01 0. -1.
        -11    1    6    6    0    0  0.16820267885E+02 -0.53349758950E+01  0.15118646554E+02  0.23236971686E+02  0.00000000000E+00 0.  1.
         12    1    6    6    0    0  0.20171269507E+02 -0.34953332356E+02 -0.92258499130E+02  0.10069878956E+03  0.00000000000E+00 0. -1.
         -5    1    3    3    0  503 -0.13457163431E+02  0.59549230244E+02 -0.12275829034E+03  0.13718197373E+03  0.47000000000E+01 0.  1.
         11    1    4    4    0    0 -0.22778014493E+02 -0.44965646319E+02 -0.11166209257E+03  0.12251191864E+03  0.00000000000E+00 0. -1.
        -12    1    4    4    0    0  0.54228461781E+02 -0.27982162680E+02 -0.18380668082E+03  0.19367143158E+03  0.00000000000E+00 0.  1.
</event>
<event>
12    1  0.8563264E-002  0.1865842E+03  0.7818608E-02  0.1161583E+00
         21   -1    0    0  503  502  0.00000000000E+00  0.00000000000E+00  0.66721384565E+02  0.66721384565E+02  0.00000000000E+00 0.  1.
         21   -1    0    0  501  503 -0.00000000000E+00 -0.00000000000E+00 -0.59688120641E+03  0.59688120641E+03  0.00000000000E+00 0.  1.
          6    2    1    2  501    0 -0.36798955617E+02 -0.62985375226E+02 -0.14732533791E+03  0.23772008265E+03  0.17171127476E+03 0.  0.
         24    2    3    3    0    0 -0.38577080739E+01 -0.10115775771E+03 -0.74384842224E+02  0.14892446066E+03  0.79985100955E+02 0.  0.
         -6    2    1    2    0  502  0.36798955617E+02  0.62985375226E+02 -0.38283448393E+03  0.42588250832E+03  0.17173336360E+03 0.  0.
        -24    2    5    5    0    0  0.28872705896E+02  0.10928692192E+03 -0.25438326776E+03  0.28903053136E+03  0.77785195850E+02 0.  0.
          5    1    3    3  501    0 -0.32941247543E+02  0.38172382485E+02 -0.72940495682E+02  0.88795621990E+02  0.47000000000E+01 0. -1.
        -13    1    4    4    0    0 -0.94203576875E+01  0.12014478487E+02 -0.50281692579E+01  0.16073995096E+02  0.00000000000E+00 0.  1.
         14    1    4    4    0    0  0.55626496136E+01 -0.11317223620E+03 -0.69356672966E+02  0.13285046557E+03  0.00000000000E+00 0. -1.
         -5    1    5    5    0  502  0.79262497206E+01 -0.46301546690E+02 -0.12845121618E+03  0.13685197696E+03  0.47000000000E+01 0.  1.
         13    1    6    6    0    0  0.11052193966E+02  0.95984154573E+02 -0.12623278840E+03  0.15896485709E+03  0.00000000000E+00 0. -1.
        -14    1    6    6    0    0  0.17820511930E+02  0.13302767344E+02 -0.12815047936E+03  0.13006567427E+03  0.00000000000E+00 0.  1.
</event>
<event>
12    1  0.8563264E-002  0.6813841E+03  0.7818608E-02  0.9749912E-01
         21   -1    0    0  501  502  0.00000000000E+00  0.00000000000E+00  0.83110854529E+03  0.83110854529E+03  0.00000000000E+00 0. -1.
         21   -1    0    0  502  503 -0.00000000000E+00 -0.00000000000E+00 -0.61068029569E+03  0.61068029569E+03  0.00000000000E+00 0.  1.
         -6    2    1    2    0  503  0.23201685778E+03  0.61704236181E+03 -0.10143087922E+03  0.68821232163E+03  0.16963159441E+03 0.  0.
        -24    2    3    3    0    0  0.16347691721E+03  0.50819609102E+03 -0.13221999084E+03  0.55586696466E+03  0.80734051243E+02 0.  0.
          6    2    1    2  501    0 -0.23201685778E+03 -0.61704236181E+03  0.32185912882E+03  0.75357651935E+03  0.17236929293E+03 0.  0.
         24    2    5    5    0    0 -0.55684479495E+02 -0.11343893521E+03  0.72326594193E+02  0.16451107753E+03  0.76574180521E+02 0.  0.
          5    1    5    5  501    0 -0.17633237828E+03 -0.50360342660E+03  0.24953253463E+03  0.58906544182E+03  0.47000000000E+01 0. -1.
        -11    1    6    6    0    0 -0.13550118424E+02 -0.78544706914E+01  0.44921320459E+02  0.47573348116E+02  0.00000000000E+00 0.  1.
         12    1    6    6    0    0 -0.42134361072E+02 -0.10558446452E+03  0.27405273733E+02  0.11693772941E+03  0.00000000000E+00 0. -1.
         -5    1    3    3    0  503  0.68539940571E+02  0.10884627079E+03  0.30789111617E+02  0.13234535697E+03  0.47000000000E+01 0.  1.
         11    1    4    4    0    0  0.11127084869E+03  0.43615869974E+03 -0.98890899110E+02  0.46086334531E+03  0.00000000000E+00 0. -1.
        -12    1    4    4    0    0  0.52206068521E+02  0.72037391284E+02 -0.33329091727E+02  0.95003619346E+02  0.00000000000E+00 0.  1.
</event>
<event>
12    1  0.8563264E-002  0.2946266E+03  0.7818608E-02  0.1087962E+00
         21   -1    0    0  503  502  0.00000000000E+00  0.00000000000E+00  0.47146522544E+03  0.47146522544E+03  0.00000000000E+00 0. -1.
         21   -1    0    0  501  503 -0.00000000000E+00 -0.00000000000E+00 -0.23069551758E+03  0.23069551758E+03  0.00000000000E+00 0. -1.
          6    2    1    2  501    0  0.80751953385E+02  0.22535031553E+03 -0.37398638313E+02  0.29699075345E+03  0.17175915348E+03 0.  0.
         24    2    3    3    0    0 -0.17233186296E+02  0.10028506838E+03 -0.45331297180E+02  0.13784484330E+03  0.81192343665E+02 0.  0.
         -6    2    1    2    0  502 -0.80751953385E+02 -0.22535031553E+03  0.27816834618E+03  0.40516998957E+03  0.17170162767E+03 0.  0.
        -24    2    5    5    0    0 -0.84426722589E+02 -0.22034303049E+03  0.29536984378E+03  0.38628723680E+03  0.79344578461E+02 0.  0.
          5    1    3    3  501    0  0.97985139681E+02  0.12506524715E+03  0.79326588668E+01  0.15914591015E+03  0.47000000000E+01 0. -1.
        -11    1    4    4    0    0  0.14591336627E+02 -0.82471049275E+01 -0.91559958791E+01  0.19098536718E+02  0.00000000000E+00 0.  1.
         12    1    4    4    0    0 -0.31824522923E+02  0.10853217331E+03 -0.36175301301E+02  0.11874630658E+03  0.00000000000E+00 0. -1.
         -5    1    5    5    0  502  0.36747692045E+01 -0.50072850405E+01 -0.17201497601E+02  0.18882752763E+02  0.47000000000E+01 0.  1.
         13    1    6    6    0    0 -0.89527617927E+02 -0.14792478147E+03  0.17707728807E+03  0.24749404295E+03  0.00000000000E+00 0. -1.
        -14    1    6    6    0    0  0.51008953372E+01 -0.72418249015E+02  0.11829255572E+03  0.13879319386E+03  0.00000000000E+00 0.  1.
</event>
<event>
12    1  0.8563264E-002  0.1992029E+03  0.7818608E-02  0.1150699E+00
         21   -1    0    0  503  502  0.00000000000E+00  0.00000000000E+00  0.66184286775E+03  0.66184286775E+03  0.00000000000E+00 0. -1.
         21   -1    0    0  501  503 -0.00000000000E+00 -0.00000000000E+00 -0.11004114735E+03  0.11004114735E+03  0.00000000000E+00 0. -1.
          6    2    1    2  501    0 -0.72883434172E+02 -0.64440880208E+02  0.14986242170E+02  0.19976582763E+03  0.17383088452E+03 0.  0.
         24    2    3    3    0    0 -0.56560313726E+02 -0.57341652239E-01  0.58668419468E+02  0.12012973712E+03  0.88261531372E+02 0.  0.
         -6    2    1    2    0  502  0.72883434172E+02  0.64440880208E+02  0.53681547823E+03  0.57211818748E+03  0.17228970009E+03 0.  0.
        -24    2    5    5    0    0  0.10501716263E+03  0.49801283744E+02  0.50512186678E+03  0.52443727625E+03  0.79859777809E+02 0.  0.
          5    1    3    3  501    0 -0.16323120446E+02 -0.64383538555E+02 -0.43682177298E+02  0.79636090508E+02  0.47000000000E+01 0. -1.
        -11    1    4    4    0    0 -0.53677661267E+02  0.23415814080E+02  0.18566496470E+01  0.58592139541E+02  0.00000000000E+00 0.  1.
         12    1    4    4    0    0 -0.28826524588E+01 -0.23473155732E+02  0.56811769821E+02  0.61537597576E+02  0.00000000000E+00 0. -1.
         -5    1    5    5    0  502 -0.32133728453E+02  0.14639596463E+02  0.31693611448E+02  0.47680911228E+02  0.47000000000E+01 0.  1.
         11    1    6    6    0    0  0.44448168215E+02  0.56811438585E+02  0.35775517193E+03  0.36495471261E+03  0.00000000000E+00 0. -1.
        -12    1    6    6    0    0  0.60568994410E+02 -0.70101548403E+01  0.14736669485E+03  0.15948256365E+03  0.00000000000E+00 0.  1.
</event>
<event>
12    1  0.8563264E-002  0.2165198E+03  0.7818608E-02  0.1136545E+00
         21   -1    0    0  503  502  0.00000000000E+00  0.00000000000E+00  0.62507490353E+03  0.62507490353E+03  0.00000000000E+00 0.  1.
         21   -1    0    0  501  503 -0.00000000000E+00 -0.00000000000E+00 -0.81667801164E+02  0.81667801164E+02  0.00000000000E+00 0. -1.
          6    2    1    2  501    0 -0.12948665358E+03  0.16608147310E+02  0.17030226731E+03  0.27546996469E+03  0.17273741685E+03 0.  0.
         24    2    3    3    0    0 -0.39590264458E+02 -0.48350233682E+02  0.10757536279E+03  0.14796425270E+03  0.80098859299E+02 0.  0.
         -6    2    1    2    0  502  0.12948665358E+03 -0.16608147310E+02  0.37310483505E+03  0.43127274000E+03  0.17247125650E+03 0.  0.
        -24    2    5    5    0    0  0.82041060104E+02  0.30569699546E+02  0.11420394426E+03  0.16382443691E+03  0.78298551525E+02 0.  0.
          5    1    3    3  501    0 -0.89896389124E+02  0.64958380991E+02  0.62726904520E+02  0.12750571199E+03  0.47000000000E+01 0. -1.
        -11    1    4    4    0    0 -0.35492961674E+02  0.14565363600E+02  0.44987244533E+02  0.59124887449E+02  0.00000000000E+00 0.  1.
         12    1    4    4    0    0 -0.40973027840E+01 -0.62915597282E+02  0.62588118257E+02  0.88839365252E+02  0.00000000000E+00 0. -1.
         -5    1    5    5    0  502  0.47445593478E+02 -0.47177846856E+02  0.25890089079E+03  0.26744830309E+03  0.47000000000E+01 0.  1.
         11    1    6    6    0    0 -0.94157876752E+01  0.20693117796E+02  0.38405260360E+02  0.44629880181E+02  0.00000000000E+00 0. -1.
        -12    1    6    6    0    0  0.91456847779E+02  0.98765817498E+01  0.75798683900E+02  0.11919455673E+03  0.00000000000E+00 0.  1.
</event>
<event>
12    1  0.8563264E-002  0.1773517E+03  0.7818608E-02  0.1171313E+00
         21   -1    0    0  503  502  0.00000000000E+00  0.00000000000E+00  0.18635460673E+03  0.18635460673E+03  0.00000000000E+00 0. -1.
         21   -1    0    0  501  503 -0.00000000000E+00 -0.00000000000E+00 -0.23247281050E+03  0.23247281050E+03  0.00000000000E+00 0.  1.
          6    2    1    2  501    0  0.95718112172E+01 -0.38030854848E+02 -0.13546326077E+03  0.22024199308E+03  0.16916936781E+03 0.  0.
         24    2    3    3    0    0  0.26267195763E+02  0.15577008633E+02 -0.22956091761E+02  0.94414762435E+02  0.86339773254E+02 0.  0.
         -6    2    1    2    0  502 -0.95718112172E+01  0.38030854848E+02  0.89345056997E+02  0.19858542415E+03  0.17296145809E+03 0.  0.
        -24    2    5    5    0    0  0.58033172254E+02  0.48065465621E+02  0.55404390312E+02  0.12213160764E+03  0.78538812394E+02 0.  0.
          5    1    3    3  501    0 -0.16695384546E+02 -0.53607863481E+02 -0.11250716901E+03  0.12582723064E+03  0.47000000000E+01 0. -1.
        -13    1    4    4    0    0  0.54410983347E+02 -0.30948810431E+01 -0.17344169257E+01  0.54526521982E+02  0.00000000000E+00 0.  1.
         14    1    4    4    0    0 -0.28143787584E+02  0.18671889676E+02 -0.21221674835E+02  0.39888240453E+02  0.00000000000E+00 0. -1.
         -5    1    5    5    0  502 -0.67604983472E+02 -0.10034610773E+02  0.33940666684E+02  0.76453816507E+02  0.47000000000E+01 0.  1.
         11    1    6    6    0    0  0.61128543049E+02  0.10026535674E+02  0.98836413284E+01  0.62728913260E+02  0.00000000000E+00 0. -1.
        -12    1    6    6    0    0 -0.30953707944E+01  0.38038929947E+02  0.45520748984E+02  0.59402694383E+02  0.00000000000E+00 0.  1.
</event>
<event>
12    1  0.8563264E-002  0.1991370E+03  0.7818608E-02  0.1150490E+00
         21   -1    0    0  503  502  0.00000000000E+00  0.00000000000E+00  0.21957054927E+03  0.21957054927E+03  0.00000000000E+00 0. -1.
         21   -1    0    0  501  503 -0.00000000000E+00 -0.00000000000E+00 -0.63822871206E+03  0.63822871206E+03  0.00000000000E+00 0. -1.
          6    2    1    2  501    0 -0.48148020873E+02 -0.86851983470E+02 -0.57255793988E+03  0.60619974431E+03  0.17260949142E+03 0.  0.
         24    2    3    3    0    0 -0.24340854598E+02 -0.12283121220E+03 -0.35580388990E+03  0.38514388203E+03  0.77842262946E+02 0.  0.
         -6    2    1    2    0  502  0.48148020873E+02  0.86851983470E+02  0.15389977709E+03  0.25159951702E+03  0.17249833805E+03 0.  0.
        -24    2    5    5    0    0  0.98761465831E+02  0.71777157034E+02  0.11582231549E+03  0.18632353151E+03  0.79974134717E+02 0.  0.
          5    1    3    3  501    0 -0.23807166275E+02  0.35979228728E+02 -0.21675404998E+03  0.22105586228E+03  0.47000000000E+01 0. -1.
        -11    1    4    4    0    0 -0.45277435208E+01 -0.34613436475E+02 -0.26989590365E+02  0.44125145145E+02  0.00000000000E+00 0.  1.
         12    1    4    4    0    0 -0.19813111077E+02 -0.88217775722E+02 -0.32881429954E+03  0.34101873688E+03  0.00000000000E+00 0. -1.
         -5    1    5    5    0  502 -0.50613444958E+02  0.15074826435E+02  0.38077461596E+02  0.65275985509E+02  0.47000000000E+01 0.  1.
         13    1    6    6    0    0  0.54002347192E+02  0.21550907417E+02  0.72455322890E+01  0.58593453993E+02  0.00000000000E+00 0. -1.
        -14    1    6    6    0    0  0.44759118639E+02  0.50226249618E+02  0.10857678320E+03  0.12773007752E+03  0.00000000000E+00 0.  1.
</event>
<event>
12    1  0.8563264E-002  0.1773826E+03  0.7818608E-02  0.1170918E+00
         21   -1    0    0  501  502  0.00000000000E+00  0.00000000000E+00  0.37524950640E+03  0.37524950640E+03  0.00000000000E+00 0.  1.
         21   -1    0    0  502  503 -0.00000000000E+00 -0.00000000000E+00 -0.11006325794E+03  0.11006325794E+03  0.00000000000E+00 0.  1.
         -6    2    1    2    0  503 -0.42892757078E+02  0.10415372934E+02  0.12443272489E+02  0.17781852264E+03  0.17180315295E+03 0.  0.
        -24    2    3    3    0    0 -0.71182047726E+02  0.58436863552E+02  0.82051892259E+00  0.12069124434E+03  0.77999694023E+02 0.  0.
          6    2    1    2  501    0  0.42892757078E+02 -0.10415372934E+02  0.25274297597E+03  0.30749424170E+03  0.16948577572E+03 0.  0.
         24    2    5    5    0    0  0.35134504828E+02 -0.65774226447E+02  0.21176106246E+03  0.23802194236E+03  0.79063361781E+02 0.  0.
          5    1    5    5  501    0  0.77582522497E+01  0.55358853512E+02  0.40981913509E+02  0.69472299336E+02  0.47000000000E+01 0. -1.
        -11    1    6    6    0    0  0.16434978589E+01 -0.72997740596E+02  0.16096470831E+03  0.17675126177E+03  0.00000000000E+00 0.  1.
         12    1    6    6    0    0  0.33491006969E+02  0.72235141492E+01  0.50796354153E+02  0.61270680588E+02  0.00000000000E+00 0. -1.
         -5    1    3    3    0  503  0.28289290648E+02 -0.48021490617E+02  0.11622753566E+02  0.57127278309E+02  0.47000000000E+01 0.  1.
         13    1    4    4    0    0 -0.17619950825E+02 -0.15271827566E+02  0.16057521390E+02  0.28311400132E+02  0.00000000000E+00 0. -1.
        -14    1    4    4    0    0 -0.53562096902E+02  0.73708691117E+02 -0.15237002468E+02  0.92379844203E+02  0.00000000000E+00 0.  1.
</event>
<event>
12    1  0.8563264E-002  0.2988627E+03  0.7818608E-02  0.1086199E+00
         21   -1    0    0  501  502  0.00000000000E+00  0.00000000000E+00  0.58470479888E+03  0.58470479888E+03  0.00000000000E+00 0.  1.
         21   -1    0    0  502  503 -0.00000000000E+00 -0.00000000000E+00 -0.22333663755E+03  0.22333663755E+03  0.00000000000E+00 0. -1.
         -6    2    1    2    0  503 -0.24135562652E+03  0.33726970134E+01 -0.49575503887E+02  0.29991388169E+03  0.17095815952E+03 0.  0.
        -24    2    3    3    0    0 -0.82587555343E+02  0.18501102053E+02  0.32729058093E+02  0.12038031940E+03  0.79102686308E+02 0.  0.
          6    2    1    2  501    0  0.24135562652E+03 -0.33726970134E+01  0.41094366522E+03  0.50812755474E+03  0.17622429561E+03 0.  0.
         24    2    5    5    0    0  0.79913680542E+02  0.54625178802E+02  0.20335035304E+03  0.23878701048E+03  0.79358451314E+02 0.  0.
          5    1    5    5  501    0  0.16144194598E+03 -0.57997875815E+02  0.20759331218E+03  0.26934054426E+03  0.47000000000E+01 0. -1.
        -11    1    6    6    0    0  0.83682464769E+02  0.69899018513E+02  0.18361207135E+03  0.21354629579E+03  0.00000000000E+00 0.  1.
         12    1    6    6    0    0 -0.37687842270E+01 -0.15273839711E+02  0.19738281685E+02  0.25240714688E+02  0.00000000000E+00 0. -1.
         -5    1    3    3    0  503 -0.15876807117E+03 -0.15128405039E+02 -0.82304561981E+02  0.17953356228E+03  0.47000000000E+01 0.  1.
         13    1    4    4    0    0 -0.14561571459E+02  0.40850833502E+02  0.52498585198E+01  0.43685134492E+02  0.00000000000E+00 0. -1.
        -14    1    4    4    0    0 -0.68025983884E+02 -0.22349731449E+02  0.27479199574E+02  0.76695184911E+02  0.00000000000E+00 0.  1.
</event>
<event>
12    1  0.8563264E-002  0.1813122E+03  0.7818608E-02  0.1166741E+00
         21   -1    0    0  501  502  0.00000000000E+00  0.00000000000E+00  0.98167987853E+02  0.98167987853E+02  0.00000000000E+00 0. -1.
         21   -1    0    0  502  503 -0.00000000000E+00 -0.00000000000E+00 -0.35475629641E+03  0.35475629641E+03  0.00000000000E+00 0. -1.
         -6    2    1    2    0  503 -0.11168273113E+02  0.56677762808E+02 -0.18423110398E+03  0.25848642073E+03  0.17186340770E+03 0.  0.
        -24    2    3    3    0    0  0.34934006518E+02  0.45497804314E+02 -0.38107943198E+02  0.10478385154E+03  0.78974712408E+02 0.  0.
          6    2    1    2  501    0  0.11168273113E+02 -0.56677762808E+02 -0.72357204576E+02  0.19443786353E+03  0.17097783072E+03 0.  0.
         24    2    5    5    0    0  0.27723791530E+02  0.12506056654E+02  0.93990938155E+01  0.85963588275E+02  0.79852272821E+02 0.  0.
          5    1    5    5  501    0 -0.16555518417E+02 -0.69183819462E+02 -0.81756298391E+02  0.10847427526E+03  0.47000000000E+01 0. -1.
        -11    1    6    6    0    0  0.39092593181E+02 -0.24843382123E+01 -0.25201990665E+02  0.46578354538E+02  0.00000000000E+00 0.  1.
         12    1    6    6    0    0 -0.11368801651E+02  0.14990394866E+02  0.34601084481E+02  0.39385233736E+02  0.00000000000E+00 0. -1.
         -5    1    3    3    0  503 -0.46102279631E+02  0.11179958494E+02 -0.14612316078E+03  0.15370256919E+03  0.47000000000E+01 0.  1.
         13    1    4    4    0    0  0.28401113629E+02  0.95905713490E+01 -0.56466296005E+02  0.63929999990E+02  0.00000000000E+00 0. -1.
        -14    1    4    4    0    0  0.65328928897E+01  0.35907232965E+02  0.18358352807E+02  0.40853851551E+02  0.00000000000E+00 0.  1.
</event>
<event>
12    1  0.8563264E-002  0.2091213E+03  0.7818608E-02  0.1142374E+00
         21   -1    0    0  503  502  0.00000000000E+00  0.00000000000E+00  0.49950344580E+03  0.49950344580E+03  0.00000000000E+00 0.  1.
         21   -1    0    0  501  503 -0.00000000000E+00 -0.00000000000E+00 -0.87321469885E+02  0.87321469885E+02  0.00000000000E+00 0.  1.
          6    2    1    2  501    0  0.74202589000E+02  0.91019557040E+02  0.20424465947E+03  0.29191875233E+03  0.17236615985E+03 0.  0.
         24    2    3    3    0    0  0.84356566384E+02  0.16844026368E+02  0.12710819889E+03  0.18432118657E+03  0.10206886928E+03 0.  0.
         -6    2    1    2    0  502 -0.74202589000E+02 -0.91019557040E+02  0.20793731645E+03  0.29490616335E+03  0.17303506476E+03 0.  0.
        -24    2    5    5    0    0 -0.25461461246E+02 -0.20431102678E+01  0.23304795629E+02  0.84184158434E+02  0.76755447517E+02 0.  0.
          5    1    3    3  501    0 -0.10153977384E+02  0.74175530671E+02  0.77136460581E+02  0.10759756576E+03  0.47000000000E+01 0. -1.
        -13    1    4    4    0    0  0.75464211377E+02  0.53361296691E+02  0.10803105281E+03  0.14217237269E+03  0.00000000000E+00 0.  1.
         14    1    4    4    0    0  0.88923550072E+01 -0.36517270323E+02  0.19077146078E+02  0.42148813885E+02  0.00000000000E+00 0. -1.
         -5    1    5    5    0  502 -0.48741127754E+02 -0.88976446772E+02  0.18463252082E+03  0.21072200492E+03  0.47000000000E+01 0.  1.
         13    1    6    6    0    0 -0.73071175988E+01  0.30340518137E+02  0.33399824220E+02  0.45710931585E+02  0.00000000000E+00 0. -1.
        -14    1    6    6    0    0 -0.18154343647E+02 -0.32383628404E+02 -0.10095028592E+02  0.38473226849E+02  0.00000000000E+00 0.  1.
</event>
<event>
12    1  0.8563264E-002  0.2241637E+03  0.7818608E-02  0.1131146E+00
         21   -1    0    0  501  502  0.00000000000E+00  0.00000000000E+00  0.97061380947E+03  0.97061380947E+03  0.00000000000E+00 0.  1.
         21   -1    0    0  502  503 -0.00000000000E+00 -0.00000000000E+00 -0.51369954435E+02  0.51369954435E+02  0.00000000000E+00 0.  1.
         -6    2    1    2    0  503 -0.14220908999E+03  0.12318314545E+02  0.44897168253E+03  0.50101802617E+03  0.17049435383E+03 0.  0.
        -24    2    3    3    0    0 -0.88881181964E+02  0.41758841419E+02  0.40828442083E+03  0.42761398227E+03  0.80708637666E+02 0.  0.
          6    2    1    2  501    0  0.14220908999E+03 -0.12318314545E+02  0.47027217251E+03  0.52096573774E+03  0.17284159658E+03 0.  0.
         24    2    5    5    0    0  0.13001094425E+03 -0.56829646910E+02  0.27146449422E+03  0.31681717317E+03  0.80917829929E+02 0.  0.
          5    1    5    5  501    0  0.12198145742E+02  0.44511332365E+02  0.19880767829E+03  0.20414856457E+03  0.47000000000E+01 0. -1.
        -13    1    6    6    0    0  0.59913661441E+02 -0.66530082905E+02  0.18127255360E+03  0.20217724266E+03  0.00000000000E+00 0.  1.
         14    1    6    6    0    0  0.70097282806E+02  0.97004359956E+01  0.90191940614E+02  0.11463993051E+03  0.00000000000E+00 0. -1.
         -5    1    3    3    0  503 -0.53327908025E+02 -0.29440526875E+02  0.40687261698E+02  0.73404043904E+02  0.47000000000E+01 0.  1.
         13    1    4    4    0    0 -0.30071516510E+02 -0.23330228271E+02  0.15361489384E+03  0.15825969565E+03  0.00000000000E+00 0. -1.
        -14    1    4    4    0    0 -0.58809665454E+02  0.65089069691E+02  0.25466952699E+03  0.26935428662E+03  0.00000000000E+00 0.  1.
</event>
<event>
12    1  0.8563264E-002  0.1823648E+03  0.7818608E-02  0.1166215E+00
         21   -1    0    0  503  502  0.00000000000E+00  0.00000000000E+00  0.66375373530E+02  0.66375373530E+02  0.00000000000E+00 0. -1.
         21   -1    0    0  501  503 -0.00000000000E+00 -0.00000000000E+00 -0.49515256768E+03  0.49515256768E+03  0.00000000000E+00 0. -1.
          6    2    1    2  501    0 -0.38152569363E+02  0.34359517868E+02 -0.19877220218E+03  0.26975415656E+03  0.17498777559E+03 0.  0.
         24    2    3    3    0    0 -0.93496699362E+02  0.19214192425E+02 -0.15174968540E+03  0.19542004129E+03  0.77783080027E+02 0.  0.
         -6    2    1    2    0  502  0.38152569363E+02 -0.34359517868E+02 -0.23000499197E+03  0.29177378464E+03  0.17202746891E+03 0.  0.
        -24    2    5    5    0    0 -0.27427193603E+02 -0.61796899685E+02 -0.16335350201E+03  0.19421341183E+03  0.80395117721E+02 0.  0.
          5    1    3    3  501    0  0.55344130000E+02  0.15145325443E+02 -0.47022516786E+02  0.74334115271E+02  0.47000000000E+01 0. -1.
        -13    1    4    4    0    0  0.79161658710E+01 -0.14256253650E+02 -0.21592452339E+02  0.27058093951E+02  0.00000000000E+00 0.  1.
         14    1    4    4    0    0 -0.10141286523E+03  0.33470446075E+02 -0.13015723306E+03  0.16836194734E+03  0.00000000000E+00 0. -1.
         -5    1    5    5    0  502  0.65579762966E+02  0.27437381817E+02 -0.66651489951E+02  0.97560372818E+02  0.47000000000E+01 0.  1.
         11    1    6    6    0    0  0.23722104308E+02 -0.45473174768E+02 -0.83234394769E+02  0.97767644590E+02  0.00000000000E+00 0. -1.
        -12    1    6    6    0    0 -0.51149297911E+02 -0.16323724917E+02 -0.80119107245E+02  0.96445767236E+02  0.00000000000E+00 0.  1.
</event>
<event>
12    1  0.8563264E-002  0.1745069E+03  0.7818608E-02  0.1175266E+00
         21   -1    0    0  503  502  0.00000000000E+00  0.00000000000E+00  0.12382803864E+03  0.12382803864E+03  0.00000000000E+00 0. -1.
         21   -1    0    0  501  503 -0.00000000000E+00 -0.00000000000E+00 -0.52134580534E+03  0.52134580534E+03  0.00000000000E+00 0. -1.
          6    2    1    2  501    0  0.95351598363E+01 -0.21524817597E+02 -0.43990380413E+03  0.47325260834E+03  0.17291164613E+03 0.  0.
         24    2    3    3    0    0 -0.96338266924E+00  0.16930652934E+02 -0.93520799143E+02  0.12455170678E+03  0.80494799047E+02 0.  0.
         -6    2    1    2    0  502 -0.95351598363E+01  0.21524817597E+02  0.42386037430E+02  0.17192123563E+03  0.16494271141E+03 0.  0.
        -24    2    5    5    0    0 -0.38860164507E+02  0.67285388025E+02  0.23968153444E+02  0.11434264451E+03  0.80388631952E+02 0.  0.
          5    1    3    3  501    0  0.10498542506E+02 -0.38455470531E+02 -0.34638300499E+03  0.34870090157E+03  0.47000000000E+01 0. -1.
        -11    1    4    4    0    0 -0.29988960716E+02 -0.38293351061E+01 -0.71029002176E+01  0.31055639805E+02  0.00000000000E+00 0.  1.
         12    1    4    4    0    0  0.29025578047E+02  0.20759988040E+02 -0.86417898925E+02  0.93496066971E+02  0.00000000000E+00 0. -1.
         -5    1    5    5    0  502  0.29325004671E+02 -0.45760570428E+02  0.18417883987E+02  0.57578591120E+02  0.47000000000E+01 0.  1.
         13    1    6    6    0    0  0.11229820415E+02  0.49081493349E+02 -0.97384901829E+01  0.51282941091E+02  0.00000000000E+00 0. -1.
        -14    1    6    6    0    0 -0.50089984922E+02  0.18203894676E+02  0.33706643626E+02  0.63059703420E+02  0.00000000000E+00 0.  1.
</event>
<event>
12    1  0.8563264E-002  0.1761664E+03  0.7818608E-02  0.1172169E+00
         21   -1    0    0  503  502  0.00000000000E+00  0.00000000000E+00  0.22896971202E+03  0.22896971202E+03  0.00000000000E+00 0. -1.
         21   -1    0    0  501  503 -0.00000000000E+00 -0.00000000000E+00 -0.15305748157E+03  0.15305748157E+03  0.00000000000E+00 0. -1.
          6    2    1    2  501    0 -0.13002193165E+02 -0.33641123420E+02 -0.30210298085E+02  0.17636587365E+03  0.16997493070E+03 0.  0.
         24    2    3    3    0    0  0.39499230588E+02 -0.39529365982E+02 -0.60812713647E+02  0.11513133491E+03  0.80213952311E+02 0.  0.
         -6    2    1    2    0  502  0.13002193165E+02  0.33641123420E+02  0.10612252854E+03  0.20566131994E+03  0.17243493046E+03 0.  0.
        -24    2    5    5    0    0  0.60871884708E+02  0.30599145952E+02  0.11502693957E+03  0.15664969345E+03  0.81647018012E+02 0.  0.
          5    1    3    3  501    0 -0.52501423753E+02  0.58882425620E+01  0.30602415562E+02  0.61234538740E+02  0.47000000000E+01 0. -1.
        -13    1    4    4    0    0  0.38515917500E+02  0.10530372641E+02 -0.51456780435E+01  0.40259690155E+02  0.00000000000E+00 0.  1.
         14    1    4    4    0    0  0.98331308758E+00 -0.50059738623E+02 -0.55667035603E+02  0.74871644756E+02  0.00000000000E+00 0. -1.
         -5    1    5    5    0  502 -0.47869691543E+02  0.30419774682E+01 -0.89044110315E+01  0.49011626489E+02  0.47000000000E+01 0.  1.
         11    1    6    6    0    0  0.28930408929E+02 -0.27361035151E+02  0.49368953643E+02  0.63426243694E+02  0.00000000000E+00 0. -1.
        -12    1    6    6    0    0  0.31941475778E+02  0.57960181102E+02  0.65657985924E+02  0.93223449753E+02  0.00000000000E+00 0.  1.
</event>
<event>
12    1  0.8563264E-002  0.1879309E+03  0.7818608E-02  0.1160439E+00
         21   -1    0    0  503  502  0.00000000000E+00  0.00000000000E+00  0.14663879304E+04  0.14663879304E+04  0.00000000000E+00 0. -1.
         21   -1    0    0  501  503 -0.00000000000E+00 -0.00000000000E+00 -0.24125896349E+02  0.24125896349E+02  0.00000000000E+00 0. -1.
          6    2    1    2  501    0 -0.45095056889E+02 -0.61293528868E+02  0.76725669473E+03  0.78983540979E+03  0.17136708585E+03 0.  0.
         24    2    3    3    0    0 -0.48873560774E+02 -0.59060747210E+02  0.26238858652E+03  0.28492634957E+03  0.80364529112E+02 0.  0.
         -6    2    1    2    0  502  0.45095056889E+02  0.61293528868E+02  0.67500533933E+03  0.70067841697E+03  0.17183589567E+03 0.  0.
        -24    2    5    5    0    0  0.65194273967E+02  0.77662440049E+02  0.65667849736E+03  0.66858662803E+03  0.74159843160E+02 0.  0.
          5    1    3    3  501    0  0.37785038846E+01 -0.22327816575E+01  0.50486810821E+03  0.50490906022E+03  0.47000000000E+01 0. -1.
        -13    1    4    4    0    0 -0.19243681184E+02 -0.13189403918E+01  0.17507470037E+03  0.17613406706E+03  0.00000000000E+00 0.  1.
         14    1    4    4    0    0 -0.29629879590E+02 -0.57741806819E+02  0.87313886149E+02  0.10879228251E+03  0.00000000000E+00 0. -1.
         -5    1    5    5    0  502 -0.20099217078E+02 -0.16368911181E+02  0.18326841972E+02  0.32091788935E+02  0.47000000000E+01 0.  1.
         11    1    6    6    0    0  0.67741655392E+02  0.75888823299E+02  0.42932596298E+03  0.44121290537E+03  0.00000000000E+00 0. -1.
        -12    1    6    6    0    0 -0.25473814253E+01  0.17736167506E+01  0.22735253437E+03  0.22737372266E+03  0.00000000000E+00 0.  1.
</event>
<event>
12    1  0.8563264E-002  0.1990184E+03  0.7818608E-02  0.1150742E+00
         21   -1    0    0  503  502  0.00000000000E+00  0.00000000000E+00  0.70098496356E+03  0.70098496356E+03  0.00000000000E+00 0. -1.
         21   -1    0    0  501  503 -0.00000000000E+00 -0.00000000000E+00 -0.58220277035E+02  0.58220277035E+02  0.00000000000E+00 0. -1.
          6    2    1    2  501    0 -0.29426840109E+02 -0.94669777969E+02  0.39140551127E+03  0.43909746173E+03  0.17256882936E+03 0.  0.
         24    2    3    3    0    0  0.54720726652E+02 -0.46373478595E+02  0.18236249241E+03  0.20858841796E+03  0.71471616934E+02 0.  0.
         -6    2    1    2    0  502  0.29426840109E+02  0.94669777969E+02  0.25135917525E+03  0.32010777886E+03  0.17163696958E+03 0.  0.
        -24    2    5    5    0    0 -0.48902371498E+02  0.63905257939E+02  0.15549530339E+03  0.19246024457E+03  0.79917660327E+02 0.  0.
          5    1    3    3  501    0 -0.84147566760E+02 -0.48296299374E+02  0.20904301887E+03  0.23050904377E+03  0.47000000000E+01 0. -1.
        -13    1    4    4    0    0  0.40162652713E+02 -0.65682566578E+02  0.14237164893E+03  0.16185464048E+03  0.00000000000E+00 0.  1.
         14    1    4    4    0    0  0.14558073939E+02  0.19309087983E+02  0.39990843472E+02  0.46733777475E+02  0.00000000000E+00 0. -1.
         -5    1    5    5    0  502  0.78329211607E+02  0.30764520030E+02  0.95863871861E+02  0.12764753430E+03  0.47000000000E+01 0.  1.
         11    1    6    6    0    0  0.90101866775E+01 -0.13606896650E+02  0.27972597034E+02  0.32385139883E+02  0.00000000000E+00 0. -1.
        -12    1    6    6    0    0 -0.57912558176E+02  0.77512154588E+02  0.12752270636E+03  0.16007510469E+03  0.00000000000E+00 0.  1.
</event>
<event>
12    1  0.8563264E-002  0.2717185E+03  0.7818608E-02  0.1100316E+00
         21   -1    0    0  503  502  0.00000000000E+00  0.00000000000E+00  0.37891262881E+03  0.37891262881E+03  0.00000000000E+00 0. -1.
         21   -1    0    0  501  503 -0.00000000000E+00 -0.00000000000E+00 -0.42320661883E+03  0.42320661883E+03  0.00000000000E+00 0. -1.
          6    2    1    2  501    0 -0.12171848216E+03 -0.17140057196E+03 -0.31680207872E+03  0.41729252629E+03  0.17197659855E+03 0.  0.
         24    2    3    3    0    0 -0.14759896740E+03 -0.10291495549E+03 -0.21495501941E+03  0.29177363261E+03  0.80927430932E+02 0.  0.
         -6    2    1    2    0  502  0.12171848216E+03  0.17140057196E+03  0.27250808870E+03  0.38482672135E+03  0.17215516864E+03 0.  0.
        -24    2    5    5    0    0  0.34005685934E+02  0.42833467402E+02  0.18083122023E+03  0.20413423891E+03  0.77328938176E+02 0.  0.
          5    1    3    3  501    0  0.25880485243E+02 -0.68485616475E+02 -0.10184705931E+03  0.12551889368E+03  0.47000000000E+01 0. -1.
        -13    1    4    4    0    0 -0.13782038930E+03 -0.11656603830E+03 -0.19671778543E+03  0.26698312325E+03  0.00000000000E+00 0.  1.
         14    1    4    4    0    0 -0.97785780993E+01  0.13651082811E+02 -0.18237233978E+02  0.24790509368E+02  0.00000000000E+00 0. -1.
         -5    1    5    5    0  502  0.87712796226E+02  0.12856710456E+03  0.91676868464E+02  0.18069248244E+03  0.47000000000E+01 0.  1.
         13    1    6    6    0    0  0.44767044623E+02  0.57384573685E+02  0.16397825516E+03  0.17940441953E+03  0.00000000000E+00 0. -1.
        -14    1    6    6    0    0 -0.10761358689E+02 -0.14551106283E+02  0.16852965070E+02  0.24729819380E+02  0.00000000000E+00 0.  1.
</event>
<event>
12    1  0.8563264E-002  0.1984655E+03  0.7818608E-02  0.1151114E+00
         21   -1    0    0  503  502  0.00000000000E+00  0.00000000000E+00  0.10328789618E+03  0.10328789618E+03  0.00000000000E+00 0. -1.
         21   -1    0    0  501  503 -0.00000000000E+00 -0.00000000000E+00 -0.39461337050E+03  0.39461337050E+03  0.00000000000E+00 0. -1.
          6    2    1    2  501    0  0.57290393800E+02  0.79576212445E+02 -0.19256654161E+03  0.27653286594E+03  0.17255141317E+03 0.  0.
         24    2    3    3    0    0  0.67003715921E+02 -0.32467897539E+01 -0.14900321317E+03  0.18233174119E+03  0.80887988707E+02 0.  0.
         -6    2    1    2    0  502 -0.57290393800E+02 -0.79576212445E+02 -0.98758932718E+02  0.22136840075E+03  0.17215132659E+03 0.  0.
        -24    2    5    5    0    0 -0.58834815533E+02 -0.86377833768E+01 -0.11013623385E+03  0.14935327082E+03  0.81487806916E+02 0.  0.
          5    1    3    3  501    0 -0.97133221206E+01  0.82823002199E+02 -0.43563328435E+02  0.94201124751E+02  0.47000000000E+01 0. -1.
        -13    1    4    4    0    0  0.47747483434E+02  0.31838580163E+02 -0.11964292265E+03  0.13269493698E+03  0.00000000000E+00 0.  1.
         14    1    4    4    0    0  0.19256232487E+02 -0.35085369917E+02 -0.29360290526E+02  0.49636804204E+02  0.00000000000E+00 0. -1.
         -5    1    5    5    0  502  0.15444217334E+01 -0.70938429069E+02  0.11377301137E+02  0.72015129927E+02  0.47000000000E+01 0.  1.
         11    1    6    6    0    0  0.98624896658E+01  0.10300604714E+02 -0.61368179260E+02  0.63003369637E+02  0.00000000000E+00 0. -1.
        -12    1    6    6    0    0 -0.68697305199E+02 -0.18938388091E+02 -0.48768054595E+02  0.86349901182E+02  0.00000000000E+00 0.  1.
</event>
<event>
12    1  0.8563264E-002  0.3090248E+03  0.7818608E-02  0.1081168E+00
         21   -1    0    0  503  502  0.00000000000E+00  0.00000000000E+00  0.37135442905E+03  0.37135442905E+03  0.00000000000E+00 0.  1.
         21   -1    0    0  501  503 -0.00000000000E+00 -0.00000000000E+00 -0.29111467187E+03  0.29111467187E+03  0.00000000000E+00 0. -1.
          6    2    1    2  501    0  0.24592851461E+03  0.67541521991E+02  0.15705851734E+03  0.34403948644E+03  0.16927226256E+03 0.  0.
         24    2    3    3    0    0  0.15822354045E+03  0.85736985375E+02  0.16195929971E+03  0.25420995318E+03  0.77500749134E+02 0.  0.
         -6    2    1    2    0  502 -0.24592851461E+03 -0.67541521991E+02 -0.76818760169E+02  0.31842961448E+03  0.17450961571E+03 0.  0.
        -24    2    5    5    0    0 -0.15367039026E+03  0.28704851228E+02 -0.31791400870E+02  0.17763018639E+03  0.78123188743E+02 0.  0.
          5    1    3    3  501    0  0.87704974154E+02 -0.18195463384E+02 -0.49007823674E+01  0.89829533267E+02  0.47000000000E+01 0. -1.
        -11    1    4    4    0    0  0.10409729460E+03  0.15434981302E+02  0.10568845732E+03  0.14914602040E+03  0.00000000000E+00 0.  1.
         12    1    4    4    0    0  0.54126245849E+02  0.70302004073E+02  0.56270842396E+02  0.10506393278E+03  0.00000000000E+00 0. -1.
         -5    1    5    5    0  502 -0.92258124342E+02 -0.96246373220E+02 -0.45027359299E+02  0.14079942809E+03  0.47000000000E+01 0.  1.
         13    1    6    6    0    0 -0.45193538354E+02 -0.11459960760E+02 -0.40323245885E+02  0.61642118461E+02  0.00000000000E+00 0. -1.
        -14    1    6    6    0    0 -0.10847685191E+03  0.40164811988E+02  0.85318450159E+01  0.11598806793E+03  0.00000000000E+00 0.  1.
</event>
<event>
12    1  0.8563264E-002  0.2161643E+03  0.7818608E-02  0.1136935E+00
         21   -1    0    0  501  502  0.00000000000E+00  0.00000000000E+00  0.32148130963E+03  0.32148130963E+03  0.00000000000E+00 0. -1.
         21   -1    0    0  502  503 -0.00000000000E+00 -0.00000000000E+00 -0.14555126979E+03  0.14555126979E+03  0.00000000000E+00 0. -1.
         -6    2    1    2    0  503  0.98403973905E+02  0.86720693459E+02  0.10471664523E+03  0.23944008689E+03  0.17076931419E+03 0.  0.
        -24    2    3    3    0    0  0.52287965768E+02  0.10001098724E+03  0.12581533836E+03  0.18680394943E+03  0.79561216834E+02 0.  0.
          6    2    1    2  501    0 -0.98403973905E+02 -0.86720693459E+02  0.71213394604E+02  0.22759249253E+03  0.17182309021E+03 0.  0.
         24    2    5    5    0    0 -0.22561194968E+02 -0.97950177463E+02  0.78861288935E+02  0.15039917212E+03  0.79357188074E+02 0.  0.
          5    1    5    5  501    0 -0.75842778937E+02  0.11229484005E+02 -0.76478943305E+01  0.77193320408E+02  0.47000000000E+01 0. -1.
        -11    1    6    6    0    0 -0.25040882550E+02  0.45880793472E+01  0.17190415333E+02  0.30718181104E+02  0.00000000000E+00 0.  1.
         12    1    6    6    0    0  0.24796875827E+01 -0.10253825681E+03  0.61670873601E+02  0.11968099102E+03  0.00000000000E+00 0. -1.
         -5    1    3    3    0  503  0.46116008137E+02 -0.13290293783E+02 -0.21098693125E+02  0.52636137462E+02  0.47000000000E+01 0.  1.
         13    1    4    4    0    0 -0.18418019727E+02  0.30164888183E+02  0.52554714154E+02  0.63333576478E+02  0.00000000000E+00 0. -1.
        -14    1    4    4    0    0  0.70705985494E+02  0.69846099059E+02  0.73260624202E+02  0.12347037295E+03  0.00000000000E+00 0.  1.
</event>
<event>
12    1  0.8563264E-002  0.1923612E+03  0.7818608E-02  0.1156630E+00
         21   -1    0    0  503  502  0.00000000000E+00  0.00000000000E+00  0.78218793060E+02  0.78218793060E+02  0.00000000000E+00 0. -1.
         21   -1    0    0  501  503 -0.00000000000E+00 -0.00000000000E+00 -0.63450888030E+03  0.63450888030E+03  0.00000000000E+00 0.  1.
          6    2    1    2  501    0 -0.82790268266E+02 -0.32769874370E+01 -0.46029742065E+03  0.49887526693E+03  0.17360256142E+03 0.  0.
         24    2    3    3    0    0 -0.62239121730E+02  0.61746683480E+02 -0.33135546903E+03  0.35293505900E+03  0.84144802698E+02 0.  0.
         -6    2    1    2    0  502  0.82790268266E+02  0.32769874370E+01 -0.95992666592E+02  0.21385240643E+03  0.17220131396E+03 0.  0.
        -24    2    5    5    0    0  0.12221464061E+03  0.19409091004E+02 -0.82994927554E+02  0.16906895949E+03  0.79893828732E+02 0.  0.
          5    1    3    3  501    0 -0.20551146536E+02 -0.65023670917E+02 -0.12894195162E+03  0.14594020793E+03  0.47000000000E+01 0. -1.
        -13    1    4    4    0    0  0.17076612987E+02  0.23422250850E+02 -0.12935273363E+03  0.13256071154E+03  0.00000000000E+00 0.  1.
         14    1    4    4    0    0 -0.79315734718E+02  0.38324432629E+02 -0.20200273540E+03  0.22037434746E+03  0.00000000000E+00 0. -1.
         -5    1    5    5    0  502 -0.39424372342E+02 -0.16132103567E+02 -0.12997739038E+02  0.44783446944E+02  0.47000000000E+01 0.  1.
         13    1    6    6    0    0  0.34583137754E+02  0.43366197894E+02 -0.22138514269E+02  0.59722142884E+02  0.00000000000E+00 0. -1.
        -14    1    6    6    0    0  0.87631502855E+02 -0.23957106890E+02 -0.60856413285E+02  0.10934681660E+03  0.00000000000E+00 0.  1.
</event>
<event>
12    1  0.8563264E-002  0.2486659E+03  0.7818608E-02  0.1114259E+00
         21   -1    0    0  503  502  0.00000000000E+00  0.00000000000E+00  0.26548117976E+02  0.26548117976E+02  0.00000000000E+00 0.  1.
         21   -1    0    0  501  503 -0.00000000000E+00 -0.00000000000E+00 -0.23238356713E+04  0.23238356713E+04  0.00000000000E+00 0.  1.
          6    2    1    2  501    0 -0.53464546958E+02  0.17212323798E+03 -0.11226366723E+04  0.11497008948E+04  0.17033550024E+03 0.  0.
         24    2    3    3    0    0  0.18207114452E+02  0.13625284099E+03 -0.58206321405E+03  0.60319813523E+03  0.78447877645E+02 0.  0.
         -6    2    1    2    0  502  0.53464546958E+02 -0.17212323798E+03 -0.11746508811E+04  0.12006828945E+04  0.17131799090E+03 0.  0.
        -24    2    5    5    0    0 -0.21929925010E+02 -0.44993032596E+02 -0.34501215943E+03  0.35796769118E+03  0.81253819495E+02 0.  0.
          5    1    3    3  501    0 -0.71671661410E+02  0.35870396983E+02 -0.54057345826E+03  0.54650275955E+03  0.47000000000E+01 0. -1.
        -13    1    4    4    0    0  0.24927130005E+02  0.56864291535E+02 -0.39536799013E+03  0.40021338944E+03  0.00000000000E+00 0.  1.
         14    1    4    4    0    0 -0.67200155535E+01  0.79388549458E+02 -0.18669522391E+03  0.20298474580E+03  0.00000000000E+00 0. -1.
         -5    1    5    5    0  502  0.75394471968E+02 -0.12713020538E+03 -0.82963872162E+03  0.84271520334E+03  0.47000000000E+01 0.  1.
         11    1    6    6    0    0  0.93734981909E+01  0.86516647896E+01 -0.19751997025E+03  0.19793143363E+03  0.00000000000E+00 0. -1.
        -12    1    6    6    0    0 -0.31303423201E+02 -0.53644697385E+02 -0.14749218918E+03  0.16003625755E+03  0.00000000000E+00 0.  1.
</event>
<event>
12    1  0.8563264E-002  0.2123790E+03  0.7818608E-02  0.1142101E+00
         21   -1    0    0  503  502  0.00000000000E+00  0.00000000000E+00  0.56866219392E+02  0.56866219392E+02  0.00000000000E+00 0.  1.
         21   -1    0    0  501  503 -0.00000000000E+00 -0.00000000000E+00 -0.76088037109E+03  0.76088037109E+03  0.00000000000E+00 0.  1.
          6    2    1    2  501    0  0.57099802772E+02 -0.89101541991E+02 -0.41277343551E+03  0.46420552463E+03  0.18413415699E+03 0.  0.
         24    2    3    3    0    0  0.63520141544E+02 -0.11008773806E+03 -0.19765768703E+03  0.24792210774E+03  0.79010706946E+02 0.  0.
         -6    2    1    2    0  502 -0.57099802772E+02  0.89101541991E+02 -0.29124071618E+03  0.35354106585E+03  0.17020769141E+03 0.  0.
        -24    2    5    5    0    0 -0.80371556074E+02  0.88234568015E+01 -0.19921444305E+03  0.22913419139E+03  0.79237888238E+02 0.  0.
          5    1    3    3  501    0 -0.64203387721E+01  0.20986196072E+02 -0.21511574848E+03  0.21628341689E+03  0.47000000000E+01 0. -1.
        -13    1    4    4    0    0  0.71464879524E+02 -0.46449604481E+02 -0.10510403555E+03  0.13532055664E+03  0.00000000000E+00 0.  1.
         14    1    4    4    0    0 -0.79447379803E+01 -0.63638133582E+02 -0.92553651483E+02  0.11260155110E+03  0.00000000000E+00 0. -1.
         -5    1    5    5    0  502  0.23271753303E+02  0.80278085189E+02 -0.92026273135E+02  0.12440687445E+03  0.47000000000E+01 0.  1.
         13    1    6    6    0    0 -0.14252858092E+02 -0.61987669448E+01 -0.13453025269E+03  0.13542509946E+03  0.00000000000E+00 0. -1.
        -14    1    6    6    0    0 -0.66118697982E+02  0.15022223746E+02 -0.64684190358E+02  0.93709091936E+02  0.00000000000E+00 0.  1.
</event>
<event>
12    1  0.8563264E-002  0.2020226E+03  0.7818608E-02  0.1148206E+00
         21   -1    0    0  503  502  0.00000000000E+00  0.00000000000E+00  0.84410801639E+03  0.84410801639E+03  0.00000000000E+00 0.  1.
         21   -1    0    0  501  503 -0.00000000000E+00 -0.00000000000E+00 -0.48170880827E+02  0.48170880827E+02  0.00000000000E+00 0.  1.
          6    2    1    2  501    0  0.42903081047E+01  0.10323285275E+03  0.39203218919E+03  0.44066807295E+03  0.17269535178E+03 0.  0.
         24    2    3    3    0    0  0.35444344423E+02  0.26618389145E+02  0.31360602122E+03  0.32659308079E+03  0.79683522051E+02 0.  0.
         -6    2    1    2    0  502 -0.42903081047E+01 -0.10323285275E+03  0.40390494637E+03  0.45161082426E+03  0.17360213783E+03 0.  0.
        -24    2    5    5    0    0  0.64859547687E+02 -0.59313714638E+02  0.26073348946E+03  0.28659340299E+03  0.80180723636E+02 0.  0.
          5    1    3    3  501    0 -0.31154036319E+02  0.76614463609E+02  0.78426167978E+02  0.11407499216E+03  0.47000000000E+01 0. -1.
        -13    1    4    4    0    0 -0.15065246883E+02  0.16539511346E+02  0.20690898876E+03  0.20811498439E+03  0.00000000000E+00 0.  1.
         14    1    4    4    0    0  0.50509591306E+02  0.10078877799E+02  0.10669703246E+03  0.11847809640E+03  0.00000000000E+00 0. -1.
         -5    1    5    5    0  502 -0.69149855791E+02 -0.43919138116E+02  0.14317145691E+03  0.16501742127E+03  0.47000000000E+01 0.  1.
         11    1    6    6    0    0 -0.13107375927E+02  0.22334279001E+01  0.72994556515E+02  0.74195665538E+02  0.00000000000E+00 0. -1.
        -12    1    6    6    0    0  0.77966923614E+02 -0.61547142538E+02  0.18773893295E+03  0.21239773745E+03  0.00000000000E+00 0.  1.
</event>
<event>
12    1  0.8563264E-002  0.1982231E+03  0.7818608E-02  0.1151392E+00
         21   -1    0    0  501  502  0.00000000000E+00  0.00000000000E+00  0.64421525854E+03  0.64421525854E+03  0.00000000000E+00 0. -1.
         21   -1    0    0  502  503 -0.00000000000E+00 -0.00000000000E+00 -0.36317822591E+03  0.36317822591E+03  0.00000000000E+00 0. -1.
         -6    2    1    2    0  503 -0.20936652216E+01 -0.96494647783E+02 -0.31913882670E+03  0.37533062534E+03  0.17235976074E+03 0.  0.
        -24    2    3    3    0    0  0.27441233741E+02 -0.11486833415E+02 -0.24128396087E+03  0.25624196554E+03  0.80975468357E+02 0.  0.
          6    2    1    2  501    0  0.20936652216E+01  0.96494647783E+02  0.60017585933E+03  0.63206285912E+03  0.17313808150E+03 0.  0.
         24    2    5    5    0    0  0.22061204473E+02 -0.73213176285E+00  0.40169342292E+03  0.41009638226E+03  0.79587712401E+02 0.  0.
          5    1    5    5  501    0 -0.19967539251E+02  0.97226779546E+02  0.19848243641E+03  0.22196647686E+03  0.47000000000E+01 0. -1.
        -13    1    6    6    0    0  0.31791034531E+01 -0.30448122989E+02  0.68275463537E+02  0.74824687193E+02  0.00000000000E+00 0.  1.
         14    1    6    6    0    0  0.18882101020E+02  0.29715991226E+02  0.33341795938E+03  0.33527169507E+03  0.00000000000E+00 0. -1.
         -5    1    3    3    0  503 -0.29534898962E+02 -0.85007814368E+02 -0.77854865823E+02  0.11908865980E+03  0.47000000000E+01 0.  1.
         13    1    4    4    0    0 -0.13012500918E+02 -0.17722081591E+02 -0.18683339758E+03  0.18812260845E+03  0.00000000000E+00 0. -1.
        -14    1    4    4    0    0  0.40453734659E+02  0.62352481761E+01 -0.54450563291E+02  0.68119357090E+02  0.00000000000E+00 0.  1.
</event>
<event>
12    1  0.8563264E-002  0.3446052E+03  0.7818608E-02  0.1064879E+00
         21   -1    0    0  503  502  0.00000000000E+00  0.00000000000E+00  0.52157800756E+03  0.52157800756E+03  0.00000000000E+00 0.  1.
         21   -1    0    0  501  503 -0.00000000000E+00 -0.00000000000E+00 -0.32896226975E+03  0.32896226975E+03  0.00000000000E+00 0. -1.
          6    2    1    2  501    0 -0.14873583062E+03  0.25882176143E+03  0.33250524562E+03  0.47886581809E+03  0.17216759822E+03 0.  0.
         24    2    3    3    0    0 -0.73733333816E+02  0.60096026553E+02  0.17435472131E+03  0.21400553310E+03  0.79691043600E+02 0.  0.
         -6    2    1    2    0  502  0.14873583062E+03 -0.25882176143E+03 -0.13988950781E+03  0.37167445922E+03  0.17164433502E+03 0.  0.
        -24    2    5    5    0    0  0.72264670542E+02 -0.24277703387E+03 -0.10028142498E+03  0.28394668807E+03  0.80040531532E+02 0.  0.
          5    1    3    3  501    0 -0.75002496800E+02  0.19872573488E+03  0.15815052430E+03  0.26486028499E+03  0.47000000000E+01 0. -1.
        -11    1    4    4    0    0 -0.30372840382E+02  0.56030740128E+02  0.15249298909E+03  0.16527572415E+03  0.00000000000E+00 0.  1.
         12    1    4    4    0    0 -0.43360493434E+02  0.40652864250E+01  0.21861732228E+02  0.48729808953E+02  0.00000000000E+00 0. -1.
         -5    1    5    5    0  502  0.76471160074E+02 -0.16044727559E+02 -0.39608082829E+02  0.87727771150E+02  0.47000000000E+01 0.  1.
         11    1    6    6    0    0  0.51062596699E+02 -0.18998572750E+03 -0.11125520267E+03  0.22600815374E+03  0.00000000000E+00 0. -1.
        -12    1    6    6    0    0  0.21202073843E+02 -0.52791306377E+02  0.10973777695E+02  0.57938534337E+02  0.00000000000E+00 0.  1.
</event>
<event>
12    1  0.8563264E-002  0.1808903E+03  0.7818608E-02  0.1167003E+00
         21   -1    0    0  501  502  0.00000000000E+00  0.00000000000E+00  0.32215212556E+03  0.32215212556E+03  0.00000000000E+00 0.  1.
         21   -1    0    0  502  503 -0.00000000000E+00 -0.00000000000E+00 -0.18588372084E+03  0.18588372084E+03  0.00000000000E+00 0.  1.
         -6    2    1    2    0  503  0.71129827556E+01  0.55325240741E+02 -0.10310783968E+03  0.20799868700E+03  0.17181603651E+03 0.  0.
        -24    2    3    3    0    0 -0.59402421346E+02  0.48376368003E+02 -0.81319658264E+02  0.13750471091E+03  0.80160701469E+02 0.  0.
          6    2    1    2  501    0 -0.71129827556E+01 -0.55325240741E+02  0.23937624440E+03  0.30003715940E+03  0.17207508202E+03 0.  0.
         24    2    5    5    0    0 -0.31322405522E+02  0.27354823918E+02  0.90542939459E+02  0.12800363970E+03  0.80358748187E+02 0.  0.
          5    1    5    5  501    0  0.24209422766E+02 -0.82680064659E+02  0.14883330494E+03  0.17203351971E+03  0.47000000000E+01 0. -1.
        -11    1    6    6    0    0  0.80062995019E+01  0.31226149139E+01  0.80207913762E+02  0.80666975806E+02  0.00000000000E+00 0.  1.
         12    1    6    6    0    0 -0.39328705024E+02  0.24232209004E+02  0.10335025697E+02  0.47336663890E+02  0.00000000000E+00 0. -1.
         -5    1    3    3    0  503  0.66515404102E+02  0.69488727388E+01 -0.21788181420E+02  0.70493976089E+02  0.47000000000E+01 0.  1.
         11    1    4    4    0    0 -0.26391747944E+02 -0.20972322319E+01 -0.71700834686E+02  0.76432535201E+02  0.00000000000E+00 0. -1.
        -12    1    4    4    0    0 -0.33010673402E+02  0.50473600234E+02 -0.96188235780E+01  0.61072175711E+02  0.00000000000E+00 0.  1.
</event>
<event>
12    1  0.8563264E-002  0.2393563E+03  0.7818608E-02  0.1120288E+00
         21   -1    0    0  503  502  0.00000000000E+00  0.00000000000E+00  0.15685643948E+03  0.15685643948E+03  0.00000000000E+00 0. -1.
         21   -1    0    0  501  503 -0.00000000000E+00 -0.00000000000E+00 -0.58146663847E+03  0.58146663847E+03  0.00000000000E+00 0. -1.
          6    2    1    2  501    0  0.12581125574E+03 -0.10799670283E+03 -0.43762169267E+03  0.49861336003E+03  0.17207782254E+03 0.  0.
         24    2    3    3    0    0  0.13312957608E+03 -0.83157164849E+02 -0.23410148895E+03  0.29339853653E+03  0.81489852253E+02 0.  0.
         -6    2    1    2    0  502 -0.12581125574E+03  0.10799670283E+03  0.13011493674E+02  0.23970971792E+03  0.17262586713E+03 0.  0.
        -24    2    5    5    0    0 -0.65330484806E+02  0.46655809430E+02  0.73777123992E+02  0.13418635233E+03  0.78218132991E+02 0.  0.
          5    1    3    3  501    0 -0.73183203323E+01 -0.24839537984E+02 -0.20352020373E+03  0.20521482350E+03  0.47000000000E+01 0. -1.
        -13    1    4    4    0    0  0.51915469176E+02 -0.74627515140E+02 -0.90954853895E+02  0.12859730714E+03  0.00000000000E+00 0.  1.
         14    1    4    4    0    0  0.81214106899E+02 -0.85296497094E+01 -0.14314663505E+03  0.16480122939E+03  0.00000000000E+00 0. -1.
         -5    1    5    5    0  502 -0.60480770938E+02  0.61340893403E+02 -0.60765630319E+02  0.10552336559E+03  0.47000000000E+01 0.  1.
         13    1    6    6    0    0 -0.20018468294E+02  0.30944527869E+02 -0.95242291275E+01  0.38065914128E+02  0.00000000000E+00 0. -1.
        -14    1    6    6    0    0 -0.45312016511E+02  0.15711281561E+02  0.83301353120E+02  0.96120438202E+02  0.00000000000E+00 0.  1.
</event>
<event>
12    1  0.8563264E-002  0.1812581E+03  0.7818608E-02  0.1166598E+00
         21   -1    0    0  501  502  0.00000000000E+00  0.00000000000E+00  0.18880042181E+03  0.18880042181E+03  0.00000000000E+00 0.  1.
         21   -1    0    0  502  503 -0.00000000000E+00 -0.00000000000E+00 -0.24270738928E+03  0.24270738928E+03  0.00000000000E+00 0.  1.
         -6    2    1    2    0  503  0.17464286297E+02  0.55533002407E+02 -0.14175518732E+03  0.23008332943E+03  0.17162426896E+03 0.  0.
        -24    2    3    3    0    0 -0.28112399770E+02  0.67271417012E+02 -0.34380155081E+02  0.11275254814E+03  0.78837754156E+02 0.  0.
          6    2    1    2  501    0 -0.17464286297E+02 -0.55533002407E+02  0.87848219843E+02  0.20142448166E+03  0.17165545849E+03 0.  0.
         24    2    5    5    0    0  0.53904467518E+02 -0.34916229451E+02  0.70967994168E+02  0.12509897893E+03  0.80551000215E+02 0.  0.
          5    1    5    5  501    0 -0.71368753815E+02 -0.20616772956E+02  0.16880225675E+02  0.76325502730E+02  0.47000000000E+01 0. -1.
        -13    1    6    6    0    0 -0.15853280370E+02 -0.28920891120E+02  0.21445924227E+02  0.39340463998E+02  0.00000000000E+00 0.  1.
         14    1    6    6    0    0  0.69757747887E+02 -0.59953383317E+01  0.49522069941E+02  0.85758514932E+02  0.00000000000E+00 0. -1.
         -5    1    3    3    0  503  0.45576686068E+02 -0.11738414605E+02 -0.10737503224E+03  0.11733078129E+03  0.47000000000E+01 0.  1.
         11    1    4    4    0    0 -0.12342851364E+02  0.31951041386E+02 -0.58051683393E+02  0.67403360229E+02  0.00000000000E+00 0. -1.
        -12    1    4    4    0    0 -0.15769548406E+02  0.35320375626E+02  0.23671528312E+02  0.45349187908E+02  0.00000000000E+00 0.  1.
</event>
<event>
12    1  0.8563264E-002  0.1752774E+03  0.7818608E-02  0.1172652E+00
         21   -1    0    0  501  502  0.00000000000E+00  0.00000000000E+00  0.37737174497E+03  0.37737174497E+03  0.00000000000E+00 0.  1.
         21   -1    0    0  502  503 -0.00000000000E+00 -0.00000000000E+00 -0.82437192862E+02  0.82437192862E+02  0.00000000000E+00 0.  1.
         -6    2    1    2    0  503  0.23723088963E+02  0.22320812594E+02  0.17768968395E+03  0.24959124167E+03  0.17222415775E+03 0.  0.
        -24    2    3    3    0    0  0.53099460472E+02 -0.24346685196E+02  0.17261597692E+03  0.19401553605E+03  0.66584074342E+02 0.  0.
          6    2    1    2  501    0 -0.23723088963E+02 -0.22320812594E+02  0.11724486815E+03  0.21021769616E+03  0.17141796010E+03 0.  0.
         24    2    5    5    0    0  0.47937280792E+02 -0.37243987731E+02  0.51312343306E+02  0.11159164695E+03  0.78323952791E+02 0.  0.
          5    1    5    5  501    0 -0.71660369755E+02  0.14923175137E+02  0.65932524848E+02  0.98626049208E+02  0.47000000000E+01 0. -1.
        -13    1    6    6    0    0  0.35515238402E+02 -0.23395233720E+02  0.72091734502E+02  0.83701178624E+02  0.00000000000E+00 0.  1.
         14    1    6    6    0    0  0.12422042391E+02 -0.13848754010E+02 -0.20779391196E+02  0.27890468323E+02  0.00000000000E+00 0. -1.
         -5    1    3    3    0  503 -0.29376371508E+02  0.46667497790E+02  0.50737070291E+01  0.55575705627E+02  0.47000000000E+01 0.  1.
         11    1    4    4    0    0  0.84621630475E+00 -0.28882588575E+02  0.10223873960E+03  0.10624349335E+03  0.00000000000E+00 0. -1.
        -12    1    4    4    0    0  0.52253244167E+02  0.45359033792E+01  0.70377237322E+02  0.87772042693E+02  0.00000000000E+00 0.  1.
</event>
<event>
12    1  0.8563264E-002  0.3060376E+03  0.7818608E-02  0.1082306E+00
         21   -1    0    0  503  502  0.00000000000E+00  0.00000000000E+00  0.21457365170E+03  0.21457365170E+03  0.00000000000E+00 0. -1.
         21   -1    0    0  501  503 -0.00000000000E+00 -0.00000000000E+00 -0.44393371473E+03  0.44393371473E+03  0.00000000000E+00 0.  1.
          6    2    1    2  501    0  0.25229726475E+03  0.22815010518E+02 -0.15886431632E+03  0.34481430427E+03  0.17171080025E+03 0.  0.
         24    2    3    3    0    0  0.16360439456E+03 -0.51959698918E+02 -0.79673052504E+02  0.20427595129E+03  0.76906831608E+02 0.  0.
         -6    2    1    2    0  502 -0.25229726475E+03 -0.22815010518E+02 -0.70495746707E+02  0.31369306216E+03  0.17105336139E+03 0.  0.
        -24    2    5    5    0    0 -0.20092657614E+03 -0.76852022906E+02 -0.65247260285E+02  0.23880258904E+03  0.80571391513E+02 0.  0.
          5    1    3    3  501    0  0.88692870186E+02  0.74774709436E+02 -0.79191263820E+02  0.14053835298E+03  0.47000000000E+01 0. -1.
        -11    1    4    4    0    0  0.15337750831E+03 -0.45375172490E+02 -0.93966142104E+02  0.18550795723E+03  0.00000000000E+00 0.  1.
         12    1    4    4    0    0  0.10226886253E+02 -0.65845264284E+01  0.14293089600E+02  0.18767994059E+02  0.00000000000E+00 0. -1.
         -5    1    5    5    0  502 -0.51370688601E+02  0.54037012388E+02 -0.52484864220E+01  0.74890473125E+02  0.47000000000E+01 0.  1.
         13    1    6    6    0    0 -0.11483109036E+03 -0.81513889632E+02 -0.22646239941E+02  0.14263080207E+03  0.00000000000E+00 0. -1.
        -14    1    6    6    0    0 -0.86095485782E+02  0.46618667255E+01 -0.42601020344E+02  0.96171786964E+02  0.00000000000E+00 0.  1.
</event>
<event>
12    1  0.8563264E-002  0.2445236E+03  0.7818608E-02  0.1116850E+00
         21   -1    0    0  501  502  0.00000000000E+00  0.00000000000E+00  0.28610219031E+03  0.28610219031E+03  0.00000000000E+00 0.  1.
         21   -1    0    0  502  503 -0.00000000000E+00 -0.00000000000E+00 -0.16128475375E+04  0.16128475375E+04  0.00000000000E+00 0.  1.
         -6    2    1    2    0  503 -0.16496127279E+03 -0.53778141453E+02 -0.15492191369E+04  0.15683648131E+04  0.17199983365E+03 0.  0.
        -24    2    3    3    0    0 -0.89056428599E+02 -0.99755528286E+02 -0.96637101244E+03  0.97878064466E+03  0.79097432216E+02 0.  0.
          6    2    1    2  501    0  0.16496127279E+03  0.53778141453E+02  0.22247378976E+03  0.33058491467E+03  0.17230057648E+03 0.  0.
         24    2    5    5    0    0  0.10572190826E+03  0.70890033564E+02  0.22210745218E+03  0.26874363910E+03  0.81785723062E+02 0.  0.
          5    1    5    5  501    0  0.59239364526E+02 -0.17111892111E+02  0.36633758605E+00  0.61841275571E+02  0.47000000000E+01 0. -1.
        -11    1    6    6    0    0  0.10220839373E+03  0.25572040656E+02  0.14499762460E+03  0.17923391463E+03  0.00000000000E+00 0.  1.
         12    1    6    6    0    0  0.35135145279E+01  0.45317992907E+02  0.77109827575E+02  0.89509724467E+02  0.00000000000E+00 0. -1.
         -5    1    3    3    0  503 -0.75904844189E+02  0.45977386834E+02 -0.58284812448E+03  0.58958416844E+03  0.47000000000E+01 0.  1.
         13    1    4    4    0    0  0.99924718815E+01 -0.31432365795E+02 -0.28076339950E+03  0.28269405656E+03  0.00000000000E+00 0. -1.
        -14    1    4    4    0    0 -0.99048900481E+02 -0.68323162492E+02 -0.68560761294E+03  0.69608658810E+03  0.00000000000E+00 0.  1.
</event>
<event>
12    1  0.8563264E-002  0.2029177E+03  0.7818608E-02  0.1147384E+00
         21   -1    0    0  501  502  0.00000000000E+00  0.00000000000E+00  0.11009250367E+03  0.11009250367E+03  0.00000000000E+00 0. -1.
         21   -1    0    0  502  503 -0.00000000000E+00 -0.00000000000E+00 -0.37508818208E+03  0.37508818208E+03  0.00000000000E+00 0. -1.
         -6    2    1    2    0  503 -0.10323647193E+03  0.28927234276E+02 -0.11570445091E+03  0.23358749873E+03  0.17228187828E+03 0.  0.
        -24    2    3    3    0    0 -0.11731085753E+03 -0.22419404114E+02 -0.57052589190E+02  0.15423577230E+03  0.79178333839E+02 0.  0.
          6    2    1    2  501    0  0.10323647193E+03 -0.28927234276E+02 -0.14929122749E+03  0.25159318702E+03  0.17180426982E+03 0.  0.
         24    2    5    5    0    0  0.37223237054E+00 -0.17055574863E+02 -0.11702432406E+03  0.14303338261E+03  0.80453868324E+02 0.  0.
          5    1    5    5  501    0  0.10286423956E+03 -0.11871659412E+02 -0.32266903434E+02  0.10855980441E+03  0.47000000000E+01 0. -1.
        -13    1    6    6    0    0 -0.22337595191E+02  0.14167649814E+02 -0.84026604500E+01  0.27754191806E+02  0.00000000000E+00 0.  1.
         14    1    6    6    0    0  0.22709827561E+02 -0.31223224677E+02 -0.10862166361E+03  0.11527919080E+03  0.00000000000E+00 0. -1.
         -5    1    3    3    0  503  0.14074385602E+02  0.51346638389E+02 -0.58651861719E+02  0.79351726428E+02  0.47000000000E+01 0.  1.
         11    1    4    4    0    0 -0.58142315706E+02  0.25880195228E+02 -0.42375917176E+02  0.76459346958E+02  0.00000000000E+00 0. -1.
        -12    1    4    4    0    0 -0.59168541822E+02 -0.48299599341E+02 -0.14676672013E+02  0.77776425344E+02  0.00000000000E+00 0.  1.
</event>
<event>
12    1  0.8563264E-002  0.2370972E+03  0.7818608E-02  0.1121755E+00
         21   -1    0    0  503  502  0.00000000000E+00  0.00000000000E+00  0.19544214823E+03  0.19544214823E+03  0.00000000000E+00 0.  1.
         21   -1    0    0  501  503 -0.00000000000E+00 -0.00000000000E+00 -0.37522997743E+03  0.37522997743E+03  0.00000000000E+00 0. -1.
          6    2    1    2  501    0 -0.16307101978E+03  0.69802521244E+01 -0.22784487688E+03  0.32882876845E+03  0.17197147911E+03 0.  0.
         24    2    3    3    0    0 -0.15037186588E+03  0.10116336599E+02 -0.25021854181E+03  0.30248917054E+03  0.78589702350E+02 0.  0.
         -6    2    1    2    0  502  0.16307101978E+03 -0.69802521244E+01  0.48057047683E+02  0.24184335721E+03  0.17186578537E+03 0.  0.
        -24    2    5    5    0    0  0.15188421388E+03 -0.36234448812E+02 -0.10834251750E+02  0.17497611710E+03  0.78214518079E+02 0.  0.
          5    1    3    3  501    0 -0.12699153894E+02 -0.31360844747E+01  0.22373664927E+02  0.26339597904E+02  0.47000000000E+01 0. -1.
        -11    1    4    4    0    0 -0.47996873194E+02  0.35321917944E+02 -0.57471424131E+02  0.82790713943E+02  0.00000000000E+00 0.  1.
         12    1    4    4    0    0 -0.10237499269E+03 -0.25205581345E+02 -0.19274711768E+03  0.21969845660E+03  0.00000000000E+00 0. -1.
         -5    1    5    5    0  502  0.11186805895E+02  0.29254196687E+02  0.58891299432E+02  0.66867240101E+02  0.47000000000E+01 0.  1.
         11    1    6    6    0    0  0.10618707513E+03  0.50025366999E+01 -0.30091002852E+02  0.11048162178E+03  0.00000000000E+00 0. -1.
        -12    1    6    6    0    0  0.45697138751E+02 -0.41236985512E+02  0.19256751102E+02  0.64494495325E+02  0.00000000000E+00 0.  1.
</event>
<event>
12    1  0.8563264E-002  0.1977752E+03  0.7818608E-02  0.1152480E+00
         21   -1    0    0  501  502  0.00000000000E+00  0.00000000000E+00  0.18709703902E+03  0.18709703902E+03  0.00000000000E+00 0. -1.
         21   -1    0    0  502  503 -0.00000000000E+00 -0.00000000000E+00 -0.20496105518E+03  0.20496105518E+03  0.00000000000E+00 0.  1.
         -6    2    1    2    0  503  0.11623630207E+02 -0.93229886804E+02 -0.64286394547E+01  0.19395254043E+03  0.16955630322E+03 0.  0.
        -24    2    3    3    0    0 -0.46647111823E+02 -0.97167411756E+02 -0.12714431743E+02  0.13502389999E+03  0.80326445485E+02 0.  0.
          6    2    1    2  501    0 -0.11623630207E+02  0.93229886804E+02 -0.11435376706E+02  0.19810555378E+03  0.17403482992E+03 0.  0.
         24    2    5    5    0    0 -0.22185896790E+02  0.28590166969E+02  0.56131125783E+02  0.10388678116E+03  0.79574797228E+02 0.  0.
          5    1    5    5  501    0  0.10562266583E+02  0.64639719835E+02 -0.67566502489E+02  0.94218772621E+02  0.47000000000E+01 0. -1.
        -13    1    6    6    0    0  0.20687706225E+02  0.19961496790E+02 -0.45320492804E+01  0.29102955410E+02  0.00000000000E+00 0.  1.
         14    1    6    6    0    0 -0.42873603015E+02  0.86286701797E+01  0.60663175063E+02  0.74783825747E+02  0.00000000000E+00 0. -1.
         -5    1    3    3    0  503  0.58270742030E+02  0.39375249516E+01  0.62857922882E+01  0.58928640441E+02  0.47000000000E+01 0.  1.
         11    1    4    4    0    0 -0.20585733963E+02 -0.71064479696E+02  0.28886656070E+02  0.79425258049E+02  0.00000000000E+00 0. -1.
        -12    1    4    4    0    0 -0.26061377860E+02 -0.26102932060E+02 -0.41601087813E+02  0.55598641938E+02  0.00000000000E+00 0.  1.
</event>
<event>
12    1  0.8563264E-002  0.3225708E+03  0.7818608E-02  0.1074561E+00
         21   -1    0    0  503  502  0.00000000000E+00  0.00000000000E+00  0.93547980314E+03  0.93547980314E+03  0.00000000000E+00 0.  1.
         21   -1    0    0  501  503 -0.00000000000E+00 -0.00000000000E+00 -0.12873961609E+03  0.12873961609E+03  0.00000000000E+00 0. -1.
          6    2    1    2  501    0 -0.24437177307E+03 -0.12148244607E+03  0.20604878890E+03  0.38276369161E+03  0.17197788240E+03 0.  0.
         24    2    3    3    0    0 -0.14291130587E+03 -0.14071020925E+03  0.16533534449E+03  0.27166190118E+03  0.79002582778E+02 0.  0.
         -6    2    1    2    0  502  0.24437177307E+03  0.12148244607E+03  0.60069139816E+03  0.68145572762E+03  0.17051746159E+03 0.  0.
        -24    2    5    5    0    0  0.18910485808E+03  0.22163129449E+02  0.36314780443E+03  0.41807803785E+03  0.81615355253E+02 0.  0.
          5    1    3    3  501    0 -0.10146046720E+03  0.19227763175E+02  0.40713444411E+02  0.11110179043E+03  0.47000000000E+01 0. -1.
        -11    1    4    4    0    0 -0.27590557569E+02 -0.68966624793E+02  0.30554126208E+02  0.80319293016E+02  0.00000000000E+00 0.  1.
         12    1    4    4    0    0 -0.11532074830E+03 -0.71743584455E+02  0.13478121828E+03  0.19134260817E+03  0.00000000000E+00 0. -1.
         -5    1    5    5    0  502  0.55266914986E+02  0.99319316623E+02  0.23754359372E+03  0.26337768977E+03  0.47000000000E+01 0.  1.
         11    1    6    6    0    0  0.37995151509E+02 -0.43948563520E+01  0.22259573976E+02  0.44254208095E+02  0.00000000000E+00 0. -1.
        -12    1    6    6    0    0  0.15110970657E+03  0.26557985801E+02  0.34088823046E+03  0.37382382976E+03  0.00000000000E+00 0.  1.
</event>
<event>
12    1  0.8563264E-002  0.2156074E+03  0.7818608E-02  0.1137420E+00
         21   -1    0    0  503  502  0.00000000000E+00  0.00000000000E+00  0.60708012162E+03  0.60708012162E+03  0.00000000000E+00 0. -1.
         21   -1    0    0  501  503 -0.00000000000E+00 -0.00000000000E+00 -0.10902921042E+03  0.10902921042E+03  0.00000000000E+00 0. -1.
          6    2    1    2  501    0  0.11451813406E+03  0.64410413467E+02  0.51994042301E+02  0.22067690701E+03  0.16950460897E+03 0.  0.
         24    2    3    3    0    0  0.53185084873E+02  0.85690831379E+02  0.78426208821E+02  0.15042487120E+03  0.79406547645E+02 0.  0.
         -6    2    1    2    0  502 -0.11451813406E+03 -0.64410413467E+02  0.44605686890E+03  0.49543242503E+03  0.17094868555E+03 0.  0.
        -24    2    5    5    0    0 -0.82498386882E+02 -0.59658111176E+02  0.44423000106E+03  0.46267153322E+03  0.79746973217E+02 0.  0.
          5    1    3    3  501    0  0.61333049189E+02 -0.21280417912E+02 -0.26432166521E+02  0.70252035816E+02  0.47000000000E+01 0. -1.
        -13    1    4    4    0    0  0.21747255760E+02 -0.78854346455E+01  0.36414579650E+02  0.43140987746E+02  0.00000000000E+00 0.  1.
         14    1    4    4    0    0  0.31437829114E+02  0.93576266024E+02  0.42011629171E+02  0.10728388345E+03  0.00000000000E+00 0. -1.
         -5    1    5    5    0  502 -0.32019747180E+02 -0.47523022911E+01  0.18268678352E+01  0.32760891817E+02  0.47000000000E+01 0.  1.
         13    1    6    6    0    0 -0.61246846795E+02 -0.71319812940E+02  0.25281799049E+03  0.26973065876E+03  0.00000000000E+00 0. -1.
        -14    1    6    6    0    0 -0.21251540087E+02  0.11661701763E+02  0.19141201058E+03  0.19294087446E+03  0.00000000000E+00 0.  1.
</event>
<event>
12    1  0.8563264E-002  0.1789514E+03  0.7818608E-02  0.1168907E+00
         21   -1    0    0  503  502  0.00000000000E+00  0.00000000000E+00  0.36003512647E+03  0.36003512647E+03  0.00000000000E+00 0.  1.
         21   -1    0    0  501  503 -0.00000000000E+00 -0.00000000000E+00 -0.99161723386E+02  0.99161723386E+02  0.00000000000E+00 0. -1.
          6    2    1    2  501    0  0.46375632573E+02  0.18968720624E+02  0.56003191669E+02  0.18717587419E+03  0.17142910705E+03 0.  0.
         24    2    3    3    0    0  0.63898667053E+02 -0.14542384756E+02  0.89991553504E+02  0.13611366056E+03  0.78319399145E+02 0.  0.
         -6    2    1    2    0  502 -0.46375632573E+02 -0.18968720624E+02  0.20487021142E+03  0.27202097566E+03  0.17179376012E+03 0.  0.
        -24    2    5    5    0    0 -0.37128371643E+01  0.15121010922E+02  0.20124426656E+03  0.21708955128E+03  0.79913630381E+02 0.  0.
          5    1    3    3  501    0 -0.17523034480E+02  0.33511105381E+02 -0.33988361835E+02  0.51062213636E+02  0.47000000000E+01 0. -1.
        -13    1    4    4    0    0  0.63203493103E+02  0.18839566274E+02  0.73898680533E+02  0.99048603131E+02  0.00000000000E+00 0.  1.
         14    1    4    4    0    0  0.69517395023E+00 -0.33381951031E+02  0.16092872971E+02  0.37065057425E+02  0.00000000000E+00 0. -1.
         -5    1    5    5    0  502 -0.42662795409E+02 -0.34089731546E+02  0.36259448588E+01  0.54931424386E+02  0.47000000000E+01 0.  1.
         11    1    6    6    0    0  0.21182572559E+02 -0.13159645319E+02  0.15703660920E+03  0.15900432155E+03  0.00000000000E+00 0. -1.
        -12    1    6    6    0    0 -0.24895409723E+02  0.28280656241E+02  0.44207657362E+02  0.58085229725E+02  0.00000000000E+00 0.  1.
</event>
<event>
12    1  0.8563264E-002  0.2009027E+03  0.7818608E-02  0.1151610E+00
         21   -1    0    0  503  502  0.00000000000E+00  0.00000000000E+00  0.20806219002E+02  0.20806219002E+02  0.00000000000E+00 0.  1.
         21   -1    0    0  501  503 -0.00000000000E+00 -0.00000000000E+00 -0.24896472845E+04  0.24896472845E+04  0.00000000000E+00 0.  1.
          6    2    1    2  501    0  0.44498109732E+02  0.68807150364E+02 -0.19111425213E+04  0.19216731321E+04  0.18343223308E+03 0.  0.
         24    2    3    3    0    0 -0.17239103763E+02  0.10094279007E+03 -0.11241158509E+04  0.11315609548E+04  0.79417343649E+02 0.  0.
         -6    2    1    2    0  502 -0.44498109732E+02 -0.68807150364E+02 -0.55769854416E+03  0.58878037139E+03  0.17005926572E+03 0.  0.
        -24    2    5    5    0    0 -0.35778494912E+02 -0.11280045165E+03 -0.44680223480E+03  0.46906602943E+03  0.79916583671E+02 0.  0.
          5    1    3    3  501    0  0.61737213495E+02 -0.32135639705E+02 -0.78702667038E+03  0.79011217733E+03  0.47000000000E+01 0. -1.
        -11    1    4    4    0    0 -0.10016721117E+02  0.45654905262E+02 -0.87648480084E+03  0.87773020409E+03  0.00000000000E+00 0.  1.
         12    1    4    4    0    0 -0.72223826461E+01  0.55287884806E+02 -0.24763105009E+03  0.25383075067E+03  0.00000000000E+00 0. -1.
         -5    1    5    5    0  502 -0.87196148201E+01  0.43993301290E+02 -0.11089630936E+03  0.11971434196E+03  0.47000000000E+01 0.  1.
         13    1    6    6    0    0  0.13313217429E+02  0.57275645995E+01 -0.43633104224E+02  0.45977108856E+02  0.00000000000E+00 0. -1.
        -14    1    6    6    0    0 -0.49091712341E+02 -0.11852801625E+03 -0.40316913058E+03  0.42308892057E+03  0.00000000000E+00 0.  1.
</event>
<event>
12    1  0.8563264E-002  0.2216925E+03  0.7818608E-02  0.1132891E+00
         21   -1    0    0  503  502  0.00000000000E+00  0.00000000000E+00  0.13746846910E+04  0.13746846910E+04  0.00000000000E+00 0. -1.
         21   -1    0    0  501  503 -0.00000000000E+00 -0.00000000000E+00 -0.35591026933E+02  0.35591026933E+02  0.00000000000E+00 0. -1.
          6    2    1    2  501    0 -0.12382806221E+03 -0.62451210418E+02  0.70266242549E+03  0.73680528916E+03  0.17295666297E+03 0.  0.
         24    2    3    3    0    0 -0.85625388448E+02  0.30172421698E+02  0.32774258994E+03  0.34870020726E+03  0.77036011734E+02 0.  0.
         -6    2    1    2    0  502  0.12382806221E+03  0.62451210418E+02  0.63643123854E+03  0.67347042874E+03  0.17112613570E+03 0.  0.
        -24    2    5    5    0    0  0.11524875379E+03 -0.17476388793E+02  0.39867979501E+03  0.42245277090E+03  0.77026393335E+02 0.  0.
          5    1    3    3  501    0 -0.38202673762E+02 -0.92623632116E+02  0.37491983554E+03  0.38810508189E+03  0.47000000000E+01 0. -1.
        -11    1    4    4    0    0 -0.40725461604E+02  0.29515532773E+02  0.27440747063E+03  0.27897883403E+03  0.00000000000E+00 0.  1.
         12    1    4    4    0    0 -0.44899926843E+02  0.65688892514E+00  0.53335119315E+02  0.69721373237E+02  0.00000000000E+00 0. -1.
         -5    1    5    5    0  502  0.85793084192E+01  0.79927599211E+02  0.23775144353E+03  0.25101765784E+03  0.47000000000E+01 0.  1.
         11    1    6    6    0    0  0.51406376022E+02 -0.39817237648E+02  0.12953615043E+03  0.14494013308E+03  0.00000000000E+00 0. -1.
        -12    1    6    6    0    0  0.63842377769E+02  0.22340848855E+02  0.26914364458E+03  0.27751263781E+03  0.00000000000E+00 0.  1.
</event>
<event>
12    1  0.8563264E-002  0.2129961E+03  0.7818608E-02  0.1139847E+00
         21   -1    0    0  501  502  0.00000000000E+00  0.00000000000E+00  0.18957876344E+03  0.18957876344E+03  0.00000000000E+00 0. -1.
         21   -1    0    0  502  503 -0.00000000000E+00 -0.00000000000E+00 -0.44882263562E+03  0.44882263562E+03  0.00000000000E+00 0.  1.
         -6    2    1    2    0  503  0.22830350397E+02  0.12060569970E+03 -0.35009962960E+03  0.40980128587E+03  0.17407005358E+03 0.  0.
        -24    2    3    3    0    0  0.42118279680E+02  0.15038256254E+03 -0.30985686667E+03  0.35594726332E+03  0.79361904222E+02 0.  0.
          6    2    1    2  501    0 -0.22830350397E+02 -0.12060569970E+03  0.90855757418E+02  0.22860011319E+03  0.17010668239E+03 0.  0.
         24    2    5    5    0    0  0.38089934934E+02 -0.28118079300E+02  0.13052481895E+02  0.93172343605E+02  0.79178588029E+02 0.  0.
          5    1    5    5  501    0 -0.60920285332E+02 -0.92487620400E+02  0.77803275523E+02  0.13542776958E+03  0.47000000000E+01 0. -1.
        -13    1    6    6    0    0  0.35493242953E+02  0.13027616437E+02  0.30330255889E+02  0.48470748990E+02  0.00000000000E+00 0.  1.
         14    1    6    6    0    0  0.25966919812E+01 -0.41145695737E+02 -0.17277773994E+02  0.44701594615E+02  0.00000000000E+00 0. -1.
         -5    1    3    3    0  503 -0.19287929282E+02 -0.29776862838E+02 -0.40242762930E+02  0.53854022549E+02  0.47000000000E+01 0.  1.
         13    1    4    4    0    0  0.46200647370E+02  0.96513372306E+02 -0.13119911972E+03  0.16930014727E+03  0.00000000000E+00 0. -1.
        -14    1    4    4    0    0 -0.40823676902E+01  0.53869190232E+02 -0.17865774696E+03  0.18664711605E+03  0.00000000000E+00 0.  1.
</event>
<event>
12    1  0.8563264E-002  0.2102154E+03  0.7818608E-02  0.1141557E+00
         21   -1    0    0  503  502  0.00000000000E+00  0.00000000000E+00  0.75025244762E+02  0.75025244762E+02  0.00000000000E+00 0.  1.
         21   -1    0    0  501  503 -0.00000000000E+00 -0.00000000000E+00 -0.13566427535E+04  0.13566427535E+04  0.00000000000E+00 0.  1.
          6    2    1    2  501    0  0.96293293569E+02  0.67943347021E+02 -0.11795333172E+04  0.11979765108E+04  0.17309008405E+03 0.  0.
         24    2    3    3    0    0 -0.80189404511E+01  0.62033407589E+02 -0.47267074981E+03  0.48341878132E+03  0.79772384589E+02 0.  0.
         -6    2    1    2    0  502 -0.96293293569E+02 -0.67943347021E+02 -0.10208419155E+03  0.23369148750E+03  0.17407421513E+03 0.  0.
        -24    2    5    5    0    0 -0.60305328656E+02  0.15460835520E+02 -0.22886022642E+02  0.11308538797E+03  0.91590200576E+02 0.  0.
          5    1    3    3  501    0  0.10431223402E+03  0.59099394320E+01 -0.70686256739E+03  0.71455772946E+03  0.47000000000E+01 0. -1.
        -13    1    4    4    0    0  0.21584945297E+02  0.25541948356E+02 -0.35707349990E+03  0.35863600673E+03  0.00000000000E+00 0.  1.
         14    1    4    4    0    0 -0.29603885748E+02  0.36491459234E+02 -0.11559724990E+03  0.12478277459E+03  0.00000000000E+00 0. -1.
         -5    1    5    5    0  502 -0.35987964914E+02 -0.83404182542E+02 -0.79198168908E+02  0.12060609952E+03  0.47000000000E+01 0.  1.
         11    1    6    6    0    0 -0.36868496369E+02 -0.24527046863E+02  0.21220203174E+02  0.49103554608E+02  0.00000000000E+00 0. -1.
        -12    1    6    6    0    0 -0.23436832286E+02  0.39987882383E+02 -0.44106225816E+02  0.63981833366E+02  0.00000000000E+00 0.  1.
</event>
<event>
12    1  0.8563264E-002  0.2358946E+03  0.7818608E-02  0.1123308E+00
         21   -1    0    0  503  502  0.00000000000E+00  0.00000000000E+00  0.29565002413E+03  0.29565002413E+03  0.00000000000E+00 0.  1.
         21   -1    0    0  501  503 -0.00000000000E+00 -0.00000000000E+00 -0.21083390472E+03  0.21083390472E+03  0.00000000000E+00 0. -1.
          6    2    1    2  501    0  0.69355353777E+02 -0.13869058957E+03 -0.47000694612E+02  0.23625825643E+03  0.17194084362E+03 0.  0.
         24    2    3    3    0    0 -0.18914257964E+02 -0.10613146374E+03 -0.91477898338E+01  0.13473705947E+03  0.80304149244E+02 0.  0.
         -6    2    1    2    0  502 -0.69355353777E+02  0.13869058957E+03  0.13181681402E+03  0.27022567242E+03  0.17776669217E+03 0.  0.
        -24    2    5    5    0    0  0.20929410418E+02  0.81549429182E+02  0.10633519245E+03  0.16028089586E+03  0.85407510226E+02 0.  0.
          5    1    3    3  501    0  0.88269611742E+02 -0.32559125831E+02 -0.37852904778E+02  0.10152119696E+03  0.47000000000E+01 0. -1.
        -13    1    4    4    0    0  0.29713126775E+02 -0.21589548529E+02 -0.55147118159E+01  0.37140147480E+02  0.00000000000E+00 0.  1.
         14    1    4    4    0    0 -0.48627384740E+02 -0.84541915206E+02 -0.36330780179E+01  0.97596911986E+02  0.00000000000E+00 0. -1.
         -5    1    5    5    0  502 -0.90284764195E+02  0.57141160385E+02  0.25481621568E+02  0.10994477656E+03  0.47000000000E+01 0.  1.
         11    1    6    6    0    0  0.43743969337E+02  0.72780498044E+02  0.49203036954E+02  0.98140076393E+02  0.00000000000E+00 0. -1.
        -12    1    6    6    0    0 -0.22814558920E+02  0.87689311377E+01  0.57132155496E+02  0.62140819464E+02  0.00000000000E+00 0.  1.
</event>
<event>
12    1  0.8563264E-002  0.2802417E+03  0.7818608E-02  0.1095677E+00
         21   -1    0    0  503  502  0.00000000000E+00  0.00000000000E+00  0.14622454061E+03  0.14622454061E+03  0.00000000000E+00 0. -1.
         21   -1    0    0  501  503 -0.00000000000E+00 -0.00000000000E+00 -0.57644259201E+03  0.57644259201E+03  0.00000000000E+00 0.  1.
          6    2    1    2  501    0  0.20799638049E+03 -0.72470512198E+02 -0.31183848400E+03  0.41925961592E+03  0.17326544955E+03 0.  0.
         24    2    3    3    0    0  0.18117015390E+03 -0.11255760152E+03 -0.23113436400E+03  0.32512213057E+03  0.82398223529E+02 0.  0.
         -6    2    1    2    0  502 -0.20799638049E+03  0.72470512198E+02 -0.11837956741E+03  0.30340751670E+03  0.17183692786E+03 0.  0.
        -24    2    5    5    0    0 -0.11192766267E+03  0.45396218222E+02  0.50677239693E+01  0.14458831230E+03  0.79318849765E+02 0.  0.
          5    1    3    3  501    0  0.26826226587E+02  0.40087089326E+02 -0.80704119997E+02  0.94137485350E+02  0.47000000000E+01 0. -1.
        -11    1    4    4    0    0  0.15668064157E+03 -0.61353993380E+02 -0.19621071708E+03  0.25847975055E+03  0.00000000000E+00 0.  1.
         12    1    4    4    0    0  0.24489512327E+02 -0.51203608144E+02 -0.34923646928E+02  0.66642380027E+02  0.00000000000E+00 0. -1.
         -5    1    5    5    0  502 -0.96068717812E+02  0.27074293976E+02 -0.12344729138E+03  0.15881920439E+03  0.47000000000E+01 0.  1.
         13    1    6    6    0    0 -0.77469648542E+02  0.13897096722E+02 -0.32013750902E+02  0.84967970373E+02  0.00000000000E+00 0. -1.
        -14    1    6    6    0    0 -0.34458014132E+02  0.31499121501E+02  0.37081474872E+02  0.59620341930E+02  0.00000000000E+00 0.  1.
</event>
<event>
12    1  0.8563264E-002  0.2285428E+03  0.7818608E-02  0.1127832E+00
         21   -1    0    0  503  502  0.00000000000E+00  0.00000000000E+00  0.15554097345E+03  0.15554097345E+03  0.00000000000E+00 0.  1.
         21   -1    0    0  501  503 -0.00000000000E+00 -0.00000000000E+00 -0.79714557461E+03  0.79714557461E+03  0.00000000000E+00 0.  1.
          6    2    1    2  501    0  0.49200606005E+02 -0.14209260132E+03 -0.68397625069E+03  0.72114862653E+03  0.17210701046E+03 0.  0.
         24    2    3    3    0    0  0.74874478752E+01 -0.82118414463E+02 -0.18992625668E+03  0.22170455836E+03  0.79255487816E+02 0.  0.
         -6    2    1    2    0  502 -0.49200606005E+02  0.14209260132E+03  0.42371649533E+02  0.23153792152E+03  0.17089015606E+03 0.  0.
        -24    2    5    5    0    0 -0.55844571435E+01  0.12040538033E+02  0.49483392286E+02  0.94102211131E+02  0.78933258579E+02 0.  0.
          5    1    3    3  501    0  0.41713158130E+02 -0.59974186856E+02 -0.49404999401E+03  0.49944406817E+03  0.47000000000E+01 0. -1.
        -11    1    4    4    0    0  0.27672208097E+02 -0.14640614416E+01 -0.74223182122E+02  0.79227364851E+02  0.00000000000E+00 0.  1.
         12    1    4    4    0    0 -0.20184760222E+02 -0.80654353021E+02 -0.11570307456E+03  0.14247719351E+03  0.00000000000E+00 0. -1.
         -5    1    5    5    0  502 -0.43616148862E+02  0.13005206329E+03 -0.71117427530E+01  0.13743571039E+03  0.47000000000E+01 0.  1.
         13    1    6    6    0    0  0.29327779061E+02  0.11885421314E+02 -0.22120843871E+01  0.31721840770E+02  0.00000000000E+00 0. -1.
        -14    1    6    6    0    0 -0.34912236205E+02  0.15511671879E+00  0.51695476673E+02  0.62380370361E+02  0.00000000000E+00 0.  1.
</event>
<event>
12    1  0.8563264E-002  0.2115701E+03  0.7818608E-02  0.1140701E+00
         21   -1    0    0  501  502  0.00000000000E+00  0.00000000000E+00  0.74611688732E+02  0.74611688732E+02  0.00000000000E+00 0. -1.
         21   -1    0    0  502  503 -0.00000000000E+00 -0.00000000000E+00 -0.73355594392E+03  0.73355594392E+03  0.00000000000E+00 0.  1.
         -6    2    1    2    0  503 -0.11788474902E+03 -0.26488531337E+02 -0.50654865413E+03  0.54895669512E+03  0.17367630170E+03 0.  0.
        -24    2    3    3    0    0 -0.11520534972E+03 -0.33385754281E+02 -0.22511214403E+03  0.26738370267E+03  0.80197792156E+02 0.  0.
          6    2    1    2  501    0  0.11788474902E+03  0.26488531337E+02 -0.15239560106E+03  0.25921093754E+03  0.17136929297E+03 0.  0.
         24    2    5    5    0    0  0.68778126529E+02 -0.51140856927E+02 -0.10266146406E+03  0.15464824496E+03  0.77658776270E+02 0.  0.
          5    1    5    5  501    0  0.49106622490E+02  0.77629388264E+02 -0.49734137006E+02  0.10456269257E+03  0.47000000000E+01 0. -1.
        -11    1    6    6    0    0 -0.27731882823E+01  0.82254639311E+00  0.10581016755E+02  0.10969278526E+02  0.00000000000E+00 0.  1.
         12    1    6    6    0    0  0.71551314811E+02 -0.51963403320E+02 -0.11324248081E+03  0.14367896644E+03  0.00000000000E+00 0. -1.
         -5    1    3    3    0  503 -0.26793992976E+01  0.68972229431E+01 -0.28143651009E+03  0.28157299245E+03  0.47000000000E+01 0.  1.
         11    1    4    4    0    0 -0.55331862902E+02 -0.11342911849E+02 -0.34054438115E+02  0.65954389215E+02  0.00000000000E+00 0. -1.
        -12    1    4    4    0    0 -0.59873486819E+02 -0.22042842432E+02 -0.19105770592E+03  0.20142931345E+03  0.00000000000E+00 0.  1.
</event>
<event>
12    1  0.8563264E-002  0.1979259E+03  0.7818608E-02  0.1152047E+00
         21   -1    0    0  503  502  0.00000000000E+00  0.00000000000E+00  0.22961238981E+04  0.22961238981E+04  0.00000000000E+00 0.  1.
         21   -1    0    0  501  503 -0.00000000000E+00 -0.00000000000E+00 -0.34840435840E+02  0.34840435840E+02  0.00000000000E+00 0.  1.
          6    2    1    2  501    0 -0.11330726077E+02 -0.96519180574E+02  0.29651899578E+03  0.35650828463E+03  0.17242477948E+03 0.  0.
         24    2    3    3    0    0 -0.55173320074E+02 -0.46942770221E+02  0.92221642750E+02  0.14170723257E+03  0.79551175019E+02 0.  0.
         -6    2    1    2    0  502  0.11330726077E+02  0.96519180574E+02  0.19647644665E+04  0.19744560493E+04  0.16950794772E+03 0.  0.
        -24    2    5    5    0    0  0.67097317497E+02  0.32008403527E+02  0.11519428769E+04  0.11571601546E+04  0.80750503206E+02 0.  0.
          5    1    3    3  501    0  0.43842593997E+02 -0.49576410352E+02  0.20429735303E+03  0.21480105206E+03  0.47000000000E+01 0. -1.
        -11    1    4    4    0    0 -0.28452390867E+02 -0.65292392733E+02  0.44378158406E+02  0.83916959182E+02  0.00000000000E+00 0.  1.
         12    1    4    4    0    0 -0.26720929207E+02  0.18349622512E+02  0.47843484344E+02  0.57790273388E+02  0.00000000000E+00 0. -1.
         -5    1    5    5    0  502 -0.55766591420E+02  0.64510777046E+02  0.81282158960E+03  0.81729589476E+03  0.47000000000E+01 0.  1.
         13    1    6    6    0    0  0.99743121804E+01  0.28243206290E+02  0.12183808765E+03  0.12546587268E+03  0.00000000000E+00 0. -1.
        -14    1    6    6    0    0  0.57123005317E+02  0.37651972376E+01  0.10301047892E+04  0.10316942819E+04  0.00000000000E+00 0.  1.
</event>
<event>
12    1  0.8563264E-002  0.2507744E+03  0.7818608E-02  0.1113153E+00
         21   -1    0    0  503  502  0.00000000000E+00  0.00000000000E+00  0.38142596276E+03  0.38142596276E+03  0.00000000000E+00 0.  1.
         21   -1    0    0  501  503 -0.00000000000E+00 -0.00000000000E+00 -0.37910981406E+03  0.37910981406E+03  0.00000000000E+00 0. -1.
          6    2    1    2  501    0 -0.15225820771E+03 -0.95094000746E+02 -0.28563114101E+03  0.37869620106E+03  0.17204718304E+03 0.  0.
         24    2    3    3    0    0 -0.11914901087E+03 -0.72035281675E+01 -0.11480875435E+03  0.18370047837E+03  0.79476021962E+02 0.  0.
         -6    2    1    2    0  502  0.15225820771E+03  0.95094000746E+02  0.28794728971E+03  0.38183957576E+03  0.17510679362E+03 0.  0.
        -24    2    5    5    0    0  0.52329007919E+02  0.44522802730E+02  0.46229310256E+02  0.11539452959E+03  0.80362573994E+02 0.  0.
          5    1    3    3  501    0 -0.33109196838E+02 -0.87890472578E+02 -0.17082238666E+03  0.19499572270E+03  0.47000000000E+01 0. -1.
        -11    1    4    4    0    0 -0.10402973191E+02 -0.30059580114E+00  0.12409384324E+02  0.16195833672E+02  0.00000000000E+00 0.  1.
         12    1    4    4    0    0 -0.10874603768E+03 -0.69029323663E+01 -0.12721813867E+03  0.16750464469E+03  0.00000000000E+00 0. -1.
         -5    1    5    5    0  502  0.99929199791E+02  0.50571198016E+02  0.24171797945E+03  0.26644504618E+03  0.47000000000E+01 0.  1.
         11    1    6    6    0    0 -0.16552452593E+02  0.31408360516E+02  0.18015109488E+02  0.39812221327E+02  0.00000000000E+00 0. -1.
        -12    1    6    6    0    0  0.68881460512E+02  0.13114442214E+02  0.28214200768E+02  0.75582308259E+02  0.00000000000E+00 0.  1.
</event>
<event>
12    1  0.8563264E-002  0.2544705E+03  0.7818608E-02  0.1111885E+00
         21   -1    0    0  501  502  0.00000000000E+00  0.00000000000E+00  0.66816942810E+02  0.66816942810E+02  0.00000000000E+00 0.  1.
         21   -1    0    0  502  503 -0.00000000000E+00 -0.00000000000E+00 -0.97399261428E+03  0.97399261428E+03  0.00000000000E+00 0. -1.
         -6    2    1    2    0  503 -0.17275255895E+03  0.30946754993E+02 -0.56372067065E+03  0.61849514439E+03  0.18426638555E+03 0.  0.
        -24    2    3    3    0    0 -0.15662157244E+03  0.73961476567E+02 -0.52440517942E+03  0.55784637813E+03  0.78684003578E+02 0.  0.
          6    2    1    2  501    0  0.17275255895E+03 -0.30946754993E+02 -0.34345500082E+03  0.42231441270E+03  0.17200865477E+03 0.  0.
         24    2    5    5    0    0  0.14254953604E+03 -0.23967033227E+02 -0.13865150852E+03  0.21512488699E+03  0.78483675234E+02 0.  0.
          5    1    5    5  501    0  0.30203022916E+02 -0.69797217659E+01 -0.20480349230E+03  0.20718952572E+03  0.47000000000E+01 0. -1.
        -11    1    6    6    0    0  0.69626931259E+02 -0.24491423977E+01 -0.11682653990E+03  0.13602333726E+03  0.00000000000E+00 0.  1.
         12    1    6    6    0    0  0.72922604780E+02 -0.21517890829E+02 -0.21824968628E+02  0.79101549727E+02  0.00000000000E+00 0. -1.
         -5    1    3    3    0  503 -0.16130986516E+02 -0.43014721574E+02 -0.39315491224E+02  0.60648766255E+02  0.47000000000E+01 0.  1.
         13    1    4    4    0    0 -0.11034252064E+03  0.95253998122E+01 -0.31658444004E+03  0.33539814069E+03  0.00000000000E+00 0. -1.
        -14    1    4    4    0    0 -0.46279051798E+02  0.64436076755E+02 -0.20782073938E+03  0.22244823744E+03  0.00000000000E+00 0.  1.
</event>
<event>
12    1  0.8563264E-002  0.1925772E+03  0.7818608E-02  0.1156817E+00
         21   -1    0    0  501  502  0.00000000000E+00  0.00000000000E+00  0.20490741758E+03  0.20490741758E+03  0.00000000000E+00 0. -1.
         21   -1    0    0  502  503 -0.00000000000E+00 -0.00000000000E+00 -0.51936291205E+03  0.51936291205E+03  0.00000000000E+00 0. -1.
         -6    2    1    2    0  503  0.51691291287E+02 -0.70875057623E+02 -0.45030293961E+03  0.48859995699E+03  0.16811281083E+03 0.  0.
        -24    2    3    3    0    0  0.99764167409E+01  0.93300360066E+01 -0.32019838204E+03  0.33009988222E+03  0.79071802296E+02 0.  0.
          6    2    1    2  501    0 -0.51691291287E+02  0.70875057623E+02  0.13584744514E+03  0.23567037264E+03  0.17143725617E+03 0.  0.
         24    2    5    5    0    0 -0.10087584769E+03  0.42055766801E+02  0.90923319162E+02  0.16293840438E+03  0.79606843208E+02 0.  0.
          5    1    5    5  501    0  0.49184556406E+02  0.28819290822E+02  0.44924125979E+02  0.72731968262E+02  0.47000000000E+01 0. -1.
        -11    1    6    6    0    0 -0.74541485030E+02 -0.64065271427E+01  0.74035924201E+02  0.10525585329E+03  0.00000000000E+00 0.  1.
         12    1    6    6    0    0 -0.26334362663E+02  0.48462293944E+02  0.16887394961E+02  0.57682551085E+02  0.00000000000E+00 0. -1.
         -5    1    3    3    0  503  0.41714874546E+02 -0.80205093630E+02 -0.13010455757E+03  0.15850007477E+03  0.47000000000E+01 0.  1.
         11    1    4    4    0    0  0.42187913076E+02  0.10461658528E+02 -0.23546862696E+03  0.23944673853E+03  0.00000000000E+00 0. -1.
        -12    1    4    4    0    0 -0.32211496335E+02 -0.11316225215E+01 -0.84729755080E+02  0.90653143694E+02  0.00000000000E+00 0.  1.
</event>
<event>
12    1  0.8563264E-002  0.2579079E+03  0.7818608E-02  0.1108477E+00
         21   -1    0    0  503  502  0.00000000000E+00  0.00000000000E+00  0.66333303183E+02  0.66333303183E+02  0.00000000000E+00 0. -1.
         21   -1    0    0  501  503 -0.00000000000E+00 -0.00000000000E+00 -0.10305529696E+04  0.10305529696E+04  0.00000000000E+00 0. -1.
          6    2    1    2  501    0  0.83868443649E+02 -0.17149213334E+03 -0.57462930227E+03  0.62966347412E+03  0.17272460153E+03 0.  0.
         24    2    3    3    0    0 -0.21887787960E+02 -0.82572453856E+02 -0.31086239245E+03  0.33186125345E+03  0.78734865839E+02 0.  0.
         -6    2    1    2    0  502 -0.83868443649E+02  0.17149213334E+03 -0.38959036412E+03  0.46722279864E+03  0.17341575510E+03 0.  0.
        -24    2    5    5    0    0 -0.12594546977E+03  0.14593409474E+03 -0.31287744052E+03  0.37595039256E+03  0.79293023108E+02 0.  0.
          5    1    3    3  501    0  0.10575623161E+03 -0.88919679482E+02 -0.26376690982E+03  0.29780222067E+03  0.47000000000E+01 0. -1.
        -11    1    4    4    0    0 -0.16255577713E+01 -0.23072036090E+02 -0.22094641744E+03  0.22215373206E+03  0.00000000000E+00 0.  1.
         12    1    4    4    0    0 -0.20262230189E+02 -0.59500417766E+02 -0.89915975016E+02  0.10970752139E+03  0.00000000000E+00 0. -1.
         -5    1    5    5    0  502  0.42077026126E+02  0.25558038598E+02 -0.76712923603E+02  0.91272406083E+02  0.47000000000E+01 0.  1.
         13    1    6    6    0    0 -0.11568874776E+03  0.12996403831E+03 -0.21665526830E+03  0.27787414938E+03  0.00000000000E+00 0. -1.
        -14    1    6    6    0    0 -0.10256722015E+02  0.15970056428E+02 -0.96222172218E+02  0.98076243175E+02  0.00000000000E+00 0.  1.
</event>
<event>
12    1  0.8563264E-002  0.1877205E+03  0.7818608E-02  0.1160586E+00
         21   -1    0    0  501  502  0.00000000000E+00  0.00000000000E+00  0.10998384338E+03  0.10998384338E+03  0.00000000000E+00 0.  1.
         21   -1    0    0  502  503 -0.00000000000E+00 -0.00000000000E+00 -0.33669200921E+03  0.33669200921E+03  0.00000000000E+00 0.  1.
         -6    2    1    2    0  503  0.63908547777E+02 -0.43676361542E+02 -0.16300133222E+03  0.24843978530E+03  0.17076582087E+03 0.  0.
        -24    2    3    3    0    0  0.97569068985E+02  0.42133608014E+01 -0.12933018998E+03  0.18074715636E+03  0.80035997259E+02 0.  0.
          6    2    1    2  501    0 -0.63908547777E+02  0.43676361542E+02 -0.63706833605E+02  0.19823606729E+03  0.17101769116E+03 0.  0.
         24    2    5    5    0    0 -0.52709604350E+02  0.92652777303E+02 -0.29083542307E+02  0.13703992415E+03  0.81063239789E+02 0.  0.
          5    1    5    5  501    0 -0.11198943428E+02 -0.48976415761E+02 -0.34623291298E+02  0.61196143138E+02  0.47000000000E+01 0. -1.
        -13    1    6    6    0    0  0.16314697321E+02  0.40707584455E+02 -0.25169521802E+02  0.50564628037E+02  0.00000000000E+00 0.  1.
         14    1    6    6    0    0 -0.69024301670E+02  0.51945192848E+02 -0.39140205048E+01  0.86475296112E+02  0.00000000000E+00 0. -1.
         -5    1    3    3    0  503 -0.33660521208E+02 -0.47889722343E+02 -0.33671142238E+02  0.67692628947E+02  0.47000000000E+01 0.  1.
         13    1    4    4    0    0 -0.61346490472E+01  0.17743821633E+02 -0.35882795944E+02  0.40497557579E+02  0.00000000000E+00 0. -1.
        -14    1    4    4    0    0  0.10370371803E+03 -0.13530460832E+02 -0.93447394040E+02  0.14024959878E+03  0.00000000000E+00 0.  1.
</event>
<event>
12    1  0.8563264E-002  0.2172468E+03  0.7818608E-02  0.1136005E+00
         21   -1    0    0  501  502  0.00000000000E+00  0.00000000000E+00  0.20774260076E+03  0.20774260076E+03  0.00000000000E+00 0.  1.
         21   -1    0    0  502  503 -0.00000000000E+00 -0.00000000000E+00 -0.28886080565E+03  0.28886080565E+03  0.00000000000E+00 0.  1.
         -6    2    1    2    0  503  0.12693530504E+03  0.39620445222E+02 -0.15557953114E+03  0.26720999285E+03  0.17179592086E+03 0.  0.
        -24    2    3    3    0    0  0.99486008451E+01 -0.24023117774E+02 -0.51579966749E+02  0.98170377783E+02  0.79377863777E+02 0.  0.
          6    2    1    2  501    0 -0.12693530504E+03 -0.39620445222E+02  0.74461326250E+02  0.22939341355E+03  0.17144823629E+03 0.  0.
         24    2    5    5    0    0 -0.15416784954E+03 -0.58194493803E+02  0.68229629388E+02  0.19551818947E+03  0.80110892820E+02 0.  0.
          5    1    5    5  501    0  0.27232544494E+02  0.18574048581E+02  0.62316968622E+01  0.33875224074E+02  0.47000000000E+01 0. -1.
        -11    1    6    6    0    0 -0.46941708270E+02  0.41778426000E+01  0.52383442709E+02  0.70462780346E+02  0.00000000000E+00 0.  1.
         12    1    6    6    0    0 -0.10722614127E+03 -0.62372336403E+02  0.15846186678E+02  0.12505540913E+03  0.00000000000E+00 0. -1.
         -5    1    3    3    0  503  0.11698670420E+03  0.63643562995E+02 -0.10399956439E+03  0.16903961507E+03  0.47000000000E+01 0.  1.
         13    1    4    4    0    0 -0.11012767469E+02 -0.24282296176E+02 -0.67023949056E+02  0.72132660438E+02  0.00000000000E+00 0. -1.
        -14    1    4    4    0    0  0.20961368314E+02  0.25917840255E+00  0.15443982306E+02  0.26037717345E+02  0.00000000000E+00 0.  1.
</event>
<event>
12    1  0.8563264E-002  0.2061987E+03  0.7818608E-02  0.1144838E+00
         21   -1    0    0  501  502  0.00000000000E+00  0.00000000000E+00  0.12640560171E+03  0.12640560171E+03  0.00000000000E+00 0.  1.
         21   -1    0    0  502  503 -0.00000000000E+00 -0.00000000000E+00 -0.34275199758E+03  0.34275199758E+03  0.00000000000E+00 0. -1.
         -6    2    1    2    0  503 -0.10277537946E+03 -0.48405932717E+02 -0.14473742711E+03  0.25192627078E+03  0.17208140562E+03 0.  0.
        -24    2    3    3    0    0  0.17847925083E+01 -0.45015375192E+02 -0.10942163883E+03  0.14141102141E+03  0.77423591005E+02 0.  0.
          6    2    1    2  501    0  0.10277537946E+03  0.48405932717E+02 -0.71608968771E+02  0.21723132851E+03  0.17075038135E+03 0.  0.
         24    2    5    5    0    0  0.42863087438E+01  0.16416581846E+02  0.92921789643E+01  0.85737977635E+02  0.83527119051E+02 0.  0.
          5    1    5    5  501    0  0.98489070713E+02  0.31989350871E+02 -0.80901147736E+02  0.13149335087E+03  0.47000000000E+01 0. -1.
        -13    1    6    6    0    0 -0.37876683394E+02  0.19927002295E+02  0.23484106198E+01  0.42863079658E+02  0.00000000000E+00 0.  1.
         14    1    6    6    0    0  0.42162992137E+02 -0.35104204491E+01  0.69437683445E+01  0.42874897977E+02  0.00000000000E+00 0. -1.
         -5    1    3    3    0  503 -0.10456017196E+03 -0.33905575253E+01 -0.35315788271E+02  0.11051524937E+03  0.47000000000E+01 0.  1.
         11    1    4    4    0    0 -0.12335269821E+02  0.12797946704E+02 -0.64342527310E+02  0.66752581538E+02  0.00000000000E+00 0. -1.
        -12    1    4    4    0    0  0.14120062329E+02 -0.57813321896E+02 -0.45079111524E+02  0.74658439876E+02  0.00000000000E+00 0.  1.
</event>
<event>
12    1  0.8563264E-002  0.2307230E+03  0.7818608E-02  0.1126567E+00
         21   -1    0    0  503  502  0.00000000000E+00  0.00000000000E+00  0.70493699294E+03  0.70493699294E+03  0.00000000000E+00 0.  1.
         21   -1    0    0  501  503 -0.00000000000E+00 -0.00000000000E+00 -0.10772563091E+03  0.10772563091E+03  0.00000000000E+00 0.  1.
          6    2    1    2  501    0 -0.65507579229E+02 -0.13690972437E+03  0.72546764749E+02  0.23950814141E+03  0.17048636650E+03 0.  0.
         24    2    3    3    0    0 -0.90983997024E+02 -0.79982495751E+02  0.12873903769E+01  0.14469387213E+03  0.79116192517E+02 0.  0.
         -6    2    1    2    0  502  0.65507579229E+02  0.13690972437E+03  0.52466459728E+03  0.57315448244E+03  0.17377458253E+03 0.  0.
        -24    2    5    5    0    0  0.62580503370E+02  0.11722541892E+03  0.22843994345E+03  0.27622490292E+03  0.80357146454E+02 0.  0.
          5    1    3    3  501    0  0.25476417794E+02 -0.56927228618E+02  0.71259374372E+02  0.94814269273E+02  0.47000000000E+01 0. -1.
        -13    1    4    4    0    0 -0.22141115858E+02 -0.59914898985E+02  0.25832995707E+02  0.68901145121E+02  0.00000000000E+00 0.  1.
         14    1    4    4    0    0 -0.68842881165E+02 -0.20067596766E+02 -0.24545605330E+02  0.75792727013E+02  0.00000000000E+00 0. -1.
         -5    1    5    5    0  502  0.29270758588E+01  0.19684305448E+02  0.29622465383E+03  0.29692957952E+03  0.47000000000E+01 0.  1.
         13    1    6    6    0    0  0.69827242366E+02  0.45826476433E+02  0.12380873562E+03  0.14934695422E+03  0.00000000000E+00 0. -1.
        -14    1    6    6    0    0 -0.72467389954E+01  0.71398942489E+02  0.10463120783E+03  0.12687794870E+03  0.00000000000E+00 0.  1.
</event>
<event>
12    1  0.8563264E-002  0.6091670E+03  0.7818608E-02  0.9886618E-01
         21   -1    0    0  503  502  0.00000000000E+00  0.00000000000E+00  0.37945601611E+03  0.37945601611E+03  0.00000000000E+00 0. -1.
         21   -1    0    0  501  503 -0.00000000000E+00 -0.00000000000E+00 -0.98406130136E+03  0.98406130136E+03  0.00000000000E+00 0.  1.
          6    2    1    2  501    0  0.23311529402E+03 -0.53552294893E+03 -0.24780820674E+03  0.65755092620E+03  0.17273315862E+03 0.  0.
         24    2    3    3    0    0  0.24604224243E+03 -0.50194151630E+03 -0.25644732252E+03  0.62024753582E+03  0.80372293835E+02 0.  0.
         -6    2    1    2    0  502 -0.23311529402E+03  0.53552294893E+03 -0.35679707852E+03  0.70596639126E+03  0.17308038946E+03 0.  0.
        -24    2    5    5    0    0 -0.15469144826E+03  0.36998113300E+03 -0.16534220120E+03  0.44095421709E+03  0.79291204681E+02 0.  0.
          5    1    3    3  501    0 -0.12926948407E+02 -0.33581432630E+02  0.86391157842E+01  0.37303390384E+02  0.47000000000E+01 0. -1.
        -13    1    4    4    0    0  0.35507905050E+02 -0.99604282474E+02 -0.81947703177E+02  0.13378060571E+03  0.00000000000E+00 0.  1.
         14    1    4    4    0    0  0.21053433738E+03 -0.40233723383E+03 -0.17449961935E+03  0.48646693011E+03  0.00000000000E+00 0. -1.
         -5    1    5    5    0  502 -0.78423845766E+02  0.16554181593E+03 -0.19145487732E+03  0.26501217417E+03  0.47000000000E+01 0.  1.
         11    1    6    6    0    0 -0.29215446569E+02  0.15276353689E+03 -0.40328485854E+02  0.16067553420E+03  0.00000000000E+00 0. -1.
        -12    1    6    6    0    0 -0.12547600169E+03  0.21721759611E+03 -0.12501371534E+03  0.28027868289E+03  0.00000000000E+00 0.  1.
</event>
<event>
12    1  0.8563264E-002  0.1929495E+03  0.7818608E-02  0.1155856E+00
         21   -1    0    0  503  502  0.00000000000E+00  0.00000000000E+00  0.68562469602E+03  0.68562469602E+03  0.00000000000E+00 0.  1.
         21   -1    0    0  501  503 -0.00000000000E+00 -0.00000000000E+00 -0.68458290816E+02  0.68458290816E+02  0.00000000000E+00 0.  1.
          6    2    1    2  501    0 -0.56160519190E+02  0.67026188044E+02  0.13681793563E+03  0.23643045306E+03  0.17185371053E+03 0.  0.
         24    2    3    3    0    0 -0.70165795282E+02  0.85782224018E+02  0.49960955206E+02  0.14635181135E+03  0.81491882145E+02 0.  0.
         -6    2    1    2    0  502  0.56160519190E+02 -0.67026188044E+02  0.48034846957E+03  0.51765253378E+03  0.17199703399E+03 0.  0.
        -24    2    5    5    0    0 -0.29529087504E+02 -0.85204348006E-01  0.30838557479E+03  0.31414054107E+03  0.52063831355E+02 0.  0.
          5    1    3    3  501    0  0.14005276092E+02 -0.18756035974E+02  0.86856980422E+02  0.90078641707E+02  0.47000000000E+01 0. -1.
        -11    1    4    4    0    0  0.81685227875E+01  0.47089830003E+02  0.48907368622E+01  0.48042649399E+02  0.00000000000E+00 0.  1.
         12    1    4    4    0    0 -0.78334318069E+02  0.38692394014E+02  0.45070218344E+02  0.98309161951E+02  0.00000000000E+00 0. -1.
         -5    1    5    5    0  502  0.85689606693E+02 -0.66940983696E+02  0.17196289479E+03  0.20351199271E+03  0.47000000000E+01 0.  1.
         11    1    6    6    0    0 -0.30767976607E+02  0.21943495539E+02  0.19441232142E+03  0.19805134713E+03  0.00000000000E+00 0. -1.
        -12    1    6    6    0    0  0.12388891035E+01 -0.22028699887E+02  0.11397325337E+03  0.11608919393E+03  0.00000000000E+00 0.  1.
</event>
<event>
12    1  0.8563264E-002  0.1759046E+03  0.7818608E-02  0.1173886E+00
         21   -1    0    0  501  502  0.00000000000E+00  0.00000000000E+00  0.90641961958E+03  0.90641961958E+03  0.00000000000E+00 0. -1.
         21   -1    0    0  502  503 -0.00000000000E+00 -0.00000000000E+00 -0.33034930718E+02  0.33034930718E+02  0.00000000000E+00 0. -1.
         -6    2    1    2    0  503 -0.41127589939E+02 -0.77443426677E+01  0.50116365782E+03  0.53113786452E+03  0.17085363826E+03 0.  0.
        -24    2    3    3    0    0 -0.58118123366E+02 -0.35862662856E+02  0.47912589300E+03  0.49129980188E+03  0.84557833091E+02 0.  0.
          6    2    1    2  501    0  0.41127589939E+02  0.77443426677E+01  0.37222103103E+03  0.40831668577E+03  0.16255019667E+03 0.  0.
         24    2    5    5    0    0  0.56966324817E+02 -0.11112295927E+02  0.19772565602E+03  0.23202952163E+03  0.10664716861E+03 0.  0.
          5    1    5    5  501    0 -0.15838734878E+02  0.18856638595E+02  0.17449537501E+03  0.17628716414E+03  0.47000000000E+01 0. -1.
        -11    1    6    6    0    0  0.97293590163E+01  0.32680350955E+02  0.14450597125E+03  0.14847437991E+03  0.00000000000E+00 0.  1.
         12    1    6    6    0    0  0.47236965801E+02 -0.43792646882E+02  0.53219684779E+02  0.83555141715E+02  0.00000000000E+00 0. -1.
         -5    1    3    3    0  503  0.16990533427E+02  0.28118320188E+02  0.22037764825E+02  0.39838062639E+02  0.47000000000E+01 0.  1.
         13    1    4    4    0    0 -0.87608506134E+01  0.24915213520E+02  0.18732190847E+03  0.18917456954E+03  0.00000000000E+00 0. -1.
        -14    1    4    4    0    0 -0.49357272753E+02 -0.60777876376E+02  0.29180398453E+03  0.30212523234E+03  0.00000000000E+00 0.  1.
</event>
<event>
12    1  0.8563264E-002  0.2180106E+03  0.7818608E-02  0.1135425E+00
         21   -1    0    0  503  502  0.00000000000E+00  0.00000000000E+00  0.36231673499E+02  0.36231673499E+02  0.00000000000E+00 0.  1.
         21   -1    0    0  501  503 -0.00000000000E+00 -0.00000000000E+00 -0.15356276231E+04  0.15356276231E+04  0.00000000000E+00 0.  1.
          6    2    1    2  501    0  0.41080661557E+02 -0.12879981641E+03 -0.10512082825E+04  0.10735769540E+04  0.17103101952E+03 0.  0.
         24    2    3    3    0    0 -0.12648029706E+02 -0.13041408596E+03 -0.90162061622E+03  0.91455513784E+03  0.79520802870E+02 0.  0.
         -6    2    1    2    0  502 -0.41080661557E+02  0.12879981641E+03 -0.44818766712E+03  0.49828234255E+03  0.17069298311E+03 0.  0.
        -24    2    5    5    0    0 -0.91649163859E+01  0.12442994666E+03 -0.44047178784E+03  0.46482587316E+03  0.80503969808E+02 0.  0.
          5    1    3    3  501    0  0.53728691263E+02  0.16142695486E+01 -0.14958766625E+03  0.15902181619E+03  0.47000000000E+01 0. -1.
        -11    1    4    4    0    0  0.30807242693E+02 -0.28096490363E+02 -0.27684207651E+03  0.27996434469E+03  0.00000000000E+00 0.  1.
         12    1    4    4    0    0 -0.43455272399E+02 -0.10231759559E+03 -0.62477853971E+03  0.63459079315E+03  0.00000000000E+00 0. -1.
         -5    1    5    5    0  502 -0.31915745171E+02  0.43698697486E+01 -0.77158792793E+01  0.33456469397E+02  0.47000000000E+01 0.  1.
         11    1    6    6    0    0  0.27343412725E+02  0.40573063843E+02 -0.23312466022E+03  0.23820357456E+03  0.00000000000E+00 0. -1.
        -12    1    6    6    0    0 -0.36508329111E+02  0.83856882815E+02 -0.20734712762E+03  0.22662229860E+03  0.00000000000E+00 0.  1.
</event>
<event>
12    1  0.8563264E-002  0.1928755E+03  0.7818608E-02  0.1155904E+00
         21   -1    0    0  503  502  0.00000000000E+00  0.00000000000E+00  0.10628219844E+04  0.10628219844E+04  0.00000000000E+00 0.  1.
         21   -1    0    0  501  503 -0.00000000000E+00 -0.00000000000E+00 -0.46287041960E+02  0.46287041960E+02  0.00000000000E+00 0.  1.
          6    2    1    2  501    0  0.85215548810E+02 -0.19974638759E+02  0.78214557570E+03  0.80556438529E+03  0.17181851271E+03 0.  0.
         24    2    3    3    0    0  0.10958756737E+02 -0.50400033400E+02  0.58184240375E+03  0.58973290820E+03  0.81142236238E+02 0.  0.
         -6    2    1    2    0  502 -0.85215548810E+02  0.19974638759E+02  0.23438936670E+03  0.30354464103E+03  0.17187291213E+03 0.  0.
        -24    2    5    5    0    0 -0.40341809432E+02  0.26487201622E+02  0.34998911698E+02  0.99009290768E+02  0.79049872867E+02 0.  0.
          5    1    3    3  501    0  0.74256792072E+02  0.30425394641E+02  0.20030317196E+03  0.21583147709E+03  0.47000000000E+01 0. -1.
        -13    1    4    4    0    0  0.16155177975E+02 -0.49669065551E+02  0.58213858225E+03  0.58447697542E+03  0.00000000000E+00 0.  1.
         14    1    4    4    0    0 -0.51964212378E+01 -0.73096784903E+00 -0.29617850817E+00  0.52559327798E+01  0.00000000000E+00 0. -1.
         -5    1    5    5    0  502 -0.44873739377E+02 -0.65125628634E+01  0.19939045500E+03  0.20453535026E+03  0.47000000000E+01 0.  1.
         13    1    6    6    0    0  0.43701361356E+00  0.30711138291E+02  0.47130308692E+02  0.56255053048E+02  0.00000000000E+00 0. -1.
        -14    1    6    6    0    0 -0.40778823046E+02 -0.42239366688E+01 -0.12131396994E+02  0.42754237720E+02  0.00000000000E+00 0.  1.
</event>
<event>
12    1  0.8563264E-002  0.2397985E+03  0.7818608E-02  0.1119984E+00
         21   -1    0    0  501  502  0.00000000000E+00  0.00000000000E+00  0.53393667497E+03  0.53393667497E+03  0.00000000000E+00 0. -1.
         21   -1    0    0  502  503 -0.00000000000E+00 -0.00000000000E+00 -0.10776469989E+03  0.10776469989E+03  0.00000000000E+00 0.  1.
         -6    2    1    2    0  503 -0.16710608268E+03 -0.30096786126E+01  0.19841347404E+03  0.31097901838E+03  0.17148335826E+03 0.  0.
        -24    2    3    3    0    0 -0.62883400963E+02 -0.48538149151E+02  0.16851447899E+03  0.19328768939E+03  0.51504632809E+02 0.  0.
          6    2    1    2  501    0  0.16710608268E+03  0.30096786126E+01  0.22775850104E+03  0.33072235647E+03  0.17195883588E+03 0.  0.
         24    2    5    5    0    0  0.16353614227E+03 -0.28951551450E+02  0.12451937989E+03  0.22248802348E+03  0.80084845410E+02 0.  0.
          5    1    5    5  501    0  0.35699404149E+01  0.31961230063E+02  0.10323912115E+03  0.10823433299E+03  0.47000000000E+01 0. -1.
        -11    1    6    6    0    0  0.13863167701E+03 -0.40723219847E+02  0.13004430935E+03  0.19439301659E+03  0.00000000000E+00 0.  1.
         12    1    6    6    0    0  0.24904465260E+02  0.11771668397E+02 -0.55249294562E+01  0.28095006891E+02  0.00000000000E+00 0. -1.
         -5    1    3    3    0  503 -0.10422268172E+03  0.45528470538E+02  0.29898995043E+02  0.11769132899E+03  0.47000000000E+01 0.  1.
         13    1    4    4    0    0 -0.46853959042E+02 -0.37831909768E+01  0.78764993778E+02  0.91725297801E+02  0.00000000000E+00 0. -1.
        -14    1    4    4    0    0 -0.16029441922E+02 -0.44754958174E+02  0.89749485215E+02  0.10156239159E+03  0.00000000000E+00 0.  1.
</event>
<event>
12    1  0.8563264E-002  0.1952451E+03  0.7818608E-02  0.1154219E+00
         21   -1    0    0  501  502  0.00000000000E+00  0.00000000000E+00  0.30440339997E+03  0.30440339997E+03  0.00000000000E+00 0.  1.
         21   -1    0    0  502  503 -0.00000000000E+00 -0.00000000000E+00 -0.15583365118E+03  0.15583365118E+03  0.00000000000E+00 0.  1.
         -6    2    1    2    0  503  0.63123764623E+02 -0.69755021787E+02  0.17793352823E+03  0.26279619187E+03  0.16897078229E+03 0.  0.
        -24    2    3    3    0    0 -0.23962459612E+02 -0.17080530422E+02  0.44963600543E+02  0.95279911582E+02  0.78680316389E+02 0.  0.
          6    2    1    2  501    0 -0.63123764623E+02  0.69755021787E+02 -0.29363779442E+02  0.19744085928E+03  0.17108561788E+03 0.  0.
         24    2    5    5    0    0 -0.94824089867E+02  0.22023735510E+02  0.14806336999E+02  0.12494068344E+03  0.76904446027E+02 0.  0.
          5    1    5    5  501    0  0.31700325244E+02  0.47731286277E+02 -0.44170116441E+02  0.72500175839E+02  0.47000000000E+01 0. -1.
        -13    1    6    6    0    0 -0.25766968187E+02  0.39487697168E+02 -0.12295766986E+02  0.48727823294E+02  0.00000000000E+00 0.  1.
         14    1    6    6    0    0 -0.69057121680E+02 -0.17463961658E+02  0.27102103985E+02  0.76212860148E+02  0.00000000000E+00 0. -1.
         -5    1    3    3    0  503  0.87086224235E+02 -0.52674491365E+02  0.13296992768E+03  0.16751628029E+03  0.47000000000E+01 0.  1.
         11    1    4    4    0    0 -0.15620624286E+02  0.12321648034E+02 -0.17012765910E+02  0.26177492570E+02  0.00000000000E+00 0. -1.
        -12    1    4    4    0    0 -0.83418353258E+01 -0.29402178456E+02  0.61976366453E+02  0.69102419012E+02  0.00000000000E+00 0.  1.
</event>
<event>
12    1  0.8563264E-002  0.2741432E+03  0.7818608E-02  0.1099100E+00
         21   -1    0    0  503  502  0.00000000000E+00  0.00000000000E+00  0.13428725219E+04  0.13428725219E+04  0.00000000000E+00 0. -1.
         21   -1    0    0  501  503 -0.00000000000E+00 -0.00000000000E+00 -0.89383557606E+02  0.89383557606E+02  0.00000000000E+00 0. -1.
          6    2    1    2  501    0  0.18751979993E+03 -0.10121773363E+03  0.18641226576E+03  0.33052689976E+03  0.17055730319E+03 0.  0.
         24    2    3    3    0    0  0.14814277686E+03 -0.81651388966E+01  0.13947257629E+03  0.21901564571E+03  0.80636850752E+02 0.  0.
         -6    2    1    2    0  502 -0.18751979993E+03  0.10121773363E+03  0.10670766985E+04  0.11017291798E+04  0.17246970748E+03 0.  0.
        -24    2    5    5    0    0 -0.96902845821E+02  0.60470839661E+02  0.33088352892E+03  0.35884681038E+03  0.78995187395E+02 0.  0.
          5    1    3    3  501    0  0.39377023068E+02 -0.93052594729E+02  0.46939689478E+02  0.11151125405E+03  0.47000000000E+01 0. -1.
        -13    1    4    4    0    0  0.22060152579E+02  0.29887933423E+02  0.31986619342E+02  0.49021247567E+02  0.00000000000E+00 0.  1.
         14    1    4    4    0    0  0.12608262428E+03 -0.38053072319E+02  0.10748595694E+03  0.16999439814E+03  0.00000000000E+00 0. -1.
         -5    1    5    5    0  502 -0.90616954109E+02  0.40746893965E+02  0.73619316961E+03  0.74288236937E+03  0.47000000000E+01 0.  1.
         11    1    6    6    0    0 -0.41273022855E+02  0.68413933306E+02  0.15789056547E+03  0.17695581186E+03  0.00000000000E+00 0. -1.
        -12    1    6    6    0    0 -0.55629822966E+02 -0.79430936457E+01  0.17299296344E+03  0.18189099852E+03  0.00000000000E+00 0.  1.
</event>
<event>
12    1  0.8563264E-002  0.2041204E+03  0.7818608E-02  0.1146765E+00
         21   -1    0    0  501  502  0.00000000000E+00  0.00000000000E+00  0.21142431684E+03  0.21142431684E+03  0.00000000000E+00 0. -1.
         21   -1    0    0  502  503 -0.00000000000E+00 -0.00000000000E+00 -0.19967937653E+03  0.19967937653E+03  0.00000000000E+00 0. -1.
         -6    2    1    2    0  503  0.10828663093E+03  0.16389902134E+02 -0.25756643985E+02  0.20573901600E+03  0.17225131253E+03 0.  0.
        -24    2    3    3    0    0  0.31205759498E+02  0.57687015072E+02  0.22946483070E+02  0.10553424135E+03  0.79431378429E+02 0.  0.
          6    2    1    2  501    0 -0.10828663093E+03 -0.16389902134E+02  0.37501584292E+02  0.20536467737E+03  0.16962800051E+03 0.  0.
         24    2    5    5    0    0  0.10570148768E+01 -0.20050257178E+02  0.49536691018E+02  0.95199506507E+02  0.78777739170E+02 0.  0.
          5    1    5    5  501    0 -0.10934364581E+03  0.36603550443E+01 -0.12035106726E+02  0.11016517086E+03  0.47000000000E+01 0. -1.
        -13    1    6    6    0    0 -0.57627614671E+01 -0.29918219937E+02 -0.11820499779E+02  0.32680782104E+02  0.00000000000E+00 0.  1.
         14    1    6    6    0    0  0.68197763440E+01  0.98679627588E+01  0.61357190797E+02  0.62518724402E+02  0.00000000000E+00 0. -1.
         -5    1    3    3    0  503  0.77080871431E+02 -0.41297112938E+02 -0.48703127054E+02  0.10020477465E+03  0.47000000000E+01 0.  1.
         11    1    4    4    0    0 -0.40751231733E+01 -0.52011902852E+01 -0.20370351953E+02  0.21415187320E+02  0.00000000000E+00 0. -1.
        -12    1    4    4    0    0  0.35280882671E+02  0.62888205357E+02  0.43316835023E+02  0.84119054034E+02  0.00000000000E+00 0.  1.
</event>
<event>
12    1  0.8563264E-002  0.1768378E+03  0.7818608E-02  0.1171393E+00
         21   -1    0    0  503  502  0.00000000000E+00  0.00000000000E+00  0.54859106916E+03  0.54859106916E+03  0.00000000000E+00 0.  1.
         21   -1    0    0  501  503 -0.00000000000E+00 -0.00000000000E+00 -0.80817545320E+02  0.80817545320E+02  0.00000000000E+00 0. -1.
          6    2    1    2  501    0  0.15477405980E+02  0.26367829312E+02  0.59867969004E+02  0.18482055777E+03  0.17216170405E+03 0.  0.
         24    2    3    3    0    0  0.47970729305E+02  0.29479047772E+02  0.94948834751E+02  0.13667231914E+03  0.80584343840E+02 0.  0.
         -6    2    1    2    0  502 -0.15477405980E+02 -0.26367829312E+02  0.40790555484E+03  0.44458805671E+03  0.17417458479E+03 0.  0.
        -24    2    5    5    0    0  0.26126187648E+02 -0.58364876702E+02  0.15029789487E+03  0.18164611157E+03  0.79478400405E+02 0.  0.
          5    1    3    3  501    0 -0.32493323325E+02 -0.31112184598E+01 -0.35080865747E+02  0.48148238624E+02  0.47000000000E+01 0. -1.
        -11    1    4    4    0    0 -0.21508523062E+01  0.45098375427E+02  0.51816093478E+02  0.68726975601E+02  0.00000000000E+00 0.  1.
         12    1    4    4    0    0  0.50121581611E+02 -0.15619327656E+02  0.43132741272E+02  0.67945343544E+02  0.00000000000E+00 0. -1.
         -5    1    5    5    0  502 -0.41603593628E+02  0.31997047390E+02  0.25760765996E+03  0.26294194514E+03  0.47000000000E+01 0.  1.
         13    1    6    6    0    0 -0.27018239030E+02 -0.19661869351E+02  0.31778282293E+02  0.46113268938E+02  0.00000000000E+00 0. -1.
        -14    1    6    6    0    0  0.53144426679E+02 -0.38703007351E+02  0.11851961258E+03  0.13553284263E+03  0.00000000000E+00 0.  1.
</event>
<event>
12    1  0.8563264E-002  0.2875971E+03  0.7818608E-02  0.1092906E+00
         21   -1    0    0  501  502  0.00000000000E+00  0.00000000000E+00  0.54386236172E+03  0.54386236172E+03  0.00000000000E+00 0.  1.
         21   -1    0    0  502  503 -0.00000000000E+00 -0.00000000000E+00 -0.14939667665E+03  0.14939667665E+03  0.00000000000E+00 0. -1.
         -6    2    1    2    0  503  0.94882436680E+02  0.19548078144E+03  0.15027064789E+03  0.31597488554E+03  0.17333045887E+03 0.  0.
        -24    2    3    3    0    0  0.12684561437E+03  0.11377706203E+03  0.86255998818E+02  0.20726836417E+03  0.80529794015E+02 0.  0.
          6    2    1    2  501    0 -0.94882436680E+02 -0.19548078144E+03  0.24419503718E+03  0.37728415283E+03  0.18840568752E+03 0.  0.
         24    2    5    5    0    0 -0.21502126755E+02 -0.19593391591E+03  0.19715987802E+03  0.28999571481E+03  0.79831423938E+02 0.  0.
          5    1    5    5  501    0 -0.73380309926E+02  0.45313446172E+00  0.47035159156E+02  0.87288438022E+02  0.47000000000E+01 0. -1.
        -13    1    6    6    0    0 -0.36757148676E+02 -0.41310430891E+02  0.70096785737E+02  0.89281571726E+02  0.00000000000E+00 0.  1.
         14    1    6    6    0    0  0.15255021922E+02 -0.15462348501E+03  0.12706309228E+03  0.20071414308E+03  0.00000000000E+00 0. -1.
         -5    1    3    3    0  503 -0.31963177687E+02  0.81703719413E+02  0.64014649072E+02  0.10870652138E+03  0.47000000000E+01 0.  1.
         11    1    4    4    0    0  0.48860618757E+02  0.14909624259E+02 -0.56176929112E+01  0.51392756634E+02  0.00000000000E+00 0. -1.
        -12    1    4    4    0    0  0.77984995610E+02  0.98867437772E+02  0.91873691729E+02  0.15587560753E+03  0.00000000000E+00 0.  1.
</event>
<event>
12    1  0.8563264E-002  0.1782506E+03  0.7818608E-02  0.1171009E+00
         21   -1    0    0  503  502  0.00000000000E+00  0.00000000000E+00  0.29349584984E+03  0.29349584984E+03  0.00000000000E+00 0.  1.
         21   -1    0    0  501  503 -0.00000000000E+00 -0.00000000000E+00 -0.31085954873E+03  0.31085954873E+03  0.00000000000E+00 0.  1.
          6    2    1    2  501    0 -0.12500977532E+02  0.20473048840E+01 -0.25484203221E+03  0.31099476229E+03  0.17779992940E+03 0.  0.
         24    2    3    3    0    0 -0.60400708404E+02 -0.16741225689E+02 -0.23385364723E+03  0.25522742953E+03  0.80777461273E+02 0.  0.
         -6    2    1    2    0  502  0.12500977532E+02 -0.20473048840E+01  0.23747833332E+03  0.29336063628E+03  0.17176739570E+03 0.  0.
        -24    2    5    5    0    0 -0.58096552668E+02  0.10372066569E+02  0.11891425129E+03  0.15473241547E+03  0.79490452509E+02 0.  0.
          5    1    3    3  501    0  0.47899730873E+02  0.18788530573E+02 -0.20988384980E+02  0.55767332757E+02  0.47000000000E+01 0. -1.
        -13    1    4    4    0    0 -0.30279707969E+02 -0.47411057504E+02 -0.10122987597E+03  0.11581086683E+03  0.00000000000E+00 0.  1.
         14    1    4    4    0    0 -0.30121000435E+02  0.30669831815E+02 -0.13262377127E+03  0.13941656270E+03  0.00000000000E+00 0. -1.
         -5    1    5    5    0  502  0.70597530200E+02 -0.12419371453E+02  0.11856408202E+03  0.13862822081E+03  0.47000000000E+01 0.  1.
         13    1    6    6    0    0 -0.26281990552E+02  0.44915747041E+02  0.62763742467E+02  0.81531924594E+02  0.00000000000E+00 0. -1.
        -14    1    6    6    0    0 -0.31814562116E+02 -0.34543680472E+02  0.56150508827E+02  0.73200490877E+02  0.00000000000E+00 0.  1.
</event>
<event>
12    1  0.8563264E-002  0.1801861E+03  0.7818608E-02  0.1168106E+00
         21   -1    0    0  501  502  0.00000000000E+00  0.00000000000E+00  0.55607647359E+03  0.55607647359E+03  0.00000000000E+00 0.  1.
         21   -1    0    0  502  503 -0.00000000000E+00 -0.00000000000E+00 -0.59486710434E+02  0.59486710434E+02  0.00000000000E+00 0.  1.
         -6    2    1    2    0  503 -0.16499288152E+02  0.43610033902E+02  0.29964024372E+03  0.34862470671E+03  0.17199083959E+03 0.  0.
        -24    2    3    3    0    0  0.25391881128E+02  0.75887575630E+02  0.14091552754E+03  0.18125584673E+03  0.81196208718E+02 0.  0.
          6    2    1    2  501    0  0.16499288152E+02 -0.43610033902E+02  0.19694951944E+03  0.26693847732E+03  0.17404877448E+03 0.  0.
         24    2    5    5    0    0  0.66381362318E+02  0.11466754271E+02  0.10662577227E+03  0.14988232318E+03  0.80979526879E+02 0.  0.
          5    1    5    5  501    0 -0.49882074166E+02 -0.55076788173E+02  0.90323747169E+02  0.11705615414E+03  0.47000000000E+01 0. -1.
        -13    1    6    6    0    0  0.45469261069E+02  0.53228179240E+01  0.51227000528E+01  0.46065476755E+02  0.00000000000E+00 0.  1.
         14    1    6    6    0    0  0.20912101248E+02  0.61439363472E+01  0.10150307222E+03  0.10381684643E+03  0.00000000000E+00 0. -1.
         -5    1    3    3    0  503 -0.41891169280E+02 -0.32277541728E+02  0.15872471618E+03  0.16736885998E+03  0.47000000000E+01 0.  1.
         13    1    4    4    0    0 -0.23868348581E+02  0.30285117026E+02  0.21198251601E+02  0.44002866363E+02  0.00000000000E+00 0. -1.
        -14    1    4    4    0    0  0.49260229709E+02  0.45602458604E+02  0.11971727594E+03  0.13725298037E+03  0.00000000000E+00 0.  1.
</event>
<event>
12    1  0.8563264E-002  0.2224600E+03  0.7818608E-02  0.1132545E+00
         21   -1    0    0  501  502  0.00000000000E+00  0.00000000000E+00  0.24680286767E+03  0.24680286767E+03  0.00000000000E+00 0.  1.
         21   -1    0    0  502  503 -0.00000000000E+00 -0.00000000000E+00 -0.29012762192E+03  0.29012762192E+03  0.00000000000E+00 0. -1.
         -6    2    1    2    0  503 -0.10501324288E+02 -0.13916992363E+03 -0.17271412015E+03  0.27957848972E+03  0.16986882927E+03 0.  0.
        -24    2    3    3    0    0  0.74505362654E+01 -0.19988070316E+01 -0.88413060557E+02  0.11750769292E+03  0.77017419445E+02 0.  0.
          6    2    1    2  501    0  0.10501324288E+02  0.13916992363E+03  0.12938936590E+03  0.25735199986E+03  0.17323365253E+03 0.  0.
         24    2    5    5    0    0  0.19859153613E+02 -0.12018986701E+01  0.51723276028E+02  0.96585308714E+02  0.79104955810E+02 0.  0.
          5    1    5    5  501    0 -0.93578293243E+01  0.14037182230E+03  0.77666089873E+02  0.16076669115E+03  0.47000000000E+01 0. -1.
        -11    1    6    6    0    0 -0.55514616194E+01  0.33411511903E+02  0.69994815917E+01  0.34585265595E+02  0.00000000000E+00 0.  1.
         12    1    6    6    0    0  0.25410615232E+02 -0.34613410573E+02  0.44723794436E+02  0.62000043119E+02  0.00000000000E+00 0. -1.
         -5    1    3    3    0  503 -0.17951860554E+02 -0.13717111660E+03 -0.84301059597E+02  0.16207079680E+03  0.47000000000E+01 0.  1.
         13    1    4    4    0    0 -0.33499622961E+02 -0.55649726547E+01 -0.25975352177E+02  0.42754094306E+02  0.00000000000E+00 0. -1.
        -14    1    4    4    0    0  0.40950159227E+02  0.35661656231E+01 -0.62437708380E+02  0.74753598613E+02  0.00000000000E+00 0.  1.
</event>
<event>
12    1  0.8563264E-002  0.2296549E+03  0.7818608E-02  0.1127156E+00
         21   -1    0    0  503  502  0.00000000000E+00  0.00000000000E+00  0.13972611448E+04  0.13972611448E+04  0.00000000000E+00 0.  1.
         21   -1    0    0  501  503 -0.00000000000E+00 -0.00000000000E+00 -0.60019666049E+02  0.60019666049E+02  0.00000000000E+00 0.  1.
          6    2    1    2  501    0 -0.14534887242E+03  0.40839623878E+02  0.22364103646E+03  0.32055686887E+03  0.17305266078E+03 0.  0.
         24    2    3    3    0    0 -0.89615692816E+02 -0.24809579951E+02  0.19491851391E+03  0.22965539159E+03  0.78114557947E+02 0.  0.
         -6    2    1    2    0  502  0.14534887242E+03 -0.40839623878E+02  0.11136004423E+04  0.11367239419E+04  0.17100060114E+03 0.  0.
        -24    2    5    5    0    0  0.17058698596E+03 -0.21523781725E+02  0.98817040358E+03  0.10072447979E+04  0.92185375564E+02 0.  0.
          5    1    3    3  501    0 -0.55733179600E+02  0.65649203829E+02  0.28722522548E+02  0.90901477288E+02  0.47000000000E+01 0. -1.
        -11    1    4    4    0    0 -0.93014900543E+02 -0.21443948260E+02  0.11439259041E+03  0.14898751417E+03  0.00000000000E+00 0.  1.
         12    1    4    4    0    0  0.33992077277E+01 -0.33656316909E+01  0.80525923505E+02  0.80667877412E+02  0.00000000000E+00 0. -1.
         -5    1    5    5    0  502 -0.25238113542E+02 -0.19315842153E+02  0.12543003867E+03  0.12947914401E+03  0.47000000000E+01 0.  1.
         13    1    6    6    0    0  0.25352607823E+02  0.22565190358E+02  0.87070666112E+02  0.93451824147E+02  0.00000000000E+00 0. -1.
        -14    1    6    6    0    0  0.14523437814E+03 -0.44088972083E+02  0.90109973747E+03  0.91379297377E+03  0.00000000000E+00 0.  1.
</event>
<event>
12    1  0.8563264E-002  0.1753477E+03  0.7818608E-02  0.1172477E+00
         21   -1    0    0  503  502  0.00000000000E+00  0.00000000000E+00  0.75943840786E+03  0.75943840786E+03  0.00000000000E+00 0.  1.
         21   -1    0    0  501  503 -0.00000000000E+00 -0.00000000000E+00 -0.20005985212E+03  0.20005985212E+03  0.00000000000E+00 0. -1.
          6    2    1    2  501    0 -0.56007653760E+01  0.30985218302E+02 -0.14895084149E+03  0.22978780221E+03  0.17211806570E+03 0.  0.
         24    2    3    3    0    0 -0.18907565610E+02 -0.40427732366E+02 -0.44196716831E+02  0.10222449601E+03  0.80651101822E+02 0.  0.
         -6    2    1    2    0  502  0.56007653760E+01 -0.30985218302E+02  0.70832939722E+03  0.72971045776E+03  0.17249743438E+03 0.  0.
        -24    2    5    5    0    0 -0.62646088935E+02 -0.10853707229E+02  0.38283793508E+03  0.39649927429E+03  0.81267795325E+02 0.  0.
          5    1    3    3  501    0  0.13306800234E+02  0.71412950668E+02 -0.10475412466E+03  0.12756330620E+03  0.47000000000E+01 0. -1.
        -13    1    4    4    0    0 -0.48094617902E+02 -0.14004553343E+02 -0.36819759719E+02  0.62168436455E+02  0.00000000000E+00 0.  1.
         14    1    4    4    0    0  0.29187052292E+02 -0.26423179022E+02 -0.73769571115E+01  0.40056059559E+02  0.00000000000E+00 0. -1.
         -5    1    5    5    0  502  0.68246854311E+02 -0.20131511073E+02  0.32549146214E+03  0.33321118347E+03  0.47000000000E+01 0.  1.
         13    1    6    6    0    0  0.12965151928E+02  0.17932420901E+02  0.73773422509E+02  0.77020677436E+02  0.00000000000E+00 0. -1.
        -14    1    6    6    0    0 -0.75611240864E+02 -0.28786128130E+02  0.30906451257E+03  0.31947859686E+03  0.00000000000E+00 0.  1.
</event>
<event>
12    1  0.8563264E-002  0.1878244E+03  0.7818608E-02  0.1163109E+00
         21   -1    0    0  501  502  0.00000000000E+00  0.00000000000E+00  0.52454579837E+02  0.52454579837E+02  0.00000000000E+00 0.  1.
         21   -1    0    0  502  503 -0.00000000000E+00 -0.00000000000E+00 -0.66175880342E+03  0.66175880342E+03  0.00000000000E+00 0.  1.
         -6    2    1    2    0  503 -0.28581512885E+01  0.36842046131E+02 -0.37038816161E+03  0.41030732043E+03  0.17262445234E+03 0.  0.
        -24    2    3    3    0    0  0.29941164036E+02  0.47679103175E+02 -0.10887130288E+03  0.14647708280E+03  0.80204769243E+02 0.  0.
          6    2    1    2  501    0  0.28581512885E+01 -0.36842046131E+02 -0.23891606198E+03  0.30390606283E+03  0.18415348208E+03 0.  0.
         24    2    5    5    0    0 -0.11166301761E+02  0.28090910758E+01 -0.24738946064E+03  0.26074605299E+03  0.81574393177E+02 0.  0.
          5    1    5    5  501    0  0.14024453050E+02 -0.39651137207E+02  0.84733986658E+01  0.43160009848E+02  0.47000000000E+01 0. -1.
        -11    1    6    6    0    0 -0.41981004656E+02 -0.13199830832E+02 -0.98878525959E+02  0.10822940073E+03  0.00000000000E+00 0.  1.
         12    1    6    6    0    0  0.30814702895E+02  0.16008921908E+02 -0.14851093468E+03  0.15251665226E+03  0.00000000000E+00 0. -1.
         -5    1    3    3    0  503 -0.32799315325E+02 -0.10837057044E+02 -0.26151685873E+03  0.26383023763E+03  0.47000000000E+01 0.  1.
         11    1    4    4    0    0 -0.34225448302E+01 -0.17703622800E+02 -0.47468501067E+02  0.50777856069E+02  0.00000000000E+00 0. -1.
        -12    1    4    4    0    0  0.33363708866E+02  0.65382725975E+02 -0.61402801816E+02  0.95699226727E+02  0.00000000000E+00 0.  1.
</event>
<event>
12    1  0.8563264E-002  0.2821852E+03  0.7818608E-02  0.1094504E+00
         21   -1    0    0  501  502  0.00000000000E+00  0.00000000000E+00  0.20349629185E+03  0.20349629185E+03  0.00000000000E+00 0. -1.
         21   -1    0    0  502  503 -0.00000000000E+00 -0.00000000000E+00 -0.39439323770E+03  0.39439323770E+03  0.00000000000E+00 0. -1.
         -6    2    1    2    0  503 -0.15017140720E+03 -0.16654942776E+03 -0.68860226984E+02  0.29044615070E+03  0.17125148807E+03 0.  0.
        -24    2    3    3    0    0 -0.15183909841E+03 -0.69149908094E+02 -0.39919754015E+02  0.18871568033E+03  0.78633324017E+02 0.  0.
          6    2    1    2  501    0  0.15017140720E+03  0.16654942776E+03 -0.12203671887E+03  0.30744337885E+03  0.17128428713E+03 0.  0.
         24    2    5    5    0    0  0.15904125086E+03  0.11945640483E+03 -0.14000887280E+03  0.25604770537E+03  0.79962433877E+02 0.  0.
          5    1    5    5  501    0 -0.88698436584E+01  0.47093022934E+02  0.17972153935E+02  0.51395673482E+02  0.47000000000E+01 0. -1.
        -13    1    6    6    0    0  0.17692059125E+02  0.24997461807E+02 -0.61680529839E+02  0.68864866326E+02  0.00000000000E+00 0.  1.
         14    1    6    6    0    0  0.14134919173E+03  0.94458943019E+02 -0.78328342965E+02  0.18718283904E+03  0.00000000000E+00 0. -1.
         -5    1    3    3    0  503  0.16676912120E+01 -0.97399519666E+02 -0.28940472969E+02  0.10173047037E+03  0.47000000000E+01 0.  1.
         11    1    4    4    0    0 -0.64046806621E+02  0.11502181178E+02 -0.10365943017E+02  0.65891929588E+02  0.00000000000E+00 0. -1.
        -12    1    4    4    0    0 -0.87792291790E+02 -0.80652089272E+02 -0.29553810998E+02  0.12282375074E+03  0.00000000000E+00 0.  1.
</event>
<event>
12    1  0.8563264E-002  0.2244316E+03  0.7818608E-02  0.1130863E+00
         21   -1    0    0  501  502  0.00000000000E+00  0.00000000000E+00  0.51064911905E+03  0.51064911905E+03  0.00000000000E+00 0.  1.
         21   -1    0    0  502  503 -0.00000000000E+00 -0.00000000000E+00 -0.15657483075E+03  0.15657483075E+03  0.00000000000E+00 0.  1.
         -6    2    1    2    0  503  0.14465312086E+03  0.38803686469E+01 -0.27239840436E+02  0.22476491511E+03  0.16981659377E+03 0.  0.
        -24    2    3    3    0    0  0.93103229072E+02 -0.20317762392E+02 -0.78684507141E+02  0.14787808515E+03  0.81213629831E+02 0.  0.
          6    2    1    2  501    0 -0.14465312086E+03 -0.38803686469E+01  0.38131412874E+03  0.44245903469E+03  0.17155159564E+03 0.  0.
         24    2    5    5    0    0 -0.10417335440E+03 -0.66580126625E+02  0.22027812406E+03  0.26490747613E+03  0.79802994568E+02 0.  0.
          5    1    5    5  501    0 -0.40479766460E+02  0.62699757978E+02  0.16103600468E+03  0.17755155856E+03  0.47000000000E+01 0. -1.
        -13    1    6    6    0    0 -0.60337589933E+02  0.66281386251E+01  0.10794014290E+03  0.12383711653E+03  0.00000000000E+00 0.  1.
         14    1    6    6    0    0 -0.43835764469E+02 -0.73208265250E+02  0.11233798115E+03  0.14107035960E+03  0.00000000000E+00 0. -1.
         -5    1    3    3    0  503  0.51549891790E+02  0.24198131039E+02  0.51444666705E+02  0.76886829963E+02  0.47000000000E+01 0.  1.
         13    1    4    4    0    0  0.32325639302E-01 -0.31293780125E+02 -0.16166117259E+02  0.35222791864E+02  0.00000000000E+00 0. -1.
        -14    1    4    4    0    0  0.93070903433E+02  0.10976017733E+02 -0.62518389882E+02  0.11265529328E+03  0.00000000000E+00 0.  1.
</event>
<event>
12    1  0.8563264E-002  0.1883481E+03  0.7818608E-02  0.1160650E+00
         21   -1    0    0  503  502  0.00000000000E+00  0.00000000000E+00  0.51200665882E+02  0.51200665882E+02  0.00000000000E+00 0. -1.
         21   -1    0    0  501  503 -0.00000000000E+00 -0.00000000000E+00 -0.68527215941E+03  0.68527215941E+03  0.00000000000E+00 0.  1.
          6    2    1    2  501    0  0.67397862282E+02  0.38272991673E+02 -0.29363454952E+03  0.34884991457E+03  0.17166164538E+03 0.  0.
         24    2    3    3    0    0  0.23078668322E+01  0.68798489548E+02 -0.22885184327E+03  0.25196130556E+03  0.79829661885E+02 0.  0.
         -6    2    1    2    0  502 -0.67397862282E+02 -0.38272991673E+02 -0.34043694401E+03  0.38762291072E+03  0.16836541906E+03 0.  0.
        -24    2    5    5    0    0 -0.10615709613E+02  0.66575728715E+01 -0.28423761822E+03  0.29584370441E+03  0.81089193230E+02 0.  0.
          5    1    3    3  501    0  0.65089995449E+02 -0.30525497875E+02 -0.64782706250E+02  0.96888609017E+02  0.47000000000E+01 0. -1.
        -11    1    4    4    0    0  0.19093509873E+02  0.72025925586E-01 -0.12407999451E+03  0.12554048090E+03  0.00000000000E+00 0.  1.
         12    1    4    4    0    0 -0.16785643040E+02  0.68726463623E+02 -0.10477184875E+03  0.12642082465E+03  0.00000000000E+00 0. -1.
         -5    1    5    5    0  502 -0.56782152668E+02 -0.44930564545E+02 -0.56199325787E+02  0.91779206310E+02  0.47000000000E+01 0.  1.
         13    1    6    6    0    0 -0.17180206751E+02 -0.24289680014E+02 -0.41552921516E+02  0.51105707565E+02  0.00000000000E+00 0. -1.
        -14    1    6    6    0    0  0.65644971372E+01  0.30947252886E+02 -0.24268469671E+03  0.24473799684E+03  0.00000000000E+00 0.  1.
</event>
<event>
12    1  0.8563264E-002  0.3358555E+03  0.7818608E-02  0.1068637E+00
         21   -1    0    0  503  502  0.00000000000E+00  0.00000000000E+00  0.21418996262E+03  0.21418996262E+03  0.00000000000E+00 0. -1.
         21   -1    0    0  501  503 -0.00000000000E+00 -0.00000000000E+00 -0.52582961240E+03  0.52582961240E+03  0.00000000000E+00 0. -1.
          6    2    1    2  501    0  0.18850897963E+03 -0.21755189364E+03 -0.15056970773E+03  0.36753814852E+03  0.17189703867E+03 0.  0.
         24    2    3    3    0    0  0.72251709460E+02 -0.10329914090E+03 -0.77457297228E+01  0.15076586462E+03  0.82336672105E+02 0.  0.
         -6    2    1    2    0  502 -0.18850897963E+03  0.21755189364E+03 -0.16106994206E+03  0.37248142651E+03  0.17301567858E+03 0.  0.
        -24    2    5    5    0    0 -0.15715348243E+03  0.23053806544E+03 -0.16982962388E+03  0.33711718060E+03  0.83431862325E+02 0.  0.
          5    1    3    3  501    0  0.11625727017E+03 -0.11425275273E+03 -0.14282397801E+03  0.21677228390E+03  0.47000000000E+01 0. -1.
        -11    1    4    4    0    0 -0.97039418745E+01 -0.33002333820E+02 -0.23483719463E+02  0.41650997651E+02  0.00000000000E+00 0.  1.
         12    1    4    4    0    0  0.81955651334E+02 -0.70296807082E+02  0.15737989741E+02  0.10911486696E+03  0.00000000000E+00 0. -1.
         -5    1    5    5    0  502 -0.31355497200E+02 -0.12986171804E+02  0.87596818276E+01  0.35364245906E+02  0.47000000000E+01 0.  1.
         11    1    6    6    0    0 -0.45205331388E+02  0.10946108046E+03 -0.33269107188E+02  0.12301253438E+03  0.00000000000E+00 0. -1.
        -12    1    6    6    0    0 -0.11194815104E+03  0.12107698498E+03 -0.13656051670E+03  0.21410464622E+03  0.00000000000E+00 0.  1.
</event>
<event>
12    1  0.8563264E-002  0.1929237E+03  0.7818608E-02  0.1155939E+00
         21   -1    0    0  503  502  0.00000000000E+00  0.00000000000E+00  0.57074277023E+02  0.57074277023E+02  0.00000000000E+00 0. -1.
         21   -1    0    0  501  503 -0.00000000000E+00 -0.00000000000E+00 -0.65671381097E+03  0.65671381097E+03  0.00000000000E+00 0.  1.
          6    2    1    2  501    0  0.39364906934E+02  0.76087532020E+02 -0.33408139111E+03  0.38578481415E+03  0.17286017041E+03 0.  0.
         24    2    3    3    0    0  0.14123816207E+02  0.77420799145E+02 -0.10663495046E+03  0.15688993952E+03  0.83964147948E+02 0.  0.
         -6    2    1    2    0  502 -0.39364906934E+02 -0.76087532020E+02 -0.26555814283E+03  0.32800327384E+03  0.17241262135E+03 0.  0.
        -24    2    5    5    0    0  0.35720802635E+02 -0.11681033404E+02 -0.87366614904E+02  0.12413966387E+03  0.79782883274E+02 0.  0.
          5    1    3    3  501    0  0.25241090726E+02 -0.13332671249E+01 -0.22744644066E+03  0.22889487462E+03  0.47000000000E+01 0. -1.
        -11    1    4    4    0    0  0.40104016943E+02  0.35190759043E+02 -0.89936237799E+02  0.10457173885E+03  0.00000000000E+00 0.  1.
         12    1    4    4    0    0 -0.25980200735E+02  0.42230040102E+02 -0.16698712656E+02  0.52318200673E+02  0.00000000000E+00 0. -1.
         -5    1    5    5    0  502 -0.75085709569E+02 -0.64406498616E+02 -0.17819152793E+03  0.20386360997E+03  0.47000000000E+01 0.  1.
         13    1    6    6    0    0  0.85235483678E+01  0.45903668400E+01  0.14512252081E+02  0.17444993694E+02  0.00000000000E+00 0. -1.
        -14    1    6    6    0    0  0.27197254267E+02 -0.16271400244E+02 -0.10187886699E+03  0.10669467018E+03  0.00000000000E+00 0.  1.
</event>
<event>
12    1  0.8563264E-002  0.1742088E+03  0.7818608E-02  0.1173913E+00
         21   -1    0    0  503  502  0.00000000000E+00  0.00000000000E+00  0.24467928437E+02  0.24467928437E+02  0.00000000000E+00 0.  1.
         21   -1    0    0  501  503 -0.00000000000E+00 -0.00000000000E+00 -0.13008690500E+04  0.13008690500E+04  0.00000000000E+00 0.  1.
          6    2    1    2  501    0  0.24688518400E+02 -0.88189265483E+01 -0.79068579691E+03  0.80932527684E+03  0.17069293450E+03 0.  0.
         24    2    3    3    0    0  0.26547967745E+01 -0.48593928927E+02 -0.71219303377E+03  0.71849169512E+03  0.81504482862E+02 0.  0.
         -6    2    1    2    0  502 -0.24688518400E+02  0.88189265483E+01 -0.48571532464E+03  0.51601170159E+03  0.17222486225E+03 0.  0.
        -24    2    5    5    0    0 -0.51447911880E+02 -0.27676575869E+02 -0.14095959000E+03  0.16826668954E+03  0.70930898109E+02 0.  0.
          5    1    3    3  501    0  0.22033721625E+02  0.39775002379E+02 -0.78492763133E+02  0.90833581715E+02  0.47000000000E+01 0. -1.
        -11    1    4    4    0    0 -0.56299169897E+01 -0.23243436290E+02 -0.46728176748E+02  0.52492626130E+02  0.00000000000E+00 0.  1.
         12    1    4    4    0    0  0.82847137642E+01 -0.25350492637E+02 -0.66546485703E+03  0.66599906899E+03  0.00000000000E+00 0. -1.
         -5    1    5    5    0  502  0.26759393480E+02  0.36495502418E+02 -0.34475573464E+03  0.34774501205E+03  0.47000000000E+01 0.  1.
         13    1    6    6    0    0  0.37597232207E+01  0.13450484907E+02 -0.32967375203E+01  0.14349896906E+02  0.00000000000E+00 0. -1.
        -14    1    6    6    0    0 -0.55207635101E+02 -0.41127060776E+02 -0.13766285248E+03  0.15391679263E+03  0.00000000000E+00 0.  1.
</event>
<event>
12    1  0.8563264E-002  0.2139986E+03  0.7818608E-02  0.1138602E+00
         21   -1    0    0  503  502  0.00000000000E+00  0.00000000000E+00  0.72571591848E+03  0.72571591848E+03  0.00000000000E+00 0.  1.
         21   -1    0    0  501  503 -0.00000000000E+00 -0.00000000000E+00 -0.65049090900E+02  0.65049090900E+02  0.00000000000E+00 0.  1.
          6    2    1    2  501    0  0.11908984733E+03  0.40985596005E+02  0.40232689868E+03  0.45530277679E+03  0.17196358433E+03 0.  0.
         24    2    3    3    0    0  0.74620548604E+02  0.72289836308E+02  0.36593536291E+03  0.38969860111E+03  0.84630155243E+02 0.  0.
         -6    2    1    2    0  502 -0.11908984733E+03 -0.40985596005E+02  0.25833992891E+03  0.33546223260E+03  0.17301207996E+03 0.  0.
        -24    2    5    5    0    0 -0.50772336373E+02 -0.70471660085E+02  0.22423549722E+03  0.25347496200E+03  0.80149317737E+02 0.  0.
          5    1    3    3  501    0  0.44469298728E+02 -0.31304240303E+02  0.36391535770E+02  0.65604175675E+02  0.47000000000E+01 0. -1.
        -13    1    4    4    0    0  0.91632962996E+02  0.47903633973E+02  0.26440194863E+03  0.28390094839E+03  0.00000000000E+00 0.  1.
         14    1    4    4    0    0 -0.17012414392E+02  0.24386202335E+02  0.10153341428E+03  0.10579765273E+03  0.00000000000E+00 0. -1.
         -5    1    5    5    0  502 -0.68317510959E+02  0.29486064079E+02  0.34104431688E+02  0.81987270593E+02  0.47000000000E+01 0.  1.
         13    1    6    6    0    0  0.75761409305E+00 -0.49245076464E+02  0.48532242504E+02  0.69144993294E+02  0.00000000000E+00 0. -1.
        -14    1    6    6    0    0 -0.51529950466E+02 -0.21226583620E+02  0.17570325472E+03  0.18432996871E+03  0.00000000000E+00 0.  1.
</event>
<event>
12    1  0.8563264E-002  0.3383691E+03  0.7818608E-02  0.1067514E+00
         21   -1    0    0  503  502  0.00000000000E+00  0.00000000000E+00  0.26209262410E+04  0.26209262410E+04  0.00000000000E+00 0. -1.
         21   -1    0    0  501  503 -0.00000000000E+00 -0.00000000000E+00 -0.56163848258E+02  0.56163848258E+02  0.00000000000E+00 0.  1.
          6    2    1    2  501    0 -0.18512743001E+03  0.22515476863E+03  0.65106842394E+03  0.73374638806E+03  0.17183373987E+03 0.  0.
         24    2    3    3    0    0 -0.65963403055E+02  0.18505899313E+03  0.39377735687E+03  0.44734017352E+03  0.80340665789E+02 0.  0.
         -6    2    1    2    0  502  0.18512743001E+03 -0.22515476863E+03  0.19136939688E+04  0.19433437012E+04  0.17144474207E+03 0.  0.
        -24    2    5    5    0    0  0.16173610757E+03 -0.11521682767E+03  0.14811915871E+04  0.14964500841E+04  0.77465157532E+02 0.  0.
          5    1    3    3  501    0 -0.11916402695E+03  0.40095775501E+02  0.25729106707E+03  0.28640621454E+03  0.47000000000E+01 0. -1.
        -13    1    4    4    0    0  0.79941767626E+01  0.40029391154E+01  0.15750299614E+01  0.90780561274E+01  0.00000000000E+00 0.  1.
         14    1    4    4    0    0 -0.73957579818E+02  0.18105605402E+03  0.39220232691E+03  0.43826211739E+03  0.00000000000E+00 0. -1.
         -5    1    5    5    0  502  0.23391322436E+02 -0.10993794097E+03  0.43250238178E+03  0.44689361718E+03  0.47000000000E+01 0.  1.
         13    1    6    6    0    0  0.10331379664E+03 -0.26143474512E+02  0.72305436852E+03  0.73086581646E+03  0.00000000000E+00 0. -1.
        -14    1    6    6    0    0  0.58422310931E+02 -0.89073353155E+02  0.75813721855E+03  0.76558426761E+03  0.00000000000E+00 0.  1.
</event>
<event>
12    1  0.8563264E-002  0.1913243E+03  0.7818608E-02  0.1157633E+00
         21   -1    0    0  503  502  0.00000000000E+00  0.00000000000E+00  0.92263181006E+03  0.92263181006E+03  0.00000000000E+00 0.  1.
         21   -1    0    0  501  503 -0.00000000000E+00 -0.00000000000E+00 -0.50266597278E+02  0.50266597278E+02  0.00000000000E+00 0.  1.
          6    2    1    2  501    0  0.43132494028E+02 -0.66820708087E+02  0.20796126797E+03  0.28149578791E+03  0.17223986346E+03 0.  0.
         24    2    3    3    0    0  0.75131656694E+02 -0.96159070342E+02  0.14364381526E+03  0.20375576839E+03  0.77405005298E+02 0.  0.
         -6    2    1    2    0  502 -0.43132494028E+02  0.66820708087E+02  0.66440394481E+03  0.69140261942E+03  0.17401023303E+03 0.  0.
        -24    2    5    5    0    0 -0.23254848300E+02  0.54845033283E+02  0.17399945302E+03  0.20042686324E+03  0.79663995724E+02 0.  0.
          5    1    3    3  501    0 -0.31999162666E+02  0.29338362255E+02  0.64317452715E+02  0.77740019520E+02  0.47000000000E+01 0. -1.
        -13    1    4    4    0    0  0.61593095144E+01 -0.59642404251E+02  0.33250314287E+02  0.68561920033E+02  0.00000000000E+00 0.  1.
         14    1    4    4    0    0  0.68972347179E+02 -0.36516666091E+02  0.11039350097E+03  0.13519384836E+03  0.00000000000E+00 0. -1.
         -5    1    5    5    0  502 -0.19877645728E+02  0.11975674804E+02  0.49040449179E+03  0.49097575618E+03  0.47000000000E+01 0.  1.
         13    1    6    6    0    0  0.13310399487E+02 -0.14253612832E+02  0.51913294272E+02  0.55455588857E+02  0.00000000000E+00 0. -1.
        -14    1    6    6    0    0 -0.36565247787E+02  0.69098646115E+02  0.12208615874E+03  0.14497127439E+03  0.00000000000E+00 0.  1.
</event>
<event>
12    1  0.8563264E-002  0.1942935E+03  0.7818608E-02  0.1154750E+00
         21   -1    0    0  501  502  0.00000000000E+00  0.00000000000E+00  0.70987512476E+03  0.70987512476E+03  0.00000000000E+00 0. -1.
         21   -1    0    0  502  503 -0.00000000000E+00 -0.00000000000E+00 -0.18466319679E+03  0.18466319679E+03  0.00000000000E+00 0. -1.
         -6    2    1    2    0  503  0.82411151745E+02  0.31867955595E+02 -0.11490213723E+03  0.22572649082E+03  0.17303983066E+03 0.  0.
        -24    2    3    3    0    0  0.10269805575E+03  0.30261198390E+02 -0.14012199775E+03  0.19298093376E+03  0.78389002797E+02 0.  0.
          6    2    1    2  501    0 -0.82411151745E+02 -0.31867955595E+02  0.64011406520E+03  0.66881183072E+03  0.17249951861E+03 0.  0.
         24    2    5    5    0    0 -0.10181989086E+03 -0.38396175971E+02  0.30680695962E+03  0.33484321925E+03  0.78408637953E+02 0.  0.
          5    1    5    5  501    0  0.19408739111E+02  0.65282203758E+01  0.33330710558E+03  0.33396861147E+03  0.47000000000E+01 0. -1.
        -13    1    6    6    0    0  0.19752462197E+01 -0.56595741491E+01 -0.28350331030E+01  0.66309720157E+01  0.00000000000E+00 0.  1.
         14    1    6    6    0    0 -0.10379513708E+03 -0.32736601821E+02  0.30964199272E+03  0.32821224724E+03  0.00000000000E+00 0. -1.
         -5    1    3    3    0  503 -0.20286904002E+02  0.16067572048E+01  0.25219860524E+02  0.32745557065E+02  0.47000000000E+01 0.  1.
         11    1    4    4    0    0  0.73225263176E+02 -0.18672887077E+02 -0.79645498792E+02  0.10979080725E+03  0.00000000000E+00 0. -1.
        -12    1    4    4    0    0  0.29472792570E+02  0.48934085467E+02 -0.60476498957E+02  0.83190126509E+02  0.00000000000E+00 0.  1.
</event>
<event>
12    1  0.8563264E-002  0.1762044E+03  0.7818608E-02  0.1172026E+00
         21   -1    0    0  501  502  0.00000000000E+00  0.00000000000E+00  0.12060867754E+03  0.12060867754E+03  0.00000000000E+00 0. -1.
         21   -1    0    0  502  503 -0.00000000000E+00 -0.00000000000E+00 -0.25827086650E+03  0.25827086650E+03  0.00000000000E+00 0. -1.
         -6    2    1    2    0  503 -0.27377882235E+01 -0.29417557809E+02 -0.92024558888E+02  0.19878759760E+03  0.17370981932E+03 0.  0.
        -24    2    3    3    0    0  0.43478627922E+01 -0.25409049995E+02 -0.13290954496E+03  0.15683587926E+03  0.79170841536E+02 0.  0.
          6    2    1    2  501    0  0.27377882235E+01  0.29417557809E+02 -0.45637630078E+02  0.18009194645E+03  0.17168991730E+03 0.  0.
         24    2    5    5    0    0 -0.60366840021E+02  0.40747891965E+02 -0.20138824851E+02  0.11093379692E+03  0.81216925322E+02 0.  0.
          5    1    5    5  501    0  0.63104628244E+02 -0.11330334157E+02 -0.25498805226E+02  0.69158149526E+02  0.47000000000E+01 0. -1.
        -13    1    6    6    0    0 -0.21119657517E+02 -0.24864683006E+02 -0.67805152384E+01  0.33320680988E+02  0.00000000000E+00 0.  1.
         14    1    6    6    0    0 -0.39247182504E+02  0.65612574971E+02 -0.13358309613E+02  0.77613115931E+02  0.00000000000E+00 0. -1.
         -5    1    3    3    0  503 -0.70856510157E+01 -0.40085078135E+01  0.40884986072E+02  0.41951718336E+02  0.47000000000E+01 0.  1.
         13    1    4    4    0    0 -0.36080906396E+02 -0.22792610833E+02 -0.64933020767E+02  0.77702201390E+02  0.00000000000E+00 0. -1.
        -14    1    4    4    0    0  0.40428769188E+02 -0.26164391617E+01 -0.67976524193E+02  0.79133677871E+02  0.00000000000E+00 0.  1.
</event>
<event>
12    1  0.8563264E-002  0.2887348E+03  0.7818608E-02  0.1091056E+00
         21   -1    0    0  503  502  0.00000000000E+00  0.00000000000E+00  0.12413660339E+04  0.12413660339E+04  0.00000000000E+00 0.  1.
         21   -1    0    0  501  503 -0.00000000000E+00 -0.00000000000E+00 -0.10191928653E+03  0.10191928653E+03  0.00000000000E+00 0.  1.
          6    2    1    2  501    0 -0.22126772975E+03  0.68072876251E+02  0.17725392747E+03  0.33880188785E+03  0.17255271571E+03 0.  0.
         24    2    3    3    0    0 -0.22527239969E+03  0.95167776237E+02  0.14064731536E+03  0.29284206805E+03  0.78550937643E+02 0.  0.
         -6    2    1    2    0  502  0.22126772975E+03 -0.68072876251E+02  0.96219281989E+03  0.10044834326E+04  0.17198435666E+03 0.  0.
        -24    2    5    5    0    0  0.19945277836E+03 -0.99991050107E+02  0.68695037856E+03  0.72649934411E+03  0.78235883613E+02 0.  0.
          5    1    3    3  501    0  0.40046699350E+01 -0.27094899986E+02  0.36606612109E+02  0.45959819807E+02  0.47000000000E+01 0. -1.
        -13    1    4    4    0    0 -0.16763959680E+03  0.76297401332E+02  0.14138519822E+03  0.23219410445E+03  0.00000000000E+00 0.  1.
         14    1    4    4    0    0 -0.57632802888E+02  0.18870374905E+02 -0.73788285372E+00  0.60647963601E+02  0.00000000000E+00 0. -1.
         -5    1    5    5    0  502  0.21814951388E+02  0.31918173856E+02  0.27524244133E+03  0.27798408845E+03  0.47000000000E+01 0.  1.
         13    1    6    6    0    0  0.10325883767E+03 -0.25535046722E+02  0.22619633712E+03  0.24995841473E+03  0.00000000000E+00 0. -1.
        -14    1    6    6    0    0  0.96193940691E+02 -0.74456003385E+02  0.46075404144E+03  0.47654092938E+03  0.00000000000E+00 0.  1.
</event>
<event>
12    1  0.8563264E-002  0.1734713E+03  0.7818608E-02  0.1174316E+00
         21   -1    0    0  503  502  0.00000000000E+00  0.00000000000E+00  0.81410186696E+02  0.81410186696E+02  0.00000000000E+00 0. -1.
         21   -1    0    0  501  503 -0.00000000000E+00 -0.00000000000E+00 -0.41716265874E+03  0.41716265874E+03  0.00000000000E+00 0. -1.
          6    2    1    2  501    0  0.21912840460E+02  0.81685469825E+01 -0.25224790579E+03  0.30604935534E+03  0.17172741246E+03 0.  0.
         24    2    3    3    0    0  0.22169740477E+02  0.57842495920E+02 -0.84569900848E+02  0.13110487688E+03  0.78734800987E+02 0.  0.
         -6    2    1    2    0  502 -0.21912840460E+02 -0.81685469825E+01 -0.83504566258E+02  0.19252349010E+03  0.17188770729E+03 0.  0.
        -24    2    5    5    0    0 -0.68325589643E+02  0.28476163942E+02 -0.31364098530E+02  0.11354440109E+03  0.80183204164E+02 0.  0.
          5    1    3    3  501    0 -0.25690001676E+00 -0.49673948938E+02 -0.16767800494E+03  0.17494447845E+03  0.47000000000E+01 0. -1.
        -11    1    4    4    0    0 -0.74231900749E-01  0.44997232199E+02 -0.93618693844E+02  0.10387115217E+03  0.00000000000E+00 0.  1.
         12    1    4    4    0    0  0.22243972377E+02  0.12845263721E+02  0.90487929960E+01  0.27233724715E+02  0.00000000000E+00 0. -1.
         -5    1    5    5    0  502  0.46412749183E+02 -0.36644710924E+02 -0.52140467728E+02  0.78979089007E+02  0.47000000000E+01 0.  1.
         13    1    6    6    0    0 -0.30856142806E+02  0.60608948876E+01 -0.55400716811E+02  0.63703025194E+02  0.00000000000E+00 0. -1.
        -14    1    6    6    0    0 -0.37469446837E+02  0.22415269054E+02  0.24036618281E+02  0.49841375898E+02  0.00000000000E+00 0.  1.
</event>
<event>
12    1  0.8563264E-002  0.2064419E+03  0.7818608E-02  0.1144887E+00
         21   -1    0    0  501  502  0.00000000000E+00  0.00000000000E+00  0.18133932381E+03  0.18133932381E+03  0.00000000000E+00 0.  1.
         21   -1    0    0  502  503 -0.00000000000E+00 -0.00000000000E+00 -0.25019616065E+03  0.25019616065E+03  0.00000000000E+00 0.  1.
         -6    2    1    2    0  503  0.99492630402E+02  0.52990359301E+02 -0.91808477734E+02  0.22382160758E+03  0.17017800608E+03 0.  0.
        -24    2    3    3    0    0  0.57307338544E+02 -0.36377357555E+02 -0.47132125141E+02  0.11526630303E+03  0.80358199336E+02 0.  0.
          6    2    1    2  501    0 -0.99492630402E+02 -0.52990359301E+02  0.22951640890E+02  0.20771387688E+03  0.17294945836E+03 0.  0.
         24    2    5    5    0    0  0.83023589396E+01 -0.52812364011E+02  0.16179398411E+02  0.99604003707E+02  0.82468840570E+02 0.  0.
          5    1    5    5  501    0 -0.10779498934E+03 -0.17799528994E+00  0.67722424792E+01  0.10810987317E+03  0.47000000000E+01 0. -1.
        -13    1    6    6    0    0 -0.30298479042E+02 -0.50636050614E+02  0.15176213937E+02  0.60928851322E+02  0.00000000000E+00 0.  1.
         14    1    6    6    0    0  0.38600837981E+02 -0.21763133977E+01  0.10031844740E+01  0.38675152384E+02  0.00000000000E+00 0. -1.
         -5    1    3    3    0  503  0.42185291858E+02  0.89367716856E+02 -0.44676352593E+02  0.10855530455E+03  0.47000000000E+01 0.  1.
         13    1    4    4    0    0  0.26747798388E+02 -0.49232181514E+02 -0.57741427656E+02  0.80456975353E+02  0.00000000000E+00 0. -1.
        -14    1    4    4    0    0  0.30559540156E+02  0.12854823959E+02  0.10609302515E+02  0.34809327678E+02  0.00000000000E+00 0.  1.
</event>
<event>
12    1  0.8563264E-002  0.1822752E+03  0.7818608E-02  0.1166032E+00
         21   -1    0    0  501  502  0.00000000000E+00  0.00000000000E+00  0.29894181716E+03  0.29894181716E+03  0.00000000000E+00 0. -1.
         21   -1    0    0  502  503 -0.00000000000E+00 -0.00000000000E+00 -0.16480466430E+03  0.16480466430E+03  0.00000000000E+00 0. -1.
         -6    2    1    2    0  503 -0.39741745717E+02  0.34511210875E+02 -0.66322139246E+02  0.19396612413E+03  0.17451017485E+03 0.  0.
        -24    2    3    3    0    0  0.13678920190E+02  0.76159468853E+02 -0.29645891321E+02  0.11679370613E+03  0.82307432014E+02 0.  0.
          6    2    1    2  501    0  0.39741745717E+02 -0.34511210875E+02  0.20045929210E+03  0.26978035734E+03  0.17270519212E+03 0.  0.
         24    2    5    5    0    0  0.29714496380E+02 -0.80569937744E+02  0.88456349849E+02  0.14817155369E+03  0.82193779153E+02 0.  0.
          5    1    5    5  501    0  0.10027249337E+02  0.46058726869E+02  0.11200294225E+03  0.12160880364E+03  0.47000000000E+01 0. -1.
        -11    1    6    6    0    0  0.29117891731E+02 -0.63755935017E+02  0.10390165880E+03  0.12533246016E+03  0.00000000000E+00 0.  1.
         12    1    6    6    0    0  0.59660464925E+00 -0.16814002727E+02 -0.15445308949E+02  0.22839093532E+02  0.00000000000E+00 0. -1.
         -5    1    3    3    0  503 -0.53420665908E+02 -0.41648257979E+02 -0.36676247926E+02  0.77172418004E+02  0.47000000000E+01 0.  1.
         11    1    4    4    0    0  0.75218158832E+01 -0.12211261403E+02 -0.24088272701E+02  0.28034576882E+02  0.00000000000E+00 0. -1.
        -12    1    4    4    0    0  0.61571043072E+01  0.88370730256E+02 -0.55576186202E+01  0.88759129244E+02  0.00000000000E+00 0.  1.
</event>
<event>
12    1  0.8563264E-002  0.1848571E+03  0.7818608E-02  0.1163210E+00
         21   -1    0    0  501  502  0.00000000000E+00  0.00000000000E+00  0.17507219630E+03  0.17507219630E+03  0.00000000000E+00 0.  1.
         21   -1    0    0  502  503 -0.00000000000E+00 -0.00000000000E+00 -0.24539600611E+03  0.24539600611E+03  0.00000000000E+00 0.  1.
         -6    2    1    2    0  503  0.66388140955E+02 -0.20475392417E+02  0.60038770117E+02  0.19436250709E+03  0.17130529266E+03 0.  0.
        -24    2    3    3    0    0  0.79450753508E+02 -0.62795986942E+02  0.10071710322E+02  0.12742625658E+03  0.76682809738E+02 0.  0.
          6    2    1    2  501    0 -0.66388140955E+02  0.20475392417E+02 -0.13036257992E+03  0.22610569532E+03  0.17118047861E+03 0.  0.
         24    2    5    5    0    0 -0.42666082355E+02 -0.52625098581E+02 -0.52288863803E+02  0.11645163476E+03  0.78975074399E+02 0.  0.
          5    1    5    5  501    0 -0.23722058600E+02  0.73100490999E+02 -0.78073716117E+02  0.10965406056E+03  0.47000000000E+01 0. -1.
        -13    1    6    6    0    0 -0.37005926671E+02 -0.48528514998E+02 -0.72675489499E+02  0.94900907006E+02  0.00000000000E+00 0.  1.
         14    1    6    6    0    0 -0.56601556841E+01 -0.40965835838E+01  0.20386625697E+02  0.21550727754E+02  0.00000000000E+00 0. -1.
         -5    1    3    3    0  503 -0.13062612553E+02  0.42320594525E+02  0.49967059795E+02  0.66936250509E+02  0.47000000000E+01 0.  1.
         13    1    4    4    0    0  0.14744255886E+02  0.17996033833E+02 -0.12547182867E+01  0.23298597240E+02  0.00000000000E+00 0. -1.
        -14    1    4    4    0    0  0.64706497621E+02 -0.80792020776E+02  0.11326428609E+02  0.10412765934E+03  0.00000000000E+00 0.  1.
</event>
<event>
12    1  0.8563264E-002  0.2315143E+03  0.7818608E-02  0.1126136E+00
         21   -1    0    0  503  502  0.00000000000E+00  0.00000000000E+00  0.31122946696E+03  0.31122946696E+03  0.00000000000E+00 0. -1.
         21   -1    0    0  501  503 -0.00000000000E+00 -0.00000000000E+00 -0.20002944018E+03  0.20002944018E+03  0.00000000000E+00 0. -1.
          6    2    1    2  501    0 -0.27297153861E+02 -0.15321033834E+03 -0.43993861588E+02  0.23254042415E+03  0.16709592043E+03 0.  0.
         24    2    3    3    0    0  0.42212952545E+02 -0.10568471239E+03 -0.34824213014E+01  0.13897971227E+03  0.79699694908E+02 0.  0.
         -6    2    1    2    0  502  0.27297153861E+02  0.15321033834E+03  0.15519388837E+03  0.27871848298E+03  0.17140684755E+03 0.  0.
        -24    2    5    5    0    0  0.27994021950E+02  0.17351433831E+03  0.95747660556E+02  0.21572100652E+03  0.80480104920E+02 0.  0.
          5    1    3    3  501    0 -0.69510106406E+02 -0.47525625956E+02 -0.40511440286E+02  0.93560711889E+02  0.47000000000E+01 0. -1.
        -13    1    4    4    0    0  0.14138126642E+02  0.83292524627E+01  0.12295543820E+02  0.20504718222E+02  0.00000000000E+00 0.  1.
         14    1    4    4    0    0  0.28074825903E+02 -0.11401396485E+03 -0.15777965122E+02  0.11847499404E+03  0.00000000000E+00 0. -1.
         -5    1    5    5    0  502 -0.69686808871E+00 -0.20303999968E+02  0.59446227809E+02  0.62997476462E+02  0.47000000000E+01 0.  1.
         11    1    6    6    0    0  0.73907256777E+01  0.14389129926E+03  0.10522431745E+03  0.17841380499E+03  0.00000000000E+00 0. -1.
        -12    1    6    6    0    0  0.20603296272E+02  0.29623039056E+02 -0.94766568967E+01  0.37307201531E+02  0.00000000000E+00 0.  1.
</event>
<event>
12    1  0.8563264E-002  0.1739369E+03  0.7818608E-02  0.1173829E+00
         21   -1    0    0  503  502  0.00000000000E+00  0.00000000000E+00  0.31159552368E+02  0.31159552368E+02  0.00000000000E+00 0.  1.
         21   -1    0    0  501  503 -0.00000000000E+00 -0.00000000000E+00 -0.11101409746E+04  0.11101409746E+04  0.00000000000E+00 0.  1.
          6    2    1    2  501    0 -0.10921101611E+02  0.23399978859E+02 -0.33686420319E+03  0.37907221796E+03  0.17190528079E+03 0.  0.
         24    2    3    3    0    0  0.83219063785E+01 -0.42990692329E+02 -0.25774899410E+03  0.27390891216E+03  0.81695131109E+02 0.  0.
         -6    2    1    2    0  502  0.10921101611E+02 -0.23399978859E+02 -0.74211721904E+03  0.76222830901E+03  0.17200929856E+03 0.  0.
        -24    2    5    5    0    0  0.56510297170E+02  0.29589428343E+02 -0.46966281803E+03  0.48091044136E+03  0.81380231122E+02 0.  0.
          5    1    3    3  501    0 -0.19243007990E+02  0.66390671188E+02 -0.79115209091E+02  0.10516330580E+03  0.47000000000E+01 0. -1.
        -13    1    4    4    0    0  0.10795693195E+02  0.18801128384E+02 -0.25032373371E+02  0.33115693208E+02  0.00000000000E+00 0.  1.
         14    1    4    4    0    0 -0.24737868168E+01 -0.61791820713E+02 -0.23271662073E+03  0.24079321895E+03  0.00000000000E+00 0. -1.
         -5    1    5    5    0  502 -0.45589195558E+02 -0.52989407202E+02 -0.27245440101E+03  0.28131786765E+03  0.47000000000E+01 0.  1.
         11    1    6    6    0    0  0.35097203202E+02  0.92220356051E+01 -0.42958523675E+03  0.43111522270E+03  0.00000000000E+00 0. -1.
        -12    1    6    6    0    0  0.21413093968E+02  0.20367392738E+02 -0.40077581281E+02  0.49795218661E+02  0.00000000000E+00 0.  1.
</event>
<event>
12    1  0.8563264E-002  0.2119108E+03  0.7818608E-02  0.1140480E+00
         21   -1    0    0  501  502  0.00000000000E+00  0.00000000000E+00  0.22077633444E+04  0.22077633444E+04  0.00000000000E+00 0.  1.
         21   -1    0    0  502  503 -0.00000000000E+00 -0.00000000000E+00 -0.31904422857E+02  0.31904422857E+02  0.00000000000E+00 0. -1.
         -6    2    1    2    0  503 -0.39785359284E+02 -0.11483556803E+03  0.41129163605E+03  0.46267376136E+03  0.17359757219E+03 0.  0.
        -24    2    3    3    0    0 -0.30570180018E+02 -0.19048374946E+02  0.31373435419E+03  0.32556205824E+03  0.79145639637E+02 0.  0.
          6    2    1    2  501    0  0.39785359284E+02  0.11483556803E+03  0.17645672855E+04  0.17769940059E+04  0.17099681126E+03 0.  0.
         24    2    5    5    0    0  0.86611878495E+02  0.10538392890E+03  0.11797421150E+04  0.11902021975E+04  0.78628385537E+02 0.  0.
          5    1    5    5  501    0 -0.46826519212E+02  0.94516391342E+01  0.58482517053E+03  0.58679180845E+03  0.47000000000E+01 0. -1.
        -13    1    6    6    0    0  0.65474063817E+02  0.86292501905E+02  0.11036652945E+04  0.11089681381E+04  0.00000000000E+00 0.  1.
         14    1    6    6    0    0  0.21137814678E+02  0.19091426994E+02  0.76076820445E+02  0.81234059378E+02  0.00000000000E+00 0. -1.
         -5    1    3    3    0  503 -0.92151792651E+01 -0.95787193087E+02  0.97557281862E+02  0.13711170312E+03  0.47000000000E+01 0.  1.
         13    1    4    4    0    0 -0.67720762249E+01 -0.27268907872E+02  0.31513459189E+02  0.42220284970E+02  0.00000000000E+00 0. -1.
        -14    1    4    4    0    0 -0.23798103794E+02  0.82205329256E+01  0.28222089500E+03  0.28334177327E+03  0.00000000000E+00 0.  1.
</event>
<event>
12    1  0.8563264E-002  0.2679169E+03  0.7818608E-02  0.1102738E+00
         21   -1    0    0  501  502  0.00000000000E+00  0.00000000000E+00  0.42633839416E+03  0.42633839416E+03  0.00000000000E+00 0. -1.
         21   -1    0    0  502  503 -0.00000000000E+00 -0.00000000000E+00 -0.18488264226E+03  0.18488264226E+03  0.00000000000E+00 0.  1.
         -6    2    1    2    0  503 -0.20274172327E+03  0.11125588672E+02  0.25952914695E+02  0.26738831468E+03  0.17203189230E+03 0.  0.
        -24    2    3    3    0    0 -0.21622410125E+03 -0.14726566389E+02  0.75575575589E+01  0.23259481526E+03  0.84104088427E+02 0.  0.
          6    2    1    2  501    0  0.20274172327E+03 -0.11125588672E+02  0.21550283720E+03  0.34383272175E+03  0.17478982415E+03 0.  0.
         24    2    5    5    0    0  0.58881426968E+02 -0.48497766825E+02  0.54499198692E+02  0.12465989915E+03  0.82163690097E+02 0.  0.
          5    1    5    5  501    0  0.14386029630E+03  0.37372178153E+02  0.16100363851E+03  0.21917282259E+03  0.47000000000E+01 0. -1.
        -11    1    6    6    0    0  0.57424433014E+02 -0.67115447483E+02  0.57986988377E+02  0.10566238507E+03  0.00000000000E+00 0.  1.
         12    1    6    6    0    0  0.14569939537E+01  0.18617680658E+02 -0.34877896851E+01  0.18997514084E+02  0.00000000000E+00 0. -1.
         -5    1    3    3    0  503  0.13482377986E+02  0.25852155061E+02  0.18395357136E+02  0.34793499416E+02  0.47000000000E+01 0.  1.
         13    1    4    4    0    0 -0.54636486733E+02  0.25851127681E+02  0.24312042038E+02  0.65149841696E+02  0.00000000000E+00 0. -1.
        -14    1    4    4    0    0 -0.16158761452E+03 -0.40577694070E+02 -0.16754484479E+02  0.16744497356E+03  0.00000000000E+00 0.  1.
</event>
<event>
12    1  0.8563264E-002  0.1780733E+03  0.7818608E-02  0.1170097E+00
         21   -1    0    0  503  502  0.00000000000E+00  0.00000000000E+00  0.10443149678E+04  0.10443149678E+04  0.00000000000E+00 0. -1.
         21   -1    0    0  501  503 -0.00000000000E+00 -0.00000000000E+00 -0.32582134387E+02  0.32582134387E+02  0.00000000000E+00 0. -1.
          6    2    1    2  501    0  0.29678581893E+02  0.23677248324E+02  0.35880821212E+03  0.40056637476E+03  0.17397889868E+03 0.  0.
         24    2    3    3    0    0 -0.40101815738E+02  0.34981391552E+02  0.14869157488E+03  0.17882738677E+03  0.83893959482E+02 0.  0.
         -6    2    1    2    0  502 -0.29678581893E+02 -0.23677248324E+02  0.65292462130E+03  0.67633072744E+03  0.17225348028E+03 0.  0.
        -24    2    5    5    0    0  0.25714770043E+02 -0.37855677806E+02  0.55147584932E+03  0.55978290619E+03  0.84480695680E+02 0.  0.
          5    1    3    3  501    0  0.69780397631E+02 -0.11304143229E+02  0.21011663725E+03  0.22173898799E+03  0.47000000000E+01 0. -1.
        -13    1    4    4    0    0  0.18906251669E+02 -0.13075130049E+02  0.29240197148E+02  0.37194011712E+02  0.00000000000E+00 0.  1.
         14    1    4    4    0    0 -0.59008067408E+02  0.48056521601E+02  0.11945137773E+03  0.14163337506E+03  0.00000000000E+00 0. -1.
         -5    1    5    5    0  502 -0.55393351935E+02  0.14178429482E+02  0.10144877198E+03  0.11654782125E+03  0.47000000000E+01 0.  1.
         11    1    6    6    0    0  0.40419465861E+02  0.96337375455E+01  0.34065559317E+03  0.34318038300E+03  0.00000000000E+00 0. -1.
        -12    1    6    6    0    0 -0.14704695819E+02 -0.47489415351E+02  0.21082025615E+03  0.21660252319E+03  0.00000000000E+00 0.  1.
</event>
<event>
12    1  0.8563264E-002  0.1952781E+03  0.7818608E-02  0.1155782E+00
         21   -1    0    0  503  502  0.00000000000E+00  0.00000000000E+00  0.11000825459E+04  0.11000825459E+04  0.00000000000E+00 0.  1.
         21   -1    0    0  501  503 -0.00000000000E+00 -0.00000000000E+00 -0.34516780157E+02  0.34516780157E+02  0.00000000000E+00 0. -1.
          6    2    1    2  501    0  0.55699757993E+02 -0.53250882084E+02  0.65993458540E+03  0.68822031219E+03  0.17943082681E+03 0.  0.
         24    2    3    3    0    0  0.84377169233E+02 -0.87840492254E+02  0.51002922253E+03  0.53165549217E+03  0.87705733887E+02 0.  0.
         -6    2    1    2    0  502 -0.55699757993E+02  0.53250882084E+02  0.40563118031E+03  0.44637901385E+03  0.16964507089E+03 0.  0.
        -24    2    5    5    0    0 -0.76037172290E+01 -0.32501212227E+02  0.22566831828E+03  0.24125619081E+03  0.78512511238E+02 0.  0.
          5    1    3    3  501    0 -0.28677411239E+02  0.34589610170E+02  0.14990536288E+03  0.15656482001E+03  0.47000000000E+01 0. -1.
        -13    1    4    4    0    0  0.45342892477E+02 -0.97201834936E+02  0.41184780455E+03  0.42558523086E+03  0.00000000000E+00 0.  1.
         14    1    4    4    0    0  0.39034276755E+02  0.93613426821E+01  0.98181417975E+02  0.10607026131E+03  0.00000000000E+00 0. -1.
         -5    1    5    5    0  502 -0.48096040764E+02  0.85752094311E+02  0.17996286204E+03  0.20512282303E+03  0.47000000000E+01 0.  1.
         13    1    6    6    0    0  0.69791418688E+01 -0.53559554293E+02  0.10705647922E+03  0.11991006639E+03  0.00000000000E+00 0. -1.
        -14    1    6    6    0    0 -0.14582859098E+02  0.21058342066E+02  0.11861183905E+03  0.12134612443E+03  0.00000000000E+00 0.  1.
</event>
<event>
12    1  0.8563264E-002  0.1975895E+03  0.7818608E-02  0.1152285E+00
         21   -1    0    0  501  502  0.00000000000E+00  0.00000000000E+00  0.74978250568E+03  0.74978250568E+03  0.00000000000E+00 0. -1.
         21   -1    0    0  502  503 -0.00000000000E+00 -0.00000000000E+00 -0.51489017392E+02  0.51489017392E+02  0.00000000000E+00 0. -1.
         -6    2    1    2    0  503  0.87469421204E+00 -0.97603457698E+02  0.35968078761E+03  0.41038017604E+03  0.17179761311E+03 0.  0.
        -24    2    3    3    0    0  0.32490988990E+02 -0.97925391965E+02  0.35514905916E+03  0.37809519037E+03  0.78613433963E+02 0.  0.
          6    2    1    2  501    0 -0.87469421204E+00  0.97603457698E+02  0.33861270068E+03  0.39089134703E+03  0.16914574803E+03 0.  0.
         24    2    5    5    0    0  0.43956735828E+02  0.10435650884E+03  0.30335317775E+03  0.33326509627E+03  0.78866966344E+02 0.  0.
          5    1    5    5  501    0 -0.44831430040E+02 -0.67530511430E+01  0.35259522936E+02  0.57626250762E+02  0.47000000000E+01 0. -1.
        -11    1    6    6    0    0  0.49815479052E+01  0.23968822468E+02  0.17604014135E+03  0.17773421628E+03  0.00000000000E+00 0.  1.
         12    1    6    6    0    0  0.38975187923E+02  0.80387686373E+02  0.12731303640E+03  0.15553087999E+03  0.00000000000E+00 0. -1.
         -5    1    3    3    0  503 -0.31616294778E+02  0.32193426716E+00  0.45317284428E+01  0.32284985672E+02  0.47000000000E+01 0.  1.
         11    1    4    4    0    0  0.24900306069E+02 -0.59856614409E+02  0.94672202724E+02  0.11474173390E+03  0.00000000000E+00 0. -1.
        -12    1    4    4    0    0  0.75906829209E+01 -0.38068777556E+02  0.26047685644E+03  0.26335345647E+03  0.00000000000E+00 0.  1.
</event>
<event>
12    1  0.8563264E-002  0.2068771E+03  0.7818608E-02  0.1144212E+00
         21   -1    0    0  501  502  0.00000000000E+00  0.00000000000E+00  0.14215552082E+03  0.14215552082E+03  0.00000000000E+00 0. -1.
         21   -1    0    0  502  503 -0.00000000000E+00 -0.00000000000E+00 -0.48903314850E+03  0.48903314850E+03  0.00000000000E+00 0. -1.
         -6    2    1    2    0  503  0.10870576238E+03 -0.30701257872E+02 -0.36946503559E+03  0.42308215061E+03  0.17243718750E+03 0.  0.
        -24    2    3    3    0    0  0.14240759227E+03 -0.35025959105E+02 -0.33578360057E+03  0.37500881659E+03  0.79838875008E+02 0.  0.
          6    2    1    2  501    0 -0.10870576238E+03  0.30701257872E+02  0.22587407911E+02  0.20810651870E+03  0.17331653736E+03 0.  0.
         24    2    5    5    0    0 -0.72278677678E+02 -0.40537173509E+02 -0.23417947915E+02  0.11569207519E+03  0.77257920593E+02 0.  0.
          5    1    5    5  501    0 -0.36427084699E+02  0.71238431381E+02  0.46005355827E+02  0.92414443514E+02  0.47000000000E+01 0. -1.
        -11    1    6    6    0    0  0.49829130889E+00  0.11962912746E+02 -0.23027315772E+02  0.25954129676E+02  0.00000000000E+00 0.  1.
         12    1    6    6    0    0 -0.72776968986E+02 -0.52500086255E+02 -0.39063214337E+00  0.89737945514E+02  0.00000000000E+00 0. -1.
         -5    1    3    3    0  503 -0.33701829891E+02  0.43247012329E+01 -0.33681435025E+02  0.48073334023E+02  0.47000000000E+01 0.  1.
         13    1    4    4    0    0  0.10346963093E+03  0.12378743741E+02 -0.23422323931E+03  0.25635858413E+03  0.00000000000E+00 0. -1.
        -14    1    4    4    0    0  0.38937961332E+02 -0.47404702846E+02 -0.10156036126E+03  0.11865023246E+03  0.00000000000E+00 0.  1.
</event>
<event>
12    1  0.8563264E-002  0.3232315E+03  0.7818608E-02  0.1074198E+00
         21   -1    0    0  501  502  0.00000000000E+00  0.00000000000E+00  0.37882448879E+03  0.37882448879E+03  0.00000000000E+00 0. -1.
         21   -1    0    0  502  503 -0.00000000000E+00 -0.00000000000E+00 -0.39958331667E+03  0.39958331667E+03  0.00000000000E+00 0. -1.
         -6    2    1    2    0  503 -0.17555368395E+03  0.21126552103E+03 -0.22718246809E+03  0.39508290539E+03  0.17037139431E+03 0.  0.
        -24    2    3    3    0    0 -0.60100039414E+02  0.10967809419E+03 -0.37998666788E+02  0.15123428431E+03  0.76069777105E+02 0.  0.
          6    2    1    2  501    0  0.17555368395E+03 -0.21126552103E+03  0.20642364021E+03  0.38332490006E+03  0.16992658252E+03 0.  0.
         24    2    5    5    0    0  0.12789138646E+03 -0.68012613002E+02  0.14537187845E+03  0.22040621521E+03  0.80398970151E+02 0.  0.
          5    1    5    5  501    0  0.47662297494E+02 -0.14325290803E+03  0.61051761763E+02  0.16291868486E+03  0.47000000000E+01 0. -1.
        -11    1    6    6    0    0  0.71256527132E+02  0.16667144107E+01  0.39161654457E+02  0.81325923147E+02  0.00000000000E+00 0.  1.
         12    1    6    6    0    0  0.56634859325E+02 -0.69679327413E+02  0.10621022399E+03  0.13908029206E+03  0.00000000000E+00 0. -1.
         -5    1    3    3    0  503 -0.11545364454E+03  0.10158742683E+03 -0.18918380130E+03  0.24384862108E+03  0.47000000000E+01 0.  1.
         11    1    4    4    0    0 -0.18046138895E+02  0.39553241167E+02 -0.52527440284E+02  0.68185438318E+02  0.00000000000E+00 0. -1.
        -12    1    4    4    0    0 -0.42053900519E+02  0.70124853028E+02  0.14528773496E+02  0.83048845990E+02  0.00000000000E+00 0.  1.
</event>
<event>
12    1  0.8563264E-002  0.1815059E+03  0.7818608E-02  0.1166387E+00
         21   -1    0    0  501  502  0.00000000000E+00  0.00000000000E+00  0.78541643388E+02  0.78541643388E+02  0.00000000000E+00 0.  1.
         21   -1    0    0  502  503 -0.00000000000E+00 -0.00000000000E+00 -0.48528599567E+03  0.48528599567E+03  0.00000000000E+00 0.  1.
         -6    2    1    2    0  503  0.56708115419E+02 -0.44561998157E+00 -0.30739553749E+03  0.35691076269E+03  0.17227091200E+03 0.  0.
        -24    2    3    3    0    0  0.55241589170E+02  0.32532654392E+02 -0.63374949976E+02  0.11062260948E+03  0.64116851666E+02 0.  0.
          6    2    1    2  501    0 -0.56708115419E+02  0.44561998157E+00 -0.99348814790E+02  0.20691687637E+03  0.17241925007E+03 0.  0.
         24    2    5    5    0    0 -0.48141889749E+02  0.43702657467E+02 -0.13145215862E+02  0.10997513107E+03  0.87716412003E+02 0.  0.
          5    1    5    5  501    0 -0.85662256698E+01 -0.43257037486E+02 -0.86203598928E+02  0.96941745303E+02  0.47000000000E+01 0. -1.
        -13    1    6    6    0    0  0.22075421226E+02 -0.46678295817E+01  0.42322567246E+01  0.22957021851E+02  0.00000000000E+00 0.  1.
         14    1    6    6    0    0 -0.70217310975E+02  0.48370487049E+02 -0.17377472587E+02  0.87018109215E+02  0.00000000000E+00 0. -1.
         -5    1    3    3    0  503  0.14665262486E+01 -0.32978274373E+02 -0.24402058752E+03  0.24628815321E+03  0.47000000000E+01 0.  1.
         11    1    4    4    0    0  0.81212432993E+01 -0.31275352926E+01  0.12013438584E+02  0.14834378192E+02  0.00000000000E+00 0. -1.
        -12    1    4    4    0    0  0.47120345871E+02  0.35660189684E+02 -0.75388388560E+02  0.95788231287E+02  0.00000000000E+00 0.  1.
</event>
<event>
12    1  0.8563264E-002  0.1787177E+03  0.7818608E-02  0.1169085E+00
         21   -1    0    0  503  502  0.00000000000E+00  0.00000000000E+00  0.30039907999E+03  0.30039907999E+03  0.00000000000E+00 0. -1.
         21   -1    0    0  501  503 -0.00000000000E+00 -0.00000000000E+00 -0.31554466914E+03  0.31554466914E+03  0.00000000000E+00 0. -1.
          6    2    1    2  501    0  0.43181031271E+02 -0.15121902241E+02 -0.25839886967E+03  0.31418148893E+03  0.17276214501E+03 0.  0.
         24    2    3    3    0    0  0.87160284945E+02 -0.33466303378E+02 -0.22261253544E+03  0.25440320253E+03  0.80297819332E+02 0.  0.
         -6    2    1    2    0  502 -0.43181031271E+02  0.15121902241E+02  0.24325328052E+03  0.30176226020E+03  0.17261236865E+03 0.  0.
        -24    2    5    5    0    0 -0.92227136077E+02  0.23774832728E+02  0.13290530177E+03  0.18060467680E+03  0.76701647586E+02 0.  0.
          5    1    3    3  501    0 -0.43979253674E+02  0.18344401137E+02 -0.35786334233E+02  0.59778286397E+02  0.47000000000E+01 0. -1.
        -11    1    4    4    0    0 -0.12041852697E+02 -0.99961062378E+01 -0.98826336663E+01  0.18509316694E+02  0.00000000000E+00 0.  1.
         12    1    4    4    0    0  0.99202137642E+02 -0.23470197140E+02 -0.21272990177E+03  0.23589388583E+03  0.00000000000E+00 0. -1.
         -5    1    5    5    0  502  0.49046104805E+02 -0.86529304872E+01  0.11034797874E+03  0.12115758340E+03  0.47000000000E+01 0.  1.
         11    1    6    6    0    0 -0.61768508297E+02 -0.38535808771E+01  0.12391581766E+03  0.13851111353E+03  0.00000000000E+00 0. -1.
        -12    1    6    6    0    0 -0.30458627780E+02  0.27628413606E+02  0.89894841096E+01  0.42093563275E+02  0.00000000000E+00 0.  1.
</event>
<event>
12    1  0.8563264E-002  0.2332304E+03  0.7818608E-02  0.1127037E+00
         21   -1    0    0  501  502  0.00000000000E+00  0.00000000000E+00  0.30642576825E+03  0.30642576825E+03  0.00000000000E+00 0.  1.
         21   -1    0    0  502  503 -0.00000000000E+00 -0.00000000000E+00 -0.18364929502E+03  0.18364929502E+03  0.00000000000E+00 0.  1.
         -6    2    1    2    0  503 -0.15864654900E+02  0.13373324277E+03 -0.15440771531E+02  0.21896545013E+03  0.17196273849E+03 0.  0.
        -24    2    3    3    0    0 -0.18388545747E+02  0.15888467941E+03 -0.40706599239E+02  0.18291802526E+03  0.78863786238E+02 0.  0.
          6    2    1    2  501    0  0.15864654900E+02 -0.13373324277E+03  0.13821724476E+03  0.27110961314E+03  0.19042097598E+03 0.  0.
         24    2    5    5    0    0  0.24668740470E+02  0.88225911871E+01  0.33120431927E+02  0.93719907172E+02  0.83666439613E+02 0.  0.
          5    1    5    5  501    0 -0.88040855701E+01 -0.14255583396E+03  0.10509681283E+03  0.17738970597E+03  0.47000000000E+01 0. -1.
        -13    1    6    6    0    0  0.23616122187E+02 -0.12882502291E+02  0.56023955841E+02  0.62147918070E+02  0.00000000000E+00 0.  1.
         14    1    6    6    0    0  0.10526182835E+01  0.21705093478E+02 -0.22903523913E+02  0.31571989101E+02  0.00000000000E+00 0. -1.
         -5    1    3    3    0  503  0.25238908465E+01 -0.25151436637E+02  0.25265827708E+02  0.36047424869E+02  0.47000000000E+01 0.  1.
         11    1    4    4    0    0 -0.21250402323E+02  0.10303458247E+03  0.12232221265E+02  0.10591190689E+03  0.00000000000E+00 0. -1.
        -12    1    4    4    0    0  0.28618565769E+01  0.55850096937E+02 -0.52938820504E+02  0.77006118376E+02  0.00000000000E+00 0.  1.
</event>
<event>
12    1  0.8563264E-002  0.2222009E+03  0.7818608E-02  0.1132317E+00
         21   -1    0    0  503  502  0.00000000000E+00  0.00000000000E+00  0.28561777204E+03  0.28561777204E+03  0.00000000000E+00 0.  1.
         21   -1    0    0  501  503 -0.00000000000E+00 -0.00000000000E+00 -0.17681048875E+03  0.17681048875E+03  0.00000000000E+00 0. -1.
          6    2    1    2  501    0  0.11780422412E+03 -0.72302752466E+02  0.90070859773E+02  0.23943878908E+03  0.17352997061E+03 0.  0.
         24    2    3    3    0    0  0.10539222595E+03 -0.32518299092E+01  0.10339005277E+03  0.16787358450E+03  0.79836969344E+02 0.  0.
         -6    2    1    2    0  502 -0.11780422412E+03  0.72302752466E+02  0.18736423513E+02  0.22298947171E+03  0.17397622738E+03 0.  0.
        -24    2    5    5    0    0 -0.63612673817E+02  0.79072282504E+02 -0.47513024672E+02  0.13700325162E+03  0.78825156580E+02 0.  0.
          5    1    3    3  501    0  0.12411998175E+02 -0.69050922557E+02 -0.13319192994E+02  0.71565204581E+02  0.47000000000E+01 0. -1.
        -13    1    4    4    0    0 -0.63096885587E+01  0.15626895028E+02  0.43651988111E+01  0.17408818989E+02  0.00000000000E+00 0.  1.
         14    1    4    4    0    0  0.11170191450E+03 -0.18878724937E+02  0.99024853955E+02  0.15046476551E+03  0.00000000000E+00 0. -1.
         -5    1    5    5    0  502 -0.54191550304E+02 -0.67695300380E+01  0.66249448185E+02  0.85986220094E+02  0.47000000000E+01 0.  1.
         11    1    6    6    0    0  0.17652923057E+02  0.45362872313E+01 -0.70700957149E+01  0.19549676410E+02  0.00000000000E+00 0. -1.
        -12    1    6    6    0    0 -0.81265596874E+02  0.74535995273E+02 -0.40442928957E+02  0.11745357521E+03  0.00000000000E+00 0.  1.
</event>
<event>
12    1  0.8563264E-002  0.1760623E+03  0.7818608E-02  0.1171720E+00
         21   -1    0    0  503  502  0.00000000000E+00  0.00000000000E+00  0.84831405307E+03  0.84831405307E+03  0.00000000000E+00 0.  1.
         21   -1    0    0  501  503 -0.00000000000E+00 -0.00000000000E+00 -0.11275769425E+03  0.11275769425E+03  0.00000000000E+00 0.  1.
          6    2    1    2  501    0  0.37312897397E+02 -0.60017037483E+01 -0.27474613491E+02  0.17799181214E+03  0.17174969590E+03 0.  0.
         24    2    3    3    0    0  0.61125358112E+02 -0.38069870683E+02  0.28032396567E+02  0.10944606988E+03  0.77504854672E+02 0.  0.
         -6    2    1    2    0  502 -0.37312897397E+02  0.60017037483E+01  0.76303097231E+03  0.78307993518E+03  0.17195827229E+03 0.  0.
        -24    2    5    5    0    0 -0.32736659784E+02  0.68616905006E+02  0.54142866803E+03  0.55270789555E+03  0.81000288217E+02 0.  0.
          5    1    3    3  501    0 -0.23812460715E+02  0.32068166935E+02 -0.55507010058E+02  0.68545742256E+02  0.47000000000E+01 0. -1.
        -11    1    4    4    0    0  0.77528957955E+02 -0.28814071974E+02  0.98983122460E+01  0.83300460086E+02  0.00000000000E+00 0.  1.
         12    1    4    4    0    0 -0.16403599843E+02 -0.92557987089E+01  0.18134084321E+02  0.26145609798E+02  0.00000000000E+00 0. -1.
         -5    1    5    5    0  502 -0.45762376132E+01 -0.62615201258E+02  0.22160230429E+03  0.23037203963E+03  0.47000000000E+01 0.  1.
         13    1    6    6    0    0 -0.31729088180E+01  0.20014010135E+02  0.21012491375E+02  0.29191655414E+02  0.00000000000E+00 0. -1.
        -14    1    6    6    0    0 -0.29563750966E+02  0.48602894871E+02  0.52041617665E+03  0.52351624013E+03  0.00000000000E+00 0.  1.
</event>
<event>
12    1  0.8563264E-002  0.2189865E+03  0.7818608E-02  0.1134672E+00
         21   -1    0    0  501  502  0.00000000000E+00  0.00000000000E+00  0.25843141894E+03  0.25843141894E+03  0.00000000000E+00 0.  1.
         21   -1    0    0  502  503 -0.00000000000E+00 -0.00000000000E+00 -0.19645645053E+03  0.19645645053E+03  0.00000000000E+00 0.  1.
         -6    2    1    2    0  503  0.13479992178E+03 -0.36425882250E+01 -0.22907844353E+02  0.22018145039E+03  0.17254221049E+03 0.  0.
        -24    2    3    3    0    0  0.56351274981E+02  0.12061480572E+02  0.50758595249E+02  0.11132538816E+03  0.80597528192E+02 0.  0.
          6    2    1    2  501    0 -0.13479992178E+03  0.36425882250E+01  0.84882812759E+02  0.23470641908E+03  0.17233027562E+03 0.  0.
         24    2    5    5    0    0 -0.23763116223E+02 -0.47445653990E+02  0.29125397704E+02  0.10028112379E+03  0.79951480419E+02 0.  0.
          5    1    5    5  501    0 -0.11103680556E+03  0.51088242215E+02  0.55757415055E+02  0.13442529529E+03  0.47000000000E+01 0. -1.
        -11    1    6    6    0    0 -0.23951680996E+02 -0.33814446721E+02 -0.22315380371E+02  0.47064594237E+02  0.00000000000E+00 0.  1.
         12    1    6    6    0    0  0.18856477346E+00 -0.13631207269E+02  0.51440778075E+02  0.53216529549E+02  0.00000000000E+00 0. -1.
         -5    1    3    3    0  503  0.78448646799E+02 -0.15704068797E+02 -0.73666439602E+02  0.10885606223E+03  0.47000000000E+01 0.  1.
         11    1    4    4    0    0  0.73767142392E+02  0.14197398835E+02  0.55205273752E+02  0.93224351328E+02  0.00000000000E+00 0. -1.
        -12    1    4    4    0    0 -0.17415867411E+02 -0.21359182637E+01 -0.44466785029E+01  0.18101036827E+02  0.00000000000E+00 0.  1.
</event>
<event>
12    1  0.8563264E-002  0.1863053E+03  0.7818608E-02  0.1164176E+00
         21   -1    0    0  503  502  0.00000000000E+00  0.00000000000E+00  0.24541311620E+03  0.24541311620E+03  0.00000000000E+00 0.  1.
         21   -1    0    0  501  503 -0.00000000000E+00 -0.00000000000E+00 -0.53967848435E+03  0.53967848435E+03  0.00000000000E+00 0.  1.
          6    2    1    2  501    0  0.29895402058E+01  0.40037044561E+02 -0.48840095127E+03  0.52272855395E+03  0.18192786930E+03 0.  0.
         24    2    3    3    0    0  0.70147763310E+01 -0.44348756960E+02 -0.16800708354E+03  0.19135039158E+03  0.79828396604E+02 0.  0.
         -6    2    1    2    0  502 -0.29895402058E+01 -0.40037044561E+02  0.19413558312E+03  0.26236304659E+03  0.17185412795E+03 0.  0.
        -24    2    5    5    0    0 -0.94572443449E+01 -0.86785511263E+02  0.17308334871E+03  0.21047338568E+03  0.81975825960E+02 0.  0.
          5    1    3    3  501    0 -0.40252361252E+01  0.84385801520E+02 -0.32039386773E+03  0.33137816238E+03  0.47000000000E+01 0. -1.
        -11    1    4    4    0    0 -0.84744665052E+01  0.13790956798E+02 -0.96723688214E+02  0.98068745958E+02  0.00000000000E+00 0.  1.
         12    1    4    4    0    0  0.15489242836E+02 -0.58139713758E+02 -0.71283395330E+02  0.93281645618E+02  0.00000000000E+00 0. -1.
         -5    1    5    5    0  502  0.64677041391E+01  0.46748466703E+02  0.21052234411E+02  0.51889660912E+02  0.47000000000E+01 0.  1.
         13    1    6    6    0    0 -0.10765459210E+01 -0.74775800844E+01 -0.89647981421E+01  0.11723513158E+02  0.00000000000E+00 0. -1.
        -14    1    6    6    0    0 -0.83806984239E+01 -0.79307931179E+02  0.18204814685E+03  0.19874987252E+03  0.00000000000E+00 0.  1.
</event>
<event>
12    1  0.8563264E-002  0.2451774E+03  0.7818608E-02  0.1117513E+00
         21   -1    0    0  501  502  0.00000000000E+00  0.00000000000E+00  0.34041943668E+03  0.34041943668E+03  0.00000000000E+00 0.  1.
         21   -1    0    0  502  503 -0.00000000000E+00 -0.00000000000E+00 -0.20135190797E+03  0.20135190797E+03  0.00000000000E+00 0.  1.
         -6    2    1    2    0  503  0.14373645707E+03 -0.99241551222E+02 -0.33570490255E+02  0.24746501746E+03  0.17205494026E+03 0.  0.
        -24    2    3    3    0    0  0.44091984669E+02  0.14575060100E+02  0.59856797188E+00  0.92310718668E+02  0.79777033088E+02 0.  0.
          6    2    1    2  501    0 -0.14373645707E+03  0.99241551222E+02  0.17263801897E+03  0.29430632720E+03  0.16218284143E+03 0.  0.
         24    2    5    5    0    0 -0.16174892330E+03  0.98998020964E+02  0.18097844491E+03  0.27390630388E+03  0.79423821604E+02 0.  0.
          5    1    5    5  501    0  0.18012466227E+02  0.24353025807E+00 -0.83404259413E+01  0.20400023320E+02  0.47000000000E+01 0. -1.
        -11    1    6    6    0    0 -0.29086092569E+02  0.22131714732E+02 -0.21328050658E+00  0.36549405829E+02  0.00000000000E+00 0.  1.
         12    1    6    6    0    0 -0.13266283073E+03  0.76866306232E+02  0.18119172542E+03  0.23735689805E+03  0.00000000000E+00 0. -1.
         -5    1    3    3    0  503  0.99644472400E+02 -0.11381661132E+03 -0.34169058227E+02  0.15515429879E+03  0.47000000000E+01 0.  1.
         11    1    4    4    0    0 -0.22015137768E+02 -0.36371135899E+01  0.71435217421E+01  0.23429144011E+02  0.00000000000E+00 0. -1.
        -12    1    4    4    0    0  0.66107122436E+02  0.18212173690E+02 -0.65449537702E+01  0.68881574657E+02  0.00000000000E+00 0.  1.
</event>
<event>
12    1  0.8563264E-002  0.1825191E+03  0.7818608E-02  0.1165578E+00
         21   -1    0    0  501  502  0.00000000000E+00  0.00000000000E+00  0.92895208716E+02  0.92895208716E+02  0.00000000000E+00 0. -1.
         21   -1    0    0  502  503 -0.00000000000E+00 -0.00000000000E+00 -0.44550589615E+03  0.44550589615E+03  0.00000000000E+00 0. -1.
         -6    2    1    2    0  503 -0.21788466629E+02 -0.57175989799E+02 -0.56034617728E+02  0.19016186205E+03  0.17110763954E+03 0.  0.
        -24    2    3    3    0    0 -0.46859570256E+02  0.16580279697E+02 -0.59525841979E+02  0.11204127467E+03  0.80865297663E+02 0.  0.
          6    2    1    2  501    0  0.21788466629E+02  0.57175989799E+02 -0.29657606971E+03  0.34823924281E+03  0.17195747737E+03 0.  0.
         24    2    5    5    0    0  0.45334381355E+02  0.63195793467E+02 -0.30278062652E+03  0.32271994302E+03  0.80144490655E+02 0.  0.
          5    1    5    5  501    0 -0.23545914726E+02 -0.60198036679E+01  0.62045568158E+01  0.25519299790E+02  0.47000000000E+01 0. -1.
        -11    1    6    6    0    0 -0.12866060365E+02  0.33981794087E+02 -0.18110098073E+03  0.18471021374E+03  0.00000000000E+00 0.  1.
         12    1    6    6    0    0  0.58200441721E+02  0.29213999380E+02 -0.12167964579E+03  0.13800972928E+03  0.00000000000E+00 0. -1.
         -5    1    3    3    0  503  0.25071103627E+02 -0.73756269496E+02  0.34912242507E+01  0.78120587388E+02  0.47000000000E+01 0.  1.
         11    1    4    4    0    0 -0.46094812051E+02 -0.25045259211E+02 -0.25790553901E+02  0.58456388680E+02  0.00000000000E+00 0. -1.
        -12    1    4    4    0    0 -0.76475820492E+00  0.41625538908E+02 -0.33735288078E+02  0.53584885986E+02  0.00000000000E+00 0.  1.
</event>
<event>
12    1  0.8563264E-002  0.2425251E+03  0.7818608E-02  0.1118280E+00
         21   -1    0    0  503  502  0.00000000000E+00  0.00000000000E+00  0.73601461491E+02  0.73601461491E+02  0.00000000000E+00 0. -1.
         21   -1    0    0  501  503 -0.00000000000E+00 -0.00000000000E+00 -0.10133666324E+04  0.10133666324E+04  0.00000000000E+00 0. -1.
          6    2    1    2  501    0  0.16130389054E+03 -0.54299435347E+02 -0.72232986518E+03  0.76195726195E+03  0.17277459627E+03 0.  0.
         24    2    3    3    0    0  0.93185132984E+02  0.29366023225E+02 -0.28553532683E+03  0.31201100647E+03  0.79212454559E+02 0.  0.
         -6    2    1    2    0  502 -0.16130389054E+03  0.54299435347E+02 -0.21743530568E+03  0.32501083189E+03  0.17142507084E+03 0.  0.
        -24    2    5    5    0    0 -0.15363325217E+03  0.75740496750E+02 -0.22677933349E+03  0.29995172850E+03  0.95929006611E+02 0.  0.
          5    1    3    3  501    0  0.68118757555E+02 -0.83665458572E+02 -0.43679453835E+03  0.44994625548E+03  0.47000000000E+01 0. -1.
        -11    1    4    4    0    0  0.12639481612E+02 -0.42617178555E+01  0.98271281927E-01  0.13338980161E+02  0.00000000000E+00 0.  1.
         12    1    4    4    0    0  0.80545651372E+02  0.33627741081E+02 -0.28563359811E+03  0.29867202630E+03  0.00000000000E+00 0. -1.
         -5    1    5    5    0  502 -0.76706383668E+01 -0.21441061404E+02  0.93440278173E+01  0.25059103394E+02  0.47000000000E+01 0.  1.
         11    1    6    6    0    0 -0.13359367358E+03  0.20748495712E+02 -0.13470187292E+03  0.19084644158E+03  0.00000000000E+00 0. -1.
        -12    1    6    6    0    0 -0.20039578590E+02  0.54992001038E+02 -0.92077460578E+02  0.10910528692E+03  0.00000000000E+00 0.  1.
</event>
<event>
12    1  0.8563264E-002  0.2116537E+03  0.7818608E-02  0.1142315E+00
         21   -1    0    0  503  502  0.00000000000E+00  0.00000000000E+00  0.10503325233E+04  0.10503325233E+04  0.00000000000E+00 0.  1.
         21   -1    0    0  501  503 -0.00000000000E+00 -0.00000000000E+00 -0.19118146334E+03  0.19118146334E+03  0.00000000000E+00 0.  1.
          6    2    1    2  501    0 -0.12220364005E+03 -0.17024010831E+02 -0.12352011399E+03  0.23630757019E+03  0.15924981187E+03 0.  0.
         24    2    3    3    0    0 -0.75540548388E+02 -0.64436957349E+02 -0.55570491390E+02  0.14109899477E+03  0.83440702832E+02 0.  0.
         -6    2    1    2    0  502  0.12220364005E+03  0.17024010831E+02  0.98267117396E+03  0.10052064165E+04  0.17197022119E+03 0.  0.
        -24    2    5    5    0    0  0.14992294872E+03  0.40876552361E+02  0.81610984106E+03  0.83461312402E+03  0.79975064980E+02 0.  0.
          5    1    3    3  501    0 -0.46663091667E+02  0.47412946518E+02 -0.67949622595E+02  0.95208575414E+02  0.47000000000E+01 0. -1.
        -13    1    4    4    0    0 -0.43824194417E+02 -0.86718641752E+01 -0.62225315335E+02  0.76601247465E+02  0.00000000000E+00 0.  1.
         14    1    4    4    0    0 -0.31716353971E+02 -0.55765093174E+02  0.66548239455E+01  0.64497747307E+02  0.00000000000E+00 0. -1.
         -5    1    5    5    0  502 -0.27719308663E+02 -0.23852541531E+02  0.16656133289E+03  0.17059329244E+03  0.47000000000E+01 0.  1.
         13    1    6    6    0    0  0.45731440414E+02  0.88584913395E+01  0.10075738070E+03  0.11100399667E+03  0.00000000000E+00 0. -1.
        -14    1    6    6    0    0  0.10419150830E+03  0.32018061022E+02  0.71535246037E+03  0.72360912735E+03  0.00000000000E+00 0.  1.
</event>
<event>
12    1  0.8563264E-002  0.1938886E+03  0.7818608E-02  0.1158411E+00
         21   -1    0    0  501  502  0.00000000000E+00  0.00000000000E+00  0.66899741374E+02  0.66899741374E+02  0.00000000000E+00 0. -1.
         21   -1    0    0  502  503 -0.00000000000E+00 -0.00000000000E+00 -0.70289528480E+03  0.70289528480E+03  0.00000000000E+00 0. -1.
         -6    2    1    2    0  503 -0.28403575551E+02  0.39365741340E+02 -0.11218953675E+03  0.21125627943E+03  0.17229712344E+03 0.  0.
        -24    2    3    3    0    0 -0.50299248837E+02 -0.32629322597E+02 -0.43041976511E+02  0.10895190598E+03  0.80144987039E+02 0.  0.
          6    2    1    2  501    0  0.28403575551E+02 -0.39365741340E+02 -0.52380600668E+03  0.55853874675E+03  0.18771354318E+03 0.  0.
         24    2    5    5    0    0  0.65666292987E+02  0.39321552816E+02 -0.31416881749E+03  0.33149240465E+03  0.72985765075E+02 0.  0.
          5    1    5    5  501    0 -0.37262717436E+02 -0.78687294157E+02 -0.20963718918E+03  0.22704634210E+03  0.47000000000E+01 0. -1.
        -11    1    6    6    0    0  0.48411284778E+02 -0.96424319994E+01 -0.20118093606E+03  0.20714825132E+03  0.00000000000E+00 0.  1.
         12    1    6    6    0    0  0.17255008209E+02  0.48963984816E+02 -0.11298788143E+03  0.12434415333E+03  0.00000000000E+00 0. -1.
         -5    1    3    3    0  503  0.21895673286E+02  0.71995063937E+02 -0.69147560241E+02  0.10230437345E+03  0.47000000000E+01 0.  1.
         11    1    4    4    0    0 -0.86725438808E+01  0.26924805115E+01  0.22138721369E+02  0.23928757856E+02  0.00000000000E+00 0. -1.
        -12    1    4    4    0    0 -0.41626704956E+02 -0.35321803108E+02 -0.65180697880E+02  0.85023148121E+02  0.00000000000E+00 0.  1.
</event>
<event>
12    1  0.8563264E-002  0.2595135E+03  0.7818608E-02  0.1108485E+00
         21   -1    0    0  501  502  0.00000000000E+00  0.00000000000E+00  0.55767067628E+03  0.55767067628E+03  0.00000000000E+00 0. -1.
         21   -1    0    0  502  503 -0.00000000000E+00 -0.00000000000E+00 -0.12517654456E+03  0.12517654456E+03  0.00000000000E+00 0. -1.
         -6    2    1    2    0  503 -0.11217880870E+03  0.15982030261E+03  0.12947051828E+03  0.28388533992E+03  0.16031736298E+03 0.  0.
        -24    2    3    3    0    0 -0.13489137118E+03  0.11863637023E+03  0.71765883948E+02  0.20929384172E+03  0.79895555079E+02 0.  0.
          6    2    1    2  501    0  0.11217880870E+03 -0.15982030261E+03  0.30302361344E+03  0.39896188092E+03  0.17094050977E+03 0.  0.
         24    2    5    5    0    0  0.13326702350E+03 -0.72484578707E+02  0.17231367806E+03  0.24028164056E+03  0.70916496271E+02 0.  0.
          5    1    5    5  501    0 -0.21088214800E+02 -0.87335723905E+02  0.13070993538E+03  0.15868024036E+03  0.47000000000E+01 0. -1.
        -11    1    6    6    0    0  0.63061387448E-01 -0.21783848365E+02  0.41276918856E+02  0.46672519287E+02  0.00000000000E+00 0.  1.
         12    1    6    6    0    0  0.13320396211E+03 -0.50700730342E+02  0.13103675920E+03  0.19360912128E+03  0.00000000000E+00 0. -1.
         -5    1    3    3    0  503  0.22712562487E+02  0.41183932382E+02  0.57704634330E+02  0.74591498204E+02  0.47000000000E+01 0.  1.
         13    1    4    4    0    0 -0.10326827368E+03  0.46657694183E+02  0.64375171218E+02  0.13032819896E+03  0.00000000000E+00 0. -1.
        -14    1    4    4    0    0 -0.31623097501E+02  0.71978676047E+02  0.73907127299E+01  0.78965642755E+02  0.00000000000E+00 0.  1.
</event>
<event>
12    1  0.8563264E-002  0.2428580E+03  0.7818608E-02  0.1119602E+00
         21   -1    0    0  503  502  0.00000000000E+00  0.00000000000E+00  0.49102788117E+03  0.49102788117E+03  0.00000000000E+00 0. -1.
         21   -1    0    0  501  503 -0.00000000000E+00 -0.00000000000E+00 -0.16547033913E+03  0.16547033913E+03  0.00000000000E+00 0.  1.
          6    2    1    2  501    0  0.14962903090E+03 -0.84246595596E+02 -0.15778703236E+02  0.24337003842E+03  0.17173721892E+03 0.  0.
         24    2    3    3    0    0  0.22965837996E+02  0.12565248459E+02 -0.78277318253E+01  0.83678443354E+02  0.79091676635E+02 0.  0.
         -6    2    1    2    0  502 -0.14962903090E+03  0.84246595596E+02  0.34133624528E+03  0.41312818188E+03  0.15709273238E+03 0.  0.
        -24    2    5    5    0    0 -0.26460845204E+02  0.10379941972E+01  0.12381057481E+03  0.14962565699E+03  0.79734089524E+02 0.  0.
          5    1    3    3  501    0  0.12666319291E+03 -0.96811844055E+02 -0.79509714103E+01  0.15969159506E+03  0.47000000000E+01 0. -1.
        -11    1    4    4    0    0  0.33174197856E+02 -0.13331210402E+02 -0.31107285267E+02  0.47391051591E+02  0.00000000000E+00 0.  1.
         12    1    4    4    0    0 -0.10208359860E+02  0.25896458860E+02  0.23279553442E+02  0.36287391763E+02  0.00000000000E+00 0. -1.
         -5    1    5    5    0  502 -0.12316818570E+03  0.83208601399E+02  0.21752567046E+03  0.26350252489E+03  0.47000000000E+01 0.  1.
         13    1    6    6    0    0 -0.22119520210E+02  0.28753193527E+02  0.11443473356E+03  0.12004718888E+03  0.00000000000E+00 0. -1.
        -14    1    6    6    0    0 -0.43413249945E+01 -0.27715199330E+02  0.93758412558E+01  0.29578468112E+02  0.00000000000E+00 0.  1.
</event>
<event>
12    1  0.8563264E-002  0.2813679E+03  0.7818608E-02  0.1094957E+00
         21   -1    0    0  501  502  0.00000000000E+00  0.00000000000E+00  0.15524566843E+04  0.15524566843E+04  0.00000000000E+00 0. -1.
         21   -1    0    0  502  503 -0.00000000000E+00 -0.00000000000E+00 -0.78300264037E+02  0.78300264037E+02  0.00000000000E+00 0. -1.
         -6    2    1    2    0  503  0.12107912148E+03 -0.18727848788E+03  0.25533875695E+03  0.37988350247E+03  0.17140656046E+03 0.  0.
        -24    2    3    3    0    0  0.10350203632E+02 -0.51064345057E+02  0.14058116838E+03  0.17010604876E+03  0.80363604134E+02 0.  0.
          6    2    1    2  501    0 -0.12107912148E+03  0.18727848788E+03  0.12188176633E+04  0.12508734459E+04  0.17156484336E+03 0.  0.
         24    2    5    5    0    0 -0.11612393655E+03  0.20399412852E+03  0.95559367753E+03  0.98703083521E+03  0.77280139923E+02 0.  0.
          5    1    5    5  501    0 -0.49551849282E+01 -0.16715640634E+02  0.26322398579E+03  0.26384261065E+03  0.47000000000E+01 0. -1.
        -13    1    6    6    0    0 -0.32715393862E+01  0.35349342310E+02  0.70011932651E+02  0.78498087144E+02  0.00000000000E+00 0.  1.
         14    1    6    6    0    0 -0.11285239716E+03  0.16864478621E+03  0.88558174487E+03  0.90853274807E+03  0.00000000000E+00 0. -1.
         -5    1    3    3    0  503  0.11072891785E+03 -0.13621414283E+03  0.11475758857E+03  0.20977745372E+03  0.47000000000E+01 0.  1.
         11    1    4    4    0    0 -0.26714997525E+02 -0.19463903919E+02  0.16782062808E+02  0.37069829789E+02  0.00000000000E+00 0. -1.
        -12    1    4    4    0    0  0.37065201157E+02 -0.31600441138E+02  0.12379910557E+03  0.13303621897E+03  0.00000000000E+00 0.  1.
</event>
<event>
12    1  0.8563264E-002  0.2207561E+03  0.7818608E-02  0.1134305E+00
         21   -1    0    0  501  502  0.00000000000E+00  0.00000000000E+00  0.32049226867E+03  0.32049226867E+03  0.00000000000E+00 0. -1.
         21   -1    0    0  502  503 -0.00000000000E+00 -0.00000000000E+00 -0.16477832559E+03  0.16477832559E+03  0.00000000000E+00 0.  1.
         -6    2    1    2    0  503 -0.12067772730E+03  0.47088993324E+02  0.23785270445E+01  0.22076890188E+03  0.17875335938E+03 0.  0.
        -24    2    3    3    0    0  0.54588541195E+01  0.92592434251E+01  0.12357531645E+02  0.88620509225E+02  0.87093934289E+02 0.  0.
          6    2    1    2  501    0  0.12067772730E+03 -0.47088993324E+02  0.15333541603E+03  0.26450169237E+03  0.17224664960E+03 0.  0.
         24    2    5    5    0    0  0.11472534730E+03 -0.83162157716E+02  0.76657676232E+02  0.17942367054E+03  0.78984836755E+02 0.  0.
          5    1    5    5  501    0  0.59523800021E+01  0.36073164392E+02  0.76677739801E+02  0.85078021827E+02  0.47000000000E+01 0. -1.
        -13    1    6    6    0    0  0.28042137921E+02  0.12575824669E+02  0.33405776723E+01  0.30913950321E+02  0.00000000000E+00 0.  1.
         14    1    6    6    0    0  0.86683209377E+02 -0.95737982386E+02  0.73317098560E+02  0.14850972022E+03  0.00000000000E+00 0. -1.
         -5    1    3    3    0  503 -0.12613658142E+03  0.37829749899E+02 -0.99790046001E+01  0.13214839266E+03  0.47000000000E+01 0.  1.
         11    1    4    4    0    0  0.33958811159E+02  0.34757497754E+02  0.54462976791E+00  0.48596101974E+02  0.00000000000E+00 0. -1.
        -12    1    4    4    0    0 -0.28499957040E+02 -0.25498254329E+02  0.11812901877E+02  0.40024407252E+02  0.00000000000E+00 0.  1.
</event>
<event>
12    1  0.8563264E-002  0.1886187E+03  0.7818608E-02  0.1159907E+00
         21   -1    0    0  501  502  0.00000000000E+00  0.00000000000E+00  0.21939363113E+03  0.21939363113E+03  0.00000000000E+00 0.  1.
         21   -1    0    0  502  503 -0.00000000000E+00 -0.00000000000E+00 -0.20098737708E+03  0.20098737708E+03  0.00000000000E+00 0. -1.
         -6    2    1    2    0  503  0.60310810722E+02 -0.46294459333E+02 -0.84059756237E+02  0.20572708805E+03  0.17168873372E+03 0.  0.
        -24    2    3    3    0    0  0.69827831337E+02  0.29903456572E+02 -0.36405619903E+02  0.11523011142E+03  0.78628663182E+02 0.  0.
          6    2    1    2  501    0 -0.60310810722E+02  0.46294459333E+02  0.10246601028E+03  0.21465392016E+03  0.17261648624E+03 0.  0.
         24    2    5    5    0    0  0.13052962985E+02  0.40342932822E+02  0.10480828112E+03  0.14086204938E+03  0.84020289763E+02 0.  0.
          5    1    5    5  501    0 -0.73363773707E+02  0.59515265109E+01 -0.23422708388E+01  0.73791870779E+02  0.47000000000E+01 0. -1.
        -13    1    6    6    0    0 -0.22190243666E+02  0.36032810297E+02  0.16038529483E+02  0.45254886585E+02  0.00000000000E+00 0.  1.
         14    1    6    6    0    0  0.35243206651E+02  0.43101225252E+01  0.88769751639E+02  0.95607162793E+02  0.00000000000E+00 0. -1.
         -5    1    3    3    0  503 -0.95170206153E+01 -0.76197915905E+02 -0.47654136333E+02  0.90496976630E+02  0.47000000000E+01 0.  1.
         13    1    4    4    0    0 -0.59984324151E+00  0.35884502936E+02 -0.24745655909E+02  0.43593633128E+02  0.00000000000E+00 0. -1.
        -14    1    4    4    0    0  0.70427674579E+02 -0.59810463642E+01 -0.11659963994E+02  0.71636478295E+02  0.00000000000E+00 0.  1.
</event>
<event>
12    1  0.8563264E-002  0.3105338E+03  0.7818608E-02  0.1080208E+00
         21   -1    0    0  503  502  0.00000000000E+00  0.00000000000E+00  0.40474844212E+03  0.40474844212E+03  0.00000000000E+00 0.  1.
         21   -1    0    0  501  503 -0.00000000000E+00 -0.00000000000E+00 -0.23855946437E+03  0.23855946437E+03  0.00000000000E+00 0.  1.
          6    2    1    2  501    0  0.16747976176E+03 -0.19514214877E+03  0.10442384011E+03  0.32669111185E+03  0.17231603337E+03 0.  0.
         24    2    3    3    0    0  0.58475796105E+02 -0.42577684185E+02 -0.98409919043E+01  0.10706342185E+03  0.78316366460E+02 0.  0.
         -6    2    1    2    0  502 -0.16747976176E+03  0.19514214877E+03  0.61765137649E+02  0.31661679464E+03  0.17407278246E+03 0.  0.
        -24    2    5    5    0    0 -0.10733399376E+03  0.20855413050E+03  0.44195430402E+02  0.25236588589E+03  0.81974951834E+02 0.  0.
          5    1    3    3  501    0  0.10900396566E+03 -0.15256446458E+03  0.11426483201E+03  0.21962769000E+03  0.47000000000E+01 0. -1.
        -11    1    4    4    0    0  0.73630470187E+02 -0.34495402777E+02 -0.24028236154E+02  0.84786408612E+02  0.00000000000E+00 0.  1.
         12    1    4    4    0    0 -0.15154674082E+02 -0.80822814079E+01  0.14187244250E+02  0.22277013235E+02  0.00000000000E+00 0. -1.
         -5    1    5    5    0  502 -0.60145767999E+02 -0.13411981731E+02  0.17569707247E+02  0.64250908747E+02  0.47000000000E+01 0.  1.
         13    1    6    6    0    0 -0.35326967938E+02  0.14550850407E+03  0.76880747893E+01  0.14993273797E+03  0.00000000000E+00 0. -1.
        -14    1    6    6    0    0 -0.72007025823E+02  0.63045626429E+02  0.36507355613E+02  0.10243314792E+03  0.00000000000E+00 0.  1.
</event>
<event>
12    1  0.8563264E-002  0.2014462E+03  0.7818608E-02  0.1148665E+00
         21   -1    0    0  503  502  0.00000000000E+00  0.00000000000E+00  0.26285285058E+03  0.26285285058E+03  0.00000000000E+00 0. -1.
         21   -1    0    0  501  503 -0.00000000000E+00 -0.00000000000E+00 -0.15575322555E+03  0.15575322555E+03  0.00000000000E+00 0.  1.
          6    2    1    2  501    0 -0.99151361335E+02 -0.31316154247E+02  0.30630913837E+02  0.20376164129E+03  0.17253654571E+03 0.  0.
         24    2    3    3    0    0 -0.39979036884E+02  0.38885780434E+02 -0.18166884965E+02  0.99679986892E+02  0.80595513319E+02 0.  0.
         -6    2    1    2    0  502  0.99151361335E+02  0.31316154247E+02  0.76468711196E+02  0.21484443485E+03  0.17175265186E+03 0.  0.
        -24    2    5    5    0    0  0.57821545435E+02 -0.49425956721E+02  0.37682736655E+02  0.11608268118E+03  0.79176662686E+02 0.  0.
          5    1    3    3  501    0 -0.59172324451E+02 -0.70201934682E+02  0.48797798803E+02  0.10408165440E+03  0.47000000000E+01 0. -1.
        -13    1    4    4    0    0  0.12389950155E+02  0.38577630663E+02  0.77422248657E+01  0.41251502982E+02  0.00000000000E+00 0.  1.
         14    1    4    4    0    0 -0.52368987039E+02  0.30814977143E+00 -0.25909109831E+02  0.58428483909E+02  0.00000000000E+00 0. -1.
         -5    1    5    5    0  502  0.41329815900E+02  0.80742110969E+02  0.38785974542E+02  0.98761753666E+02  0.47000000000E+01 0.  1.
         13    1    6    6    0    0  0.75848267113E+01  0.13812437739E+02  0.31329453682E+02  0.35069184487E+02  0.00000000000E+00 0. -1.
        -14    1    6    6    0    0  0.50236718723E+02 -0.63238394461E+02  0.63532829722E+01  0.81013496694E+02  0.00000000000E+00 0.  1.
</event>
<event>
12    1  0.8563264E-002  0.2189779E+03  0.7818608E-02  0.1136079E+00
         21   -1    0    0  501  502  0.00000000000E+00  0.00000000000E+00  0.76185516932E+02  0.76185516932E+02  0.00000000000E+00 0.  1.
         21   -1    0    0  502  503 -0.00000000000E+00 -0.00000000000E+00 -0.64210214402E+03  0.64210214402E+03  0.00000000000E+00 0. -1.
         -6    2    1    2    0  503  0.72119372556E+02  0.11163473238E+03 -0.20493022809E+03  0.29991287027E+03  0.17403394495E+03 0.  0.
        -24    2    3    3    0    0  0.60894492520E+02  0.11766841584E+03 -0.76503056235E+02  0.17076941616E+03  0.75864883696E+02 0.  0.
          6    2    1    2  501    0 -0.72119372556E+02 -0.11163473238E+03 -0.36098639900E+03  0.41837479069E+03  0.16450765285E+03 0.  0.
         24    2    5    5    0    0 -0.10218410673E+03 -0.93866731877E+02 -0.21740756212E+03  0.27053513943E+03  0.81674099803E+02 0.  0.
          5    1    5    5  501    0  0.30064734179E+02 -0.17768000506E+02 -0.14357883688E+03  0.14783965125E+03  0.47000000000E+01 0. -1.
        -11    1    6    6    0    0 -0.34845384884E+02 -0.14942005010E+02 -0.10929750450E+02  0.39457873819E+02  0.00000000000E+00 0.  1.
         12    1    6    6    0    0 -0.67338721851E+02 -0.78924726867E+02 -0.20647781167E+03  0.23107726561E+03  0.00000000000E+00 0. -1.
         -5    1    3    3    0  503  0.11224880035E+02 -0.60336834520E+01 -0.12842717186E+03  0.12914345411E+03  0.47000000000E+01 0.  1.
         11    1    4    4    0    0  0.73224124905E+01  0.80895792187E+02 -0.17697380092E+02  0.83132088752E+02  0.00000000000E+00 0. -1.
        -12    1    4    4    0    0  0.53572080030E+02  0.36772623649E+02 -0.58805676143E+02  0.87637327409E+02  0.00000000000E+00 0.  1.
</event>
<event>
12    1  0.8563264E-002  0.2109768E+03  0.7818608E-02  0.1140940E+00
         21   -1    0    0  501  502  0.00000000000E+00  0.00000000000E+00  0.18256192961E+03  0.18256192961E+03  0.00000000000E+00 0. -1.
         21   -1    0    0  502  503 -0.00000000000E+00 -0.00000000000E+00 -0.73133587333E+03  0.73133587333E+03  0.00000000000E+00 0. -1.
         -6    2    1    2    0  503 -0.73741380629E+02 -0.96772641775E+02 -0.64795467454E+03  0.68143705377E+03  0.17236143009E+03 0.  0.
        -24    2    3    3    0    0 -0.15808946278E+02 -0.26197276966E+02 -0.13757098381E+03  0.16292895274E+03  0.81754803852E+02 0.  0.
          6    2    1    2  501    0  0.73741380629E+02  0.96772641775E+02  0.99180730817E+02  0.23246074917E+03  0.17145975366E+03 0.  0.
         24    2    5    5    0    0 -0.18413634675E+02  0.10857420138E+02  0.52343620602E+02  0.97962507369E+02  0.79999079484E+02 0.  0.
          5    1    5    5  501    0  0.92155015304E+02  0.85915221637E+02  0.46837110215E+02  0.13449824180E+03  0.47000000000E+01 0. -1.
        -11    1    6    6    0    0 -0.15505476269E+02  0.20216777764E+02 -0.15229114339E+02  0.29682719233E+02  0.00000000000E+00 0.  1.
         12    1    6    6    0    0 -0.29081584053E+01 -0.93593576259E+01  0.67572734941E+02  0.68279788136E+02  0.00000000000E+00 0. -1.
         -5    1    3    3    0  503 -0.57932434351E+02 -0.70575364809E+02 -0.51038369074E+03  0.51850810103E+03  0.47000000000E+01 0.  1.
         11    1    4    4    0    0 -0.24061865221E+02 -0.60140626346E+00 -0.13359167850E+03  0.13574266688E+03  0.00000000000E+00 0. -1.
        -12    1    4    4    0    0  0.82529189428E+01 -0.25595870702E+02 -0.39793053049E+01  0.27186285859E+02  0.00000000000E+00 0.  1.
</event>
<event>
12    1  0.8563264E-002  0.1790563E+03  0.7818608E-02  0.1171100E+00
         21   -1    0    0  501  502  0.00000000000E+00  0.00000000000E+00  0.33826959048E+02  0.33826959048E+02  0.00000000000E+00 0. -1.
         21   -1    0    0  502  503 -0.00000000000E+00 -0.00000000000E+00 -0.13978563530E+04  0.13978563530E+04  0.00000000000E+00 0. -1.
         -6    2    1    2    0  503 -0.32399586648E+01  0.48678707466E+02 -0.11218140958E+04  0.11360140978E+04  0.17228189365E+03 0.  0.
        -24    2    3    3    0    0  0.33600632625E+02  0.14338083418E+02 -0.10016004752E+04  0.10055920436E+04  0.81714522190E+02 0.  0.
          6    2    1    2  501    0  0.32399586648E+01 -0.48678707466E+02 -0.24221529817E+03  0.29566921431E+03  0.16239433404E+03 0.  0.
         24    2    5    5    0    0  0.56752492179E+02 -0.13209838847E+01 -0.14185237285E+03  0.17237626234E+03  0.79805324185E+02 0.  0.
          5    1    5    5  501    0 -0.53512533514E+02 -0.47357723581E+02 -0.10036292533E+03  0.12329295197E+03  0.47000000000E+01 0. -1.
        -13    1    6    6    0    0  0.40280064649E+02  0.30678953988E+02 -0.12006497483E+03  0.13030456633E+03  0.00000000000E+00 0.  1.
         14    1    6    6    0    0  0.16472427530E+02 -0.31999937872E+02 -0.21787398018E+02  0.42071696008E+02  0.00000000000E+00 0. -1.
         -5    1    3    3    0  503 -0.36840591290E+02  0.34340624048E+02 -0.12021362062E+03  0.13042205415E+03  0.47000000000E+01 0.  1.
         11    1    4    4    0    0 -0.19066341810E+02  0.15995198497E+02 -0.60433447523E+03  0.60484669935E+03  0.00000000000E+00 0. -1.
        -12    1    4    4    0    0  0.52666974435E+02 -0.16571150787E+01 -0.39726599997E+03  0.40074534428E+03  0.00000000000E+00 0.  1.
</event>
<event>
12    1  0.8563264E-002  0.1914723E+03  0.7818608E-02  0.1157585E+00
         21   -1    0    0  503  502  0.00000000000E+00  0.00000000000E+00  0.75647059364E+02  0.75647059364E+02  0.00000000000E+00 0.  1.
         21   -1    0    0  501  503 -0.00000000000E+00 -0.00000000000E+00 -0.71552822161E+03  0.71552822161E+03  0.00000000000E+00 0.  1.
          6    2    1    2  501    0 -0.14002371099E+01 -0.85267132791E+02 -0.91692826830E+02  0.21051006598E+03  0.16921722367E+03 0.  0.
         24    2    3    3    0    0  0.36120799666E+02 -0.94655675357E+02 -0.10729862500E+03  0.16853860104E+03  0.81411645779E+02 0.  0.
         -6    2    1    2    0  502  0.14002371099E+01  0.85267132791E+02 -0.54818833542E+03  0.58066521500E+03  0.17143277464E+03 0.  0.
        -24    2    5    5    0    0  0.58981819710E+02  0.87740694868E+02 -0.33984886863E+03  0.36444962678E+03  0.78415510987E+02 0.  0.
          5    1    3    3  501    0 -0.37521036776E+02  0.93885425661E+01  0.15605798171E+02  0.41971464935E+02  0.47000000000E+01 0. -1.
        -11    1    4    4    0    0  0.32264311560E+02 -0.10688187977E+03 -0.10847484514E+03  0.15566474891E+03  0.00000000000E+00 0.  1.
         12    1    4    4    0    0  0.38564881063E+01  0.12226204418E+02  0.11762201367E+01  0.12873852135E+02  0.00000000000E+00 0. -1.
         -5    1    5    5    0  502 -0.57581582600E+02 -0.24735620773E+01 -0.20833946679E+03  0.21621558821E+03  0.47000000000E+01 0.  1.
         11    1    6    6    0    0  0.22211351381E+02 -0.47392628735E+01 -0.13275262820E+03  0.13468134628E+03  0.00000000000E+00 0. -1.
        -12    1    6    6    0    0  0.36770468329E+02  0.92479957741E+02 -0.20709624043E+03  0.22976828050E+03  0.00000000000E+00 0.  1.
</event>
<event>
12    1  0.8563264E-002  0.1905285E+03  0.7818608E-02  0.1160398E+00
         21   -1    0    0  503  502  0.00000000000E+00  0.00000000000E+00  0.46584789740E+02  0.46584789740E+02  0.00000000000E+00 0. -1.
         21   -1    0    0  501  503 -0.00000000000E+00 -0.00000000000E+00 -0.74191251987E+03  0.74191251987E+03  0.00000000000E+00 0. -1.
          6    2    1    2  501    0  0.53797351343E+02 -0.18847332300E+02 -0.38874317745E+03  0.43292306088E+03  0.18180137975E+03 0.  0.
         24    2    3    3    0    0  0.90569741742E+02  0.12487638712E+02 -0.35300688966E+03  0.37264652009E+03  0.76764220518E+02 0.  0.
         -6    2    1    2    0  502 -0.53797351343E+02  0.18847332300E+02 -0.30658455267E+03  0.35557424872E+03  0.17084958728E+03 0.  0.
        -24    2    5    5    0    0 -0.10145442905E+03  0.12444321854E+02 -0.19824017874E+03  0.23694546233E+03  0.79975754644E+02 0.  0.
          5    1    3    3  501    0 -0.36772390399E+02 -0.31334971012E+02 -0.35736287796E+02  0.60276540788E+02  0.47000000000E+01 0. -1.
        -11    1    4    4    0    0 -0.38917058985E+01 -0.18515254884E+02 -0.76654168187E+02  0.78954553628E+02  0.00000000000E+00 0.  1.
         12    1    4    4    0    0  0.94461447640E+02  0.31002893596E+02 -0.27635272147E+03  0.29369196646E+03  0.00000000000E+00 0. -1.
         -5    1    5    5    0  502  0.47657077711E+02  0.64030104451E+01 -0.10834437393E+03  0.11862878639E+03  0.47000000000E+01 0.  1.
         13    1    6    6    0    0 -0.31850104265E+02  0.31550434889E+02 -0.30186622475E+02  0.54047120736E+02  0.00000000000E+00 0. -1.
        -14    1    6    6    0    0 -0.69604324789E+02 -0.19106113035E+02 -0.16805355627E+03  0.18289834159E+03  0.00000000000E+00 0.  1.
</event>
<event>
12    1  0.8563264E-002  0.1728898E+03  0.7818608E-02  0.1174978E+00
         21   -1    0    0  503  502  0.00000000000E+00  0.00000000000E+00  0.75931699220E+02  0.75931699220E+02  0.00000000000E+00 0. -1.
         21   -1    0    0  501  503 -0.00000000000E+00 -0.00000000000E+00 -0.52768333029E+03  0.52768333029E+03  0.00000000000E+00 0. -1.
          6    2    1    2  501    0  0.18671335311E+00 -0.21438422804E+02 -0.37875302692E+03  0.41634691209E+03  0.17155539913E+03 0.  0.
         24    2    3    3    0    0 -0.21970664688E+02  0.29130547652E+02 -0.10225499783E+03  0.13435148613E+03  0.79138728379E+02 0.  0.
         -6    2    1    2    0  502 -0.18671335311E+00  0.21438422804E+02 -0.72998604154E+02  0.18726811742E+03  0.17111665834E+03 0.  0.
        -24    2    5    5    0    0 -0.18036786411E+02  0.59546691182E+02 -0.99572324951E+01  0.11132623328E+03  0.91778263452E+02 0.  0.
          5    1    3    3  501    0  0.22157378041E+02 -0.50568970456E+02 -0.27649802909E+03  0.28199542596E+03  0.47000000000E+01 0. -1.
        -11    1    4    4    0    0  0.75710880678E+01  0.19178685839E+02  0.61795006523E+01  0.21525092180E+02  0.00000000000E+00 0.  1.
         12    1    4    4    0    0 -0.29541752756E+02  0.99518618126E+01 -0.10843449848E+03  0.11282639395E+03  0.00000000000E+00 0. -1.
         -5    1    5    5    0  502  0.17850073057E+02 -0.38108268379E+02 -0.63041371659E+02  0.75941884146E+02  0.47000000000E+01 0.  1.
         13    1    6    6    0    0 -0.53706568168E+02  0.20947016698E+02 -0.11335473280E+02  0.58750880226E+02  0.00000000000E+00 0. -1.
        -14    1    6    6    0    0  0.35669781757E+02  0.38599674484E+02  0.13782407849E+01  0.52575353052E+02  0.00000000000E+00 0.  1.
</event>
<event>
12    1  0.8563264E-002  0.2252759E+03  0.7818608E-02  0.1130458E+00
         21   -1    0    0  501  502  0.00000000000E+00  0.00000000000E+00  0.53429364026E+03  0.53429364026E+03  0.00000000000E+00 0. -1.
         21   -1    0    0  502  503 -0.00000000000E+00 -0.00000000000E+00 -0.14408214948E+03  0.14408214948E+03  0.00000000000E+00 0.  1.
         -6    2    1    2    0  503  0.25027644529E+02 -0.14305571085E+03 -0.56755689351E+01  0.22288068450E+03  0.16897416383E+03 0.  0.
        -24    2    3    3    0    0 -0.18968120111E+02 -0.45581677143E+02 -0.50193342343E+02  0.10694649324E+03  0.80502806962E+02 0.  0.
          6    2    1    2  501    0 -0.25027644529E+02  0.14305571085E+03  0.39588705972E+03  0.45549510524E+03  0.17221471321E+03 0.  0.
         24    2    5    5    0    0 -0.82536521168E+02  0.89350322692E+02  0.24021276153E+03  0.28100121788E+03  0.80397488495E+02 0.  0.
          5    1    5    5  501    0  0.57508876638E+02  0.53705388158E+02  0.15567429819E+03  0.17449388736E+03  0.47000000000E+01 0. -1.
        -11    1    6    6    0    0 -0.18475780787E+02  0.18919486890E+02  0.45491668397E+01  0.26832748253E+02  0.00000000000E+00 0.  1.
         12    1    6    6    0    0 -0.64060740381E+02  0.70430835802E+02  0.23566359469E+03  0.25416846963E+03  0.00000000000E+00 0. -1.
         -5    1    3    3    0  503  0.43995764640E+02 -0.97474033708E+02  0.44517773408E+02  0.11593419126E+03  0.47000000000E+01 0.  1.
         13    1    4    4    0    0 -0.40256273092E+02 -0.50801555684E+02 -0.16727541214E+02  0.66941588107E+02  0.00000000000E+00 0. -1.
        -14    1    4    4    0    0  0.21288152982E+02  0.52198785414E+01 -0.33465801129E+02  0.40004905131E+02  0.00000000000E+00 0.  1.
</event>
<event>
12    1  0.8563264E-002  0.2140858E+03  0.7818608E-02  0.1138833E+00
         21   -1    0    0  503  502  0.00000000000E+00  0.00000000000E+00  0.50057353146E+03  0.50057353146E+03  0.00000000000E+00 0. -1.
         21   -1    0    0  501  503 -0.00000000000E+00 -0.00000000000E+00 -0.99849263815E+02  0.99849263815E+02  0.00000000000E+00 0. -1.
          6    2    1    2  501    0  0.99546199665E+02  0.74366844237E+02  0.10974289869E+03  0.24057481365E+03  0.17433549196E+03 0.  0.
         24    2    3    3    0    0  0.77228901401E+02 -0.10614232836E+02  0.21083206358E+02  0.11566494091E+03  0.82806472060E+02 0.  0.
         -6    2    1    2    0  502 -0.99546199665E+02 -0.74366844237E+02  0.29098136895E+03  0.35984798163E+03  0.17140752438E+03 0.  0.
        -24    2    5    5    0    0 -0.11693034485E+03 -0.20031021991E+02  0.14582286624E+03  0.20381057908E+03  0.78743231066E+02 0.  0.
          5    1    3    3  501    0  0.22317298264E+02  0.84981077073E+02  0.88659692333E+02  0.12490987274E+03  0.47000000000E+01 0. -1.
        -11    1    4    4    0    0  0.39919905540E+02  0.28888507242E+02  0.33933326862E+02  0.59829887021E+02  0.00000000000E+00 0.  1.
         12    1    4    4    0    0  0.37308995861E+02 -0.39502740078E+02 -0.12850120504E+02  0.55835053889E+02  0.00000000000E+00 0. -1.
         -5    1    5    5    0  502  0.17384145184E+02 -0.54335822246E+02  0.14515850272E+03  0.15603740255E+03  0.47000000000E+01 0.  1.
         13    1    6    6    0    0 -0.64137734366E+01  0.86842856824E+01  0.60011234158E+02  0.60974597438E+02  0.00000000000E+00 0. -1.
        -14    1    6    6    0    0 -0.11051657141E+03 -0.28715307674E+02  0.85811632078E+02  0.14283598164E+03  0.00000000000E+00 0.  1.
</event>
<event>
12    1  0.8563264E-002  0.1758733E+03  0.7818608E-02  0.1172372E+00
         21   -1    0    0  503  502  0.00000000000E+00  0.00000000000E+00  0.70655115116E+03  0.70655115116E+03  0.00000000000E+00 0. -1.
         21   -1    0    0  501  503 -0.00000000000E+00 -0.00000000000E+00 -0.43711171902E+02  0.43711171902E+02  0.00000000000E+00 0. -1.
          6    2    1    2  501    0 -0.37964240532E+02 -0.57075970234E+01  0.29177750181E+03  0.33963015825E+03  0.16953074532E+03 0.  0.
         24    2    3    3    0    0  0.37765746693E+02  0.24634742900E+02  0.13083638939E+03  0.15913134877E+03  0.78558915424E+02 0.  0.
         -6    2    1    2    0  502  0.37964240532E+02  0.57075970234E+01  0.37106247745E+03  0.41063216481E+03  0.17163202609E+03 0.  0.
        -24    2    5    5    0    0 -0.20949499801E+01  0.64807363037E+02  0.23780762186E+03  0.25938247844E+03  0.80761513045E+02 0.  0.
          5    1    3    3  501    0 -0.75729987225E+02 -0.30342339924E+02  0.16094111241E+03  0.18049880948E+03  0.47000000000E+01 0. -1.
        -11    1    4    4    0    0  0.43423494675E+02  0.48785085717E+02  0.10171551883E+03  0.12087858060E+03  0.00000000000E+00 0.  1.
         12    1    4    4    0    0 -0.56577479825E+01 -0.24150342816E+02  0.29120870566E+02  0.38252768173E+02  0.00000000000E+00 0. -1.
         -5    1    5    5    0  502  0.40059190512E+02 -0.59099766013E+02  0.13325485559E+03  0.15124968637E+03  0.47000000000E+01 0.  1.
         11    1    6    6    0    0  0.34701255698E+02  0.52957703257E+02  0.16882210423E+03  0.18030418286E+03  0.00000000000E+00 0. -1.
        -12    1    6    6    0    0 -0.36796205678E+02  0.11849659780E+02  0.68985517628E+02  0.79078295578E+02  0.00000000000E+00 0.  1.
</event>
<event>
12    1  0.8563264E-002  0.2433783E+03  0.7818608E-02  0.1117839E+00
         21   -1    0    0  501  502  0.00000000000E+00  0.00000000000E+00  0.21660682276E+03  0.21660682276E+03  0.00000000000E+00 0. -1.
         21   -1    0    0  502  503 -0.00000000000E+00 -0.00000000000E+00 -0.32269198767E+03  0.32269198767E+03  0.00000000000E+00 0. -1.
         -6    2    1    2    0  503 -0.78935027241E+02 -0.15002677573E+03 -0.16021396066E+03  0.28997384665E+03  0.17227172313E+03 0.  0.
        -24    2    3    3    0    0 -0.12370260590E+03 -0.11911769740E+03 -0.99615552641E+02  0.20840323751E+03  0.63382099495E+02 0.  0.
          6    2    1    2  501    0  0.78935027241E+02  0.15002677573E+03  0.54128795743E+02  0.24932496378E+03  0.17462599770E+03 0.  0.
         24    2    5    5    0    0  0.10790071031E+03  0.57887079397E+02  0.44239948113E+02  0.15212098370E+03  0.78677464523E+02 0.  0.
          5    1    5    5  501    0 -0.28965683074E+02  0.92139696333E+02  0.98888476300E+01  0.97203980082E+02  0.47000000000E+01 0. -1.
        -13    1    6    6    0    0  0.11273618827E+03  0.65080487115E+02  0.27172019798E+02  0.13297833135E+03  0.00000000000E+00 0.  1.
         14    1    6    6    0    0 -0.48354779588E+01 -0.71934077182E+01  0.17067928316E+02  0.19142652342E+02  0.00000000000E+00 0. -1.
         -5    1    3    3    0  503  0.44767578654E+02 -0.30909078329E+02 -0.60598408015E+02  0.81570609141E+02  0.47000000000E+01 0.  1.
         13    1    4    4    0    0 -0.60817275047E+02 -0.83328556719E+02 -0.87012377712E+02  0.13495756068E+03  0.00000000000E+00 0. -1.
        -14    1    4    4    0    0 -0.62885330849E+02 -0.35789140682E+02 -0.12603174928E+02  0.73445676830E+02  0.00000000000E+00 0.  1.
</event>
<event>
12    1  0.8563264E-002  0.2129978E+03  0.7818608E-02  0.1139271E+00
         21   -1    0    0  503  502  0.00000000000E+00  0.00000000000E+00  0.86866952236E+03  0.86866952236E+03  0.00000000000E+00 0.  1.
         21   -1    0    0  501  503 -0.00000000000E+00 -0.00000000000E+00 -0.79285781697E+02  0.79285781697E+02  0.00000000000E+00 0. -1.
          6    2    1    2  501    0  0.68412941000E+02  0.10613908812E+03  0.11760763729E+03  0.24330975765E+03  0.17152913833E+03 0.  0.
         24    2    3    3    0    0  0.69120323052E+02  0.18186907622E+02  0.15480423383E+02  0.10844632946E+03  0.80078587634E+02 0.  0.
         -6    2    1    2    0  502 -0.68412941000E+02 -0.10613908812E+03  0.67177610337E+03  0.70464554640E+03  0.17116184295E+03 0.  0.
        -24    2    5    5    0    0 -0.10314781255E+03 -0.93067255860E+02  0.62034745693E+03  0.64105010809E+03  0.82542645989E+02 0.  0.
          5    1    3    3  501    0 -0.70738205238E+00  0.87952180497E+02  0.10212721391E+03  0.13486342819E+03  0.47000000000E+01 0. -1.
        -13    1    4    4    0    0 -0.14163509807E+02 -0.11801652796E+02 -0.75470780414E+00  0.18451384844E+02  0.00000000000E+00 0.  1.
         14    1    4    4    0    0  0.83283832859E+02  0.29988560418E+02  0.16235131187E+02  0.89994944616E+02  0.00000000000E+00 0. -1.
         -5    1    5    5    0  502  0.34734871551E+02 -0.13071832259E+02  0.51428646440E+02  0.63595438319E+02  0.47000000000E+01 0.  1.
         13    1    6    6    0    0 -0.31748481528E+01  0.99558955733E+01  0.11634795564E+02  0.15638669549E+02  0.00000000000E+00 0. -1.
        -14    1    6    6    0    0 -0.99972964398E+02 -0.10302315143E+03  0.60871266137E+03  0.62541143854E+03  0.00000000000E+00 0.  1.
</event>
<event>
12    1  0.8563264E-002  0.2354387E+03  0.7818608E-02  0.1122997E+00
         21   -1    0    0  503  502  0.00000000000E+00  0.00000000000E+00  0.11794783379E+04  0.11794783379E+04  0.00000000000E+00 0. -1.
         21   -1    0    0  501  503 -0.00000000000E+00 -0.00000000000E+00 -0.49461011028E+02  0.49461011028E+02  0.00000000000E+00 0. -1.
          6    2    1    2  501    0 -0.14339675753E+03  0.68814674550E+02  0.70541607506E+03  0.74343175343E+03  0.17257127092E+03 0.  0.
         24    2    3    3    0    0 -0.25383332318E+02  0.42831502673E+02  0.46240925619E+03  0.47199723505E+03  0.80499804357E+02 0.  0.
         -6    2    1    2    0  502  0.14339675753E+03 -0.68814674550E+02  0.42460125179E+03  0.48550759548E+03  0.17358949491E+03 0.  0.
        -24    2    5    5    0    0  0.16940939743E+03 -0.38121556091E+02  0.29213940603E+03  0.34699060902E+03  0.70030373511E+02 0.  0.
          5    1    3    3  501    0 -0.11801342521E+03  0.25983171877E+02  0.24300681887E+03  0.27143451838E+03  0.47000000000E+01 0. -1.
        -13    1    4    4    0    0 -0.11857791185E+02  0.35919111520E+02  0.45200765361E+03  0.45358759761E+03  0.00000000000E+00 0.  1.
         14    1    4    4    0    0 -0.13525541133E+02  0.69123911523E+01  0.10401602584E+02  0.18409637441E+02  0.00000000000E+00 0. -1.
         -5    1    5    5    0  502 -0.26012639907E+02 -0.30693118459E+02  0.13246184576E+03  0.13851698646E+03  0.47000000000E+01 0.  1.
         11    1    6    6    0    0  0.12623100731E+03 -0.56385176330E+02  0.19392641233E+03  0.23816172806E+03  0.00000000000E+00 0. -1.
        -12    1    6    6    0    0  0.43178390125E+02  0.18263620239E+02  0.98212993700E+02  0.10882888095E+03  0.00000000000E+00 0.  1.
</event>
<event>
12    1  0.8563264E-002  0.1957315E+03  0.7818608E-02  0.1154243E+00
         21   -1    0    0  501  502  0.00000000000E+00  0.00000000000E+00  0.43579280697E+03  0.43579280697E+03  0.00000000000E+00 0.  1.
         21   -1    0    0  502  503 -0.00000000000E+00 -0.00000000000E+00 -0.93757830145E+02  0.93757830145E+02  0.00000000000E+00 0. -1.
         -6    2    1    2    0  503  0.80806641333E+02  0.22891270067E+02  0.94140399454E+02  0.21369856634E+03  0.17248460488E+03 0.  0.
        -24    2    3    3    0    0  0.56684959346E+02  0.79556470975E+02  0.82607791299E+02  0.15086631677E+03  0.79963627117E+02 0.  0.
          6    2    1    2  501    0 -0.80806641333E+02 -0.22891270067E+02  0.24789457738E+03  0.31585207078E+03  0.17679673524E+03 0.  0.
         24    2    5    5    0    0 -0.10922651125E+03 -0.60034088846E+02  0.19930926994E+03  0.24825103461E+03  0.79811456041E+02 0.  0.
          5    1    5    5  501    0  0.28419869913E+02  0.37142818780E+02  0.48585307431E+02  0.67601036168E+02  0.47000000000E+01 0. -1.
        -11    1    6    6    0    0 -0.48395160595E+02  0.54637589115E+01  0.11702830876E+03  0.12675791605E+03  0.00000000000E+00 0.  1.
         12    1    6    6    0    0 -0.60831350651E+02 -0.65497847758E+02  0.82280961181E+02  0.12149311855E+03  0.00000000000E+00 0. -1.
         -5    1    3    3    0  503  0.24121681987E+02 -0.56665200908E+02  0.11532608155E+02  0.62832249576E+02  0.47000000000E+01 0.  1.
         11    1    4    4    0    0  0.15623774754E+02  0.82932622906E+02  0.48184802234E+02  0.97178688230E+02  0.00000000000E+00 0. -1.
        -12    1    4    4    0    0  0.41061184591E+02 -0.33761519310E+01  0.34422989064E+02  0.53687628538E+02  0.00000000000E+00 0.  1.
</event>
<event>
12    1  0.8563264E-002  0.1970052E+03  0.7818608E-02  0.1152416E+00
         21   -1    0    0  501  502  0.00000000000E+00  0.00000000000E+00  0.69643035957E+03  0.69643035957E+03  0.00000000000E+00 0. -1.
         21   -1    0    0  502  503 -0.00000000000E+00 -0.00000000000E+00 -0.55610481815E+02  0.55610481815E+02  0.00000000000E+00 0.  1.
         -6    2    1    2    0  503  0.21997396832E+02  0.92859851273E+02  0.30905476045E+03  0.36619224014E+03  0.17168306363E+03 0.  0.
        -24    2    3    3    0    0 -0.19238503645E+02 -0.84894993814E+01  0.86155656800E+02  0.11784129737E+03  0.77598856599E+02 0.  0.
          6    2    1    2  501    0 -0.21997396832E+02 -0.92859851273E+02  0.33176511731E+03  0.38584860125E+03  0.17234910088E+03 0.  0.
         24    2    5    5    0    0  0.29749066486E+02 -0.16528769201E+02  0.23977137192E+03  0.25550647549E+03  0.81455761350E+02 0.  0.
          5    1    5    5  501    0 -0.51746463318E+02 -0.76331082072E+02  0.91993745391E+02  0.13034212576E+03  0.47000000000E+01 0. -1.
        -11    1    6    6    0    0  0.12769061026E+02  0.40460042875E+01 -0.83976047457E+00  0.13421038255E+02  0.00000000000E+00 0.  1.
         12    1    6    6    0    0  0.16980005460E+02 -0.20574773488E+02  0.24061113239E+03  0.24208543723E+03  0.00000000000E+00 0. -1.
         -5    1    3    3    0  503  0.41235900477E+02  0.10134935065E+03  0.22289910365E+03  0.24835094277E+03  0.47000000000E+01 0.  1.
         13    1    4    4    0    0  0.26461485416E+02 -0.16783358469E+02  0.20602335018E+02  0.37501300512E+02  0.00000000000E+00 0. -1.
        -14    1    4    4    0    0 -0.45699989061E+02  0.82938590874E+01  0.65553321782E+02  0.80339996860E+02  0.00000000000E+00 0.  1.
</event>
<event>
12    1  0.8563264E-002  0.2110416E+03  0.7818608E-02  0.1140803E+00
         21   -1    0    0  503  502  0.00000000000E+00  0.00000000000E+00  0.21405121939E+03  0.21405121939E+03  0.00000000000E+00 0. -1.
         21   -1    0    0  501  503 -0.00000000000E+00 -0.00000000000E+00 -0.21881744417E+03  0.21881744417E+03  0.00000000000E+00 0. -1.
          6    2    1    2  501    0  0.33273249075E+02 -0.11833436295E+03 -0.51000188923E+02  0.21682210171E+03  0.17117439634E+03 0.  0.
         24    2    3    3    0    0  0.29459673647E+02 -0.83839948604E+02 -0.10139191887E+03  0.15545578827E+03  0.77389737951E+02 0.  0.
         -6    2    1    2    0  502 -0.33273249075E+02  0.11833436295E+03  0.46233964135E+02  0.21604656185E+03  0.17154709816E+03 0.  0.
        -24    2    5    5    0    0  0.21789987545E+01  0.12678168500E+03 -0.86352940845E+01  0.15000911320E+03  0.79685770696E+02 0.  0.
          5    1    3    3  501    0  0.38135754286E+01 -0.34494414345E+02  0.50391729949E+02  0.61366313445E+02  0.47000000000E+01 0. -1.
        -13    1    4    4    0    0 -0.18991070184E+02  0.18693687449E+01 -0.20738936230E+02  0.28182596796E+02  0.00000000000E+00 0.  1.
         14    1    4    4    0    0  0.48450743831E+02 -0.85709317349E+02 -0.80652982643E+02  0.12727319147E+03  0.00000000000E+00 0. -1.
         -5    1    5    5    0  502 -0.35452247830E+02 -0.84473220538E+01  0.54869258219E+02  0.66037448646E+02  0.47000000000E+01 0.  1.
         13    1    6    6    0    0 -0.32636755469E+02  0.73231749750E+02 -0.25165791601E+02  0.84031922779E+02  0.00000000000E+00 0. -1.
        -14    1    6    6    0    0  0.34815754224E+02  0.53549935254E+02  0.16530497516E+02  0.65977190422E+02  0.00000000000E+00 0.  1.
</event>
<event>
12    1  0.8563264E-002  0.2039623E+03  0.7818608E-02  0.1147251E+00
         21   -1    0    0  503  502  0.00000000000E+00  0.00000000000E+00  0.10626384312E+04  0.10626384312E+04  0.00000000000E+00 0.  1.
         21   -1    0    0  501  503 -0.00000000000E+00 -0.00000000000E+00 -0.39436057560E+02  0.39436057560E+02  0.00000000000E+00 0.  1.
          6    2    1    2  501    0 -0.10233965701E+03  0.41861346242E+01  0.60567460941E+03  0.63909495202E+03  0.17637940950E+03 0.  0.
         24    2    3    3    0    0 -0.39539509960E+02  0.68457951010E+02  0.38233227884E+03  0.39830747005E+03  0.78873350054E+02 0.  0.
         -6    2    1    2    0  502  0.10233965701E+03 -0.41861346242E+01  0.41752776419E+03  0.46297953670E+03  0.17184204495E+03 0.  0.
        -24    2    5    5    0    0  0.42956250032E+02 -0.94629469658E+01  0.83092360892E+02  0.12323939666E+03  0.79679493402E+02 0.  0.
          5    1    3    3  501    0 -0.62800147048E+02 -0.64271816386E+02  0.22334233056E+03  0.24078748197E+03  0.47000000000E+01 0. -1.
        -11    1    4    4    0    0 -0.51664393224E+02  0.52068662996E+02  0.17197471805E+03  0.18696432505E+03  0.00000000000E+00 0.  1.
         12    1    4    4    0    0  0.12124883264E+02  0.16389288014E+02  0.21035756079E+03  0.21134314500E+03  0.00000000000E+00 0. -1.
         -5    1    5    5    0  502  0.59383406976E+02  0.52768123416E+01  0.33443540330E+03  0.33974014004E+03  0.47000000000E+01 0.  1.
         13    1    6    6    0    0  0.24462620407E+02  0.32401518472E+02  0.58716078923E+02  0.71385265430E+02  0.00000000000E+00 0. -1.
        -14    1    6    6    0    0  0.18493629625E+02 -0.41864465438E+02  0.24376281969E+02  0.51854131231E+02  0.00000000000E+00 0.  1.
</event>
<event>
12    1  0.8563264E-002  0.1824106E+03  0.7818608E-02  0.1165741E+00
         21   -1    0    0  503  502  0.00000000000E+00  0.00000000000E+00  0.20783434670E+03  0.20783434670E+03  0.00000000000E+00 0. -1.
         21   -1    0    0  501  503 -0.00000000000E+00 -0.00000000000E+00 -0.39486717431E+03  0.39486717431E+03  0.00000000000E+00 0. -1.
          6    2    1    2  501    0  0.83612298574E+01 -0.56883785325E+02 -0.32622680165E+03  0.37324868482E+03  0.17200284710E+03 0.  0.
         24    2    3    3    0    0  0.16624814158E+02 -0.96957954340E+02 -0.17183051218E+03  0.21345340939E+03  0.79745869547E+02 0.  0.
         -6    2    1    2    0  502 -0.83612298574E+01  0.56883785325E+02  0.13919397404E+03  0.22945283619E+03  0.17311258310E+03 0.  0.
        -24    2    5    5    0    0  0.17894265234E+02  0.16002499141E+02  0.15570698372E+03  0.17792226205E+03  0.82676368115E+02 0.  0.
          5    1    3    3  501    0 -0.82635843003E+01  0.40074169015E+02 -0.15439628947E+03  0.15979527543E+03  0.47000000000E+01 0. -1.
        -11    1    4    4    0    0  0.62633594834E+01 -0.62509353155E+02 -0.34877362001E+02  0.71854570377E+02  0.00000000000E+00 0.  1.
         12    1    4    4    0    0  0.10361454674E+02 -0.34448601185E+02 -0.13695315018E+03  0.14159883902E+03  0.00000000000E+00 0. -1.
         -5    1    5    5    0  502 -0.26255495092E+02  0.40881286184E+02 -0.16513009682E+02  0.51530574141E+02  0.47000000000E+01 0.  1.
         11    1    6    6    0    0  0.15889265584E+02 -0.32224048287E+02  0.48572439855E+02  0.60416388193E+02  0.00000000000E+00 0. -1.
        -12    1    6    6    0    0  0.20049996506E+01  0.48226547428E+02  0.10713454387E+03  0.11750587385E+03  0.00000000000E+00 0.  1.
</event>
<event>
12    1  0.8563264E-002  0.2182018E+03  0.7818608E-02  0.1135248E+00
         21   -1    0    0  503  502  0.00000000000E+00  0.00000000000E+00  0.33675521981E+03  0.33675521981E+03  0.00000000000E+00 0. -1.
         21   -1    0    0  501  503 -0.00000000000E+00 -0.00000000000E+00 -0.14600582764E+03  0.14600582764E+03  0.00000000000E+00 0. -1.
          6    2    1    2  501    0 -0.13292642534E+03  0.24499526339E+02  0.13861227705E+03  0.25850602923E+03  0.17129606666E+03 0.  0.
         24    2    3    3    0    0 -0.82858928095E+02 -0.35538773216E+02  0.28525759821E+02  0.12340427880E+03  0.79286131736E+02 0.  0.
         -6    2    1    2    0  502  0.13292642534E+03 -0.24499526339E+02  0.52137115129E+02  0.22425501822E+03  0.17117935939E+03 0.  0.
        -24    2    5    5    0    0  0.46323651865E+02 -0.65220966811E+02 -0.41320985099E+01  0.11313980554E+03  0.79899224810E+02 0.  0.
          5    1    3    3  501    0 -0.50067497240E+02  0.60038299555E+02  0.11008651723E+03  0.13510175043E+03  0.47000000000E+01 0. -1.
        -13    1    4    4    0    0 -0.97966894168E+01  0.15752017135E+02 -0.15218692125E+02  0.23993952516E+02  0.00000000000E+00 0.  1.
         14    1    4    4    0    0 -0.73062238678E+02 -0.51290790351E+02  0.43744451945E+02  0.99410326282E+02  0.00000000000E+00 0. -1.
         -5    1    5    5    0  502  0.86602773470E+02  0.40721440472E+02  0.56269213639E+02  0.11111521269E+03  0.47000000000E+01 0.  1.
         13    1    6    6    0    0 -0.59585257382E+01 -0.35944247089E+02 -0.30650902854E+02  0.47612716511E+02  0.00000000000E+00 0. -1.
        -14    1    6    6    0    0  0.52282177603E+02 -0.29276719722E+02  0.26518804344E+02  0.65527089028E+02  0.00000000000E+00 0.  1.
</event>
<event>
12    1  0.8563264E-002  0.1794987E+03  0.7818608E-02  0.1168860E+00
         21   -1    0    0  501  502  0.00000000000E+00  0.00000000000E+00  0.33225207001E+02  0.33225207001E+02  0.00000000000E+00 0.  1.
         21   -1    0    0  502  503 -0.00000000000E+00 -0.00000000000E+00 -0.18117453444E+04  0.18117453444E+04  0.00000000000E+00 0. -1.
         -6    2    1    2    0  503  0.26406983514E+02 -0.46692903188E+02 -0.15197353476E+04  0.15300271203E+04  0.16884876664E+03 0.  0.
        -24    2    3    3    0    0  0.49019730053E+02 -0.32379135279E+01 -0.13534772007E+04  0.13566387300E+04  0.78451852573E+02 0.  0.
          6    2    1    2  501    0 -0.26406983514E+02  0.46692903188E+02 -0.25878478974E+03  0.31494343109E+03  0.17129577168E+03 0.  0.
         24    2    5    5    0    0  0.19019088699E+02 -0.14493292475E+02 -0.11210946053E+03  0.14958617912E+03  0.96102614862E+02 0.  0.
          5    1    5    5  501    0 -0.45426072214E+02  0.61186195663E+02 -0.14667532921E+03  0.16535725196E+03  0.47000000000E+01 0. -1.
        -11    1    6    6    0    0 -0.14798118458E+02  0.18606824839E+02  0.40879482661E+01  0.24122801692E+02  0.00000000000E+00 0.  1.
         12    1    6    6    0    0  0.33817207157E+02 -0.33100117313E+02 -0.11619740879E+03  0.12546337743E+03  0.00000000000E+00 0. -1.
         -5    1    3    3    0  503 -0.22612746539E+02 -0.43454989660E+02 -0.16625814697E+03  0.17338839023E+03  0.47000000000E+01 0.  1.
         11    1    4    4    0    0 -0.43813092530E+01 -0.20757648107E+02 -0.80707049273E+03  0.80734927761E+03  0.00000000000E+00 0. -1.
        -12    1    4    4    0    0  0.53401039306E+02  0.17519734579E+02 -0.54640670792E+03  0.54928945244E+03  0.00000000000E+00 0.  1.
</event>
<event>
12    1  0.8563264E-002  0.2022154E+03  0.7818608E-02  0.1148389E+00
         21   -1    0    0  503  502  0.00000000000E+00  0.00000000000E+00  0.42178295272E+03  0.42178295272E+03  0.00000000000E+00 0. -1.
         21   -1    0    0  501  503 -0.00000000000E+00 -0.00000000000E+00 -0.10540466195E+03  0.10540466195E+03  0.00000000000E+00 0. -1.
          6    2    1    2  501    0 -0.98440786205E+02  0.27083448231E+02  0.79454900612E+02  0.21726513440E+03  0.17454786117E+03 0.  0.
         24    2    3    3    0    0 -0.42818853385E+02 -0.22191037086E+02  0.10254517818E+03  0.13930985727E+03  0.81029787326E+02 0.  0.
         -6    2    1    2    0  502  0.98440786205E+02 -0.27083448231E+02  0.23692339015E+03  0.30992248027E+03  0.17174151920E+03 0.  0.
        -24    2    5    5    0    0  0.69581525125E+02  0.76187551545E+01  0.24179560172E+03  0.26428337077E+03  0.80504366262E+02 0.  0.
          5    1    3    3  501    0 -0.55621932820E+02  0.49274485318E+02 -0.23090277565E+02  0.77955277127E+02  0.47000000000E+01 0. -1.
        -13    1    4    4    0    0 -0.49477612764E+02 -0.36474716095E+02  0.36670484687E+02  0.71576277678E+02  0.00000000000E+00 0.  1.
         14    1    4    4    0    0  0.66587593785E+01  0.14283679009E+02  0.65874693490E+02  0.67733579596E+02  0.00000000000E+00 0. -1.
         -5    1    5    5    0  502  0.28859261081E+02 -0.34702203386E+02 -0.48722115684E+01  0.45639109495E+02  0.47000000000E+01 0.  1.
         11    1    6    6    0    0  0.41013045435E+02 -0.23285702361E+02  0.53403935388E+02  0.71247976429E+02  0.00000000000E+00 0. -1.
        -12    1    6    6    0    0  0.28568479689E+02  0.30904457516E+02  0.18839166633E+03  0.19303539434E+03  0.00000000000E+00 0.  1.
</event>
<event>
12    1  0.8563264E-002  0.2028860E+03  0.7818608E-02  0.1148117E+00
         21   -1    0    0  503  502  0.00000000000E+00  0.00000000000E+00  0.97612130482E+02  0.97612130482E+02  0.00000000000E+00 0. -1.
         21   -1    0    0  501  503 -0.00000000000E+00 -0.00000000000E+00 -0.41389587327E+03  0.41389587327E+03  0.00000000000E+00 0. -1.
          6    2    1    2  501    0  0.60801763352E+02  0.87683285483E+02 -0.16148185277E+03  0.25930502989E+03  0.17256157386E+03 0.  0.
         24    2    3    3    0    0  0.30863019936E+02 -0.12981362531E+02 -0.33677503917E+02  0.93818651893E+02  0.80911824848E+02 0.  0.
         -6    2    1    2    0  502 -0.60801763352E+02 -0.87683285483E+02 -0.15480189002E+03  0.25220297386E+03  0.16809967844E+03 0.  0.
        -24    2    5    5    0    0 -0.27868551496E+02 -0.11310001978E+03 -0.69793607664E+02  0.15744483493E+03  0.79683484718E+02 0.  0.
          5    1    3    3  501    0  0.29938743416E+02  0.10066464801E+03 -0.12780434886E+03  0.16548637800E+03  0.47000000000E+01 0. -1.
        -13    1    4    4    0    0  0.44739539718E+02 -0.37748803111E+02 -0.27903657036E+02  0.64847610800E+02  0.00000000000E+00 0.  1.
         14    1    4    4    0    0 -0.13876519782E+02  0.24767440581E+02 -0.57738468805E+01  0.28971041093E+02  0.00000000000E+00 0. -1.
         -5    1    5    5    0  502 -0.32933211856E+02  0.25416734302E+02 -0.85008282354E+02  0.94758138935E+02  0.47000000000E+01 0.  1.
         11    1    6    6    0    0 -0.30800346503E+02 -0.87517469170E+01 -0.34935291227E+02  0.47389123139E+02  0.00000000000E+00 0. -1.
        -12    1    6    6    0    0  0.29317950067E+01 -0.10434827287E+03 -0.34858316437E+02  0.11005571179E+03  0.00000000000E+00 0.  1.
</event>
<event>
12    1  0.8563264E-002  0.1908606E+03  0.7818608E-02  0.1157946E+00
         21   -1    0    0  503  502  0.00000000000E+00  0.00000000000E+00  0.90017012303E+03  0.90017012303E+03  0.00000000000E+00 0. -1.
         21   -1    0    0  501  503 -0.00000000000E+00 -0.00000000000E+00 -0.11354742336E+03  0.11354742336E+03  0.00000000000E+00 0. -1.
          6    2    1    2  501    0 -0.49230401012E+02  0.66433577683E+02 -0.14414999830E+02  0.19025584176E+03  0.17074085766E+03 0.  0.
         24    2    3    3    0    0 -0.53035329102E+02  0.10988501904E+03 -0.66820104675E+01  0.14570930027E+03  0.79366790155E+02 0.  0.
         -6    2    1    2    0  502  0.49230401012E+02 -0.66433577683E+02  0.80103769950E+03  0.82346170463E+03  0.17201956384E+03 0.  0.
        -24    2    5    5    0    0  0.10000176437E+03 -0.40513776217E+02  0.62981621777E+03  0.64293898237E+03  0.71136122655E+02 0.  0.
          5    1    3    3  501    0  0.38049280902E+01 -0.43451441358E+02 -0.77329893626E+01  0.44546541485E+02  0.47000000000E+01 0. -1.
        -13    1    4    4    0    0  0.36696663829E+01  0.55763589131E+02  0.24923542415E+02  0.61190091441E+02  0.00000000000E+00 0.  1.
         14    1    4    4    0    0 -0.56704995485E+02  0.54121429910E+02 -0.31605552882E+02  0.84519208831E+02  0.00000000000E+00 0. -1.
         -5    1    5    5    0  502 -0.50771363362E+02 -0.25919801466E+02  0.17122148173E+03  0.18052272226E+03  0.47000000000E+01 0.  1.
         13    1    6    6    0    0  0.36365358271E+02 -0.34149441223E+02  0.13344461221E+03  0.14246433991E+03  0.00000000000E+00 0. -1.
        -14    1    6    6    0    0  0.63636406103E+02 -0.63643349940E+01  0.49637160556E+03  0.50047464247E+03  0.00000000000E+00 0.  1.
</event>
<event>
12    1  0.8563264E-002  0.1908793E+03  0.7818608E-02  0.1157798E+00
         21   -1    0    0  501  502  0.00000000000E+00  0.00000000000E+00  0.35231864804E+03  0.35231864804E+03  0.00000000000E+00 0. -1.
         21   -1    0    0  502  503 -0.00000000000E+00 -0.00000000000E+00 -0.21733344292E+03  0.21733344292E+03  0.00000000000E+00 0. -1.
         -6    2    1    2    0  503  0.65253945090E+02 -0.48377885488E+02 -0.13894965180E+03  0.23609725611E+03  0.17273219576E+03 0.  0.
        -24    2    3    3    0    0  0.11054254202E+03 -0.51394003529E+02 -0.10697560478E+03  0.18037846517E+03  0.78940569315E+02 0.  0.
          6    2    1    2  501    0 -0.65253945090E+02  0.48377885488E+02  0.27393485691E+03  0.33355483486E+03  0.17210469160E+03 0.  0.
         24    2    5    5    0    0 -0.82387806904E+01  0.65423726693E+02  0.80216547832E+02  0.13084774828E+03  0.79613423260E+02 0.  0.
          5    1    5    5  501    0 -0.57015164399E+02 -0.17045841205E+02  0.19371830908E+03  0.20270708657E+03  0.47000000000E+01 0. -1.
        -13    1    6    6    0    0  0.23391002231E+02  0.21674263260E+02  0.68566498065E+02  0.75619292050E+02  0.00000000000E+00 0.  1.
         14    1    6    6    0    0 -0.31629782922E+02  0.43749463432E+02  0.11650049766E+02  0.55228456233E+02  0.00000000000E+00 0. -1.
         -5    1    3    3    0  503 -0.45288596935E+02  0.30161180411E+01 -0.31974047014E+02  0.55718790931E+02  0.47000000000E+01 0.  1.
         13    1    4    4    0    0  0.40198565249E+02 -0.47543723175E+02 -0.14152366829E+02  0.63848412261E+02  0.00000000000E+00 0. -1.
        -14    1    4    4    0    0  0.70343976776E+02 -0.38502803534E+01 -0.92823237955E+02  0.11653005291E+03  0.00000000000E+00 0.  1.
</event>
<event>
12    1  0.8563264E-002  0.1769091E+03  0.7818608E-02  0.1171447E+00
         21   -1    0    0  501  502  0.00000000000E+00  0.00000000000E+00  0.13884452393E+04  0.13884452393E+04  0.00000000000E+00 0.  1.
         21   -1    0    0  502  503 -0.00000000000E+00 -0.00000000000E+00 -0.28401643849E+02  0.28401643849E+02  0.00000000000E+00 0.  1.
         -6    2    1    2    0  503 -0.28405846159E+02  0.17031352602E+02  0.10065997806E+04  0.10216009266E+04  0.17125529476E+03 0.  0.
        -24    2    3    3    0    0 -0.49980727157E+02 -0.45450581753E+02  0.72372535049E+03  0.73106779461E+03  0.78217062726E+02 0.  0.
          6    2    1    2  501    0  0.28405846159E+02 -0.17031352602E+02  0.35344381491E+03  0.39524595655E+03  0.17378111750E+03 0.  0.
         24    2    5    5    0    0  0.84100530276E+01  0.44382782181E+02  0.28992759648E+03  0.30453803133E+03  0.81515894018E+02 0.  0.
          5    1    5    5  501    0  0.19995793132E+02 -0.61414134782E+02  0.63516218431E+02  0.90707925220E+02  0.47000000000E+01 0. -1.
        -13    1    6    6    0    0 -0.27791895044E+01 -0.23537907453E+02  0.91054857452E+02  0.94089021927E+02  0.00000000000E+00 0.  1.
         14    1    6    6    0    0  0.11189242532E+02  0.67920689634E+02  0.19887273903E+03  0.21044900940E+03  0.00000000000E+00 0. -1.
         -5    1    3    3    0  503  0.21574880998E+02  0.62481934355E+02  0.28287443007E+03  0.29053313202E+03  0.47000000000E+01 0.  1.
         13    1    4    4    0    0 -0.41467077403E+02 -0.18942917543E+02  0.15260110610E+03  0.15926534531E+03  0.00000000000E+00 0. -1.
        -14    1    4    4    0    0 -0.85136497545E+01 -0.26507664210E+02  0.57112424439E+03  0.57180244930E+03  0.00000000000E+00 0.  1.
</event>
<event>
12    1  0.8563264E-002  0.1826893E+03  0.7818608E-02  0.1165493E+00
         21   -1    0    0  503  502  0.00000000000E+00  0.00000000000E+00  0.16021772991E+04  0.16021772991E+04  0.00000000000E+00 0.  1.
         21   -1    0    0  501  503 -0.00000000000E+00 -0.00000000000E+00 -0.24936751377E+02  0.24936751377E+02  0.00000000000E+00 0.  1.
          6    2    1    2  501    0 -0.61971656553E+02  0.18817064960E+02  0.45543783971E+03  0.49071275091E+03  0.17082391496E+03 0.  0.
         24    2    3    3    0    0 -0.92575729911E+01  0.67258905222E+02  0.21372450632E+03  0.23857625608E+03  0.81430966900E+02 0.  0.
         -6    2    1    2    0  502  0.61971656553E+02 -0.18817064960E+02  0.11218027080E+04  0.11364012995E+04  0.16962319944E+03 0.  0.
        -24    2    5    5    0    0 -0.10677630133E+02 -0.39252988898E+01  0.87586686804E+03  0.87948456025E+03  0.78872691330E+02 0.  0.
          5    1    3    3  501    0 -0.52714083562E+02 -0.48441840261E+02  0.24171333338E+03  0.25213649484E+03  0.47000000000E+01 0. -1.
        -11    1    4    4    0    0 -0.19895004255E+02  0.77530000055E+02  0.20773582422E+03  0.22262274091E+03  0.00000000000E+00 0.  1.
         12    1    4    4    0    0  0.10637431264E+02 -0.10271094833E+02  0.59886821000E+01  0.15953515169E+02  0.00000000000E+00 0. -1.
         -5    1    5    5    0  502  0.72649286685E+02 -0.14891766070E+02  0.24593583996E+03  0.25691673929E+03  0.47000000000E+01 0.  1.
         11    1    6    6    0    0  0.60706818818E+01  0.28802555123E+02  0.16071614059E+03  0.16338946786E+03  0.00000000000E+00 0. -1.
        -12    1    6    6    0    0 -0.16748312014E+02 -0.32727854013E+02  0.71515072745E+03  0.71609509240E+03  0.00000000000E+00 0.  1.
</event>
<event>
12    1  0.8563264E-002  0.2969009E+03  0.7818608E-02  0.1088513E+00
         21   -1    0    0  501  502  0.00000000000E+00  0.00000000000E+00  0.32133349112E+03  0.32133349112E+03  0.00000000000E+00 0. -1.
         21   -1    0    0  502  503 -0.00000000000E+00 -0.00000000000E+00 -0.26227458595E+03  0.26227458595E+03  0.00000000000E+00 0.  1.
         -6    2    1    2    0  503 -0.13674551977E+03 -0.18257484161E+03  0.30376876908E+02  0.28532497729E+03  0.16868514471E+03 0.  0.
        -24    2    3    3    0    0 -0.16653439007E+03 -0.15153803122E+03  0.21250586015E+02  0.24109784107E+03  0.83541029316E+02 0.  0.
          6    2    1    2  501    0  0.13674551977E+03  0.18257484161E+03  0.28682028266E+02  0.29828309978E+03  0.19004536012E+03 0.  0.
         24    2    5    5    0    0  0.77404315752E+02  0.17880164360E+03  0.70971020145E+02  0.22516631408E+03  0.87758346847E+02 0.  0.
          5    1    5    5  501    0  0.59341204022E+02  0.37731980017E+01 -0.42288991879E+02  0.73116785706E+02  0.47000000000E+01 0. -1.
        -11    1    6    6    0    0  0.76428131671E+02  0.68515688208E+02  0.43671848060E+02  0.11154769901E+03  0.00000000000E+00 0.  1.
         12    1    6    6    0    0  0.97618408178E+00  0.11028595540E+03  0.27299172085E+02  0.11361861507E+03  0.00000000000E+00 0. -1.
         -5    1    3    3    0  503  0.29788870298E+02 -0.31036810383E+02  0.91262908937E+01  0.44227136216E+02  0.47000000000E+01 0.  1.
         13    1    4    4    0    0 -0.88895208658E+02 -0.11600217534E+03 -0.17762301351E+02  0.14722215239E+03  0.00000000000E+00 0. -1.
        -14    1    4    4    0    0 -0.77639181414E+02 -0.35535855882E+02  0.39012887366E+02  0.93875688676E+02  0.00000000000E+00 0.  1.
</event>
<event>
12    1  0.8563264E-002  0.1745800E+03  0.7818608E-02  0.1174583E+00
         21   -1    0    0  503  502  0.00000000000E+00  0.00000000000E+00  0.13563527755E+03  0.13563527755E+03  0.00000000000E+00 0. -1.
         21   -1    0    0  501  503 -0.00000000000E+00 -0.00000000000E+00 -0.22044459713E+03  0.22044459713E+03  0.00000000000E+00 0. -1.
          6    2    1    2  501    0  0.20164314391E+02  0.47385265593E+01 -0.63348125641E+02  0.18571798562E+03  0.17334685446E+03 0.  0.
         24    2    3    3    0    0  0.57510050529E+02  0.31856703104E+01 -0.99441665234E+02  0.13354568482E+03  0.68031248282E+02 0.  0.
         -6    2    1    2    0  502 -0.20164314391E+02 -0.47385265593E+01 -0.21461193934E+02  0.17036188906E+03  0.16773054937E+03 0.  0.
        -24    2    5    5    0    0 -0.72623136597E+02  0.21778235226E+02 -0.13210002684E+02  0.11081998079E+03  0.79738024014E+02 0.  0.
          5    1    3    3  501    0 -0.37345736138E+02  0.15528562489E+01  0.36093539592E+02  0.52172300798E+02  0.47000000000E+01 0. -1.
        -13    1    4    4    0    0  0.18219415392E+02 -0.45149992305E+01 -0.90624714374E+02  0.92548209981E+02  0.00000000000E+00 0.  1.
         14    1    4    4    0    0  0.39290635137E+02  0.77006695408E+01 -0.88169508597E+01  0.40997474841E+02  0.00000000000E+00 0. -1.
         -5    1    5    5    0  502  0.52458822207E+02 -0.26516761785E+02 -0.82511912504E+01  0.59541908266E+02  0.47000000000E+01 0.  1.
         13    1    6    6    0    0 -0.55479822567E+02  0.38852526089E+02 -0.36753110602E+02  0.77060499832E+02  0.00000000000E+00 0. -1.
        -14    1    6    6    0    0 -0.17143314031E+02 -0.17074290862E+02  0.23543107918E+02  0.33759480962E+02  0.00000000000E+00 0.  1.
</event>
<event>
12    1  0.8563264E-002  0.1953696E+03  0.7818608E-02  0.1153955E+00
         21   -1    0    0  501  502  0.00000000000E+00  0.00000000000E+00  0.38226681079E+02  0.38226681079E+02  0.00000000000E+00 0.  1.
         21   -1    0    0  502  503 -0.00000000000E+00 -0.00000000000E+00 -0.10265935198E+04  0.10265935198E+04  0.00000000000E+00 0.  1.
         -6    2    1    2    0  503  0.70213703851E+02 -0.55618430827E+02 -0.58956234856E+03  0.62073201780E+03  0.17234007379E+03 0.  0.
        -24    2    3    3    0    0  0.10496948845E+03 -0.57951945612E+02 -0.34552614222E+03  0.37417741968E+03  0.79015219625E+02 0.  0.
          6    2    1    2  501    0 -0.70213703851E+02  0.55618430827E+02 -0.39880449012E+03  0.44408818303E+03  0.17362580140E+03 0.  0.
         24    2    5    5    0    0 -0.65916826993E+02  0.44194191867E+02 -0.11704462277E+03  0.16202491134E+03  0.79085229342E+02 0.  0.
          5    1    5    5  501    0 -0.42968768581E+01  0.11424238960E+02 -0.28175986735E+03  0.28206327169E+03  0.47000000000E+01 0. -1.
        -11    1    6    6    0    0 -0.19684318499E+02  0.54171594404E+02 -0.35312763954E+02  0.67594565855E+02  0.00000000000E+00 0.  1.
         12    1    6    6    0    0 -0.46232508494E+02 -0.99774025372E+01 -0.81731858815E+02  0.94430345485E+02  0.00000000000E+00 0. -1.
         -5    1    3    3    0  503 -0.34755784601E+02  0.23335147851E+01 -0.24403620634E+03  0.24655459813E+03  0.47000000000E+01 0.  1.
         13    1    4    4    0    0  0.10825181339E+02  0.18126777474E+02 -0.34746400741E+02  0.40658049352E+02  0.00000000000E+00 0. -1.
        -14    1    4    4    0    0  0.94144307113E+02 -0.76078723087E+02 -0.31077974148E+03  0.33351937032E+03  0.00000000000E+00 0.  1.
</event>
<event>
12    1  0.8563264E-002  0.1969784E+03  0.7818608E-02  0.1152524E+00
         21   -1    0    0  503  502  0.00000000000E+00  0.00000000000E+00  0.65440513740E+03  0.65440513740E+03  0.00000000000E+00 0. -1.
         21   -1    0    0  501  503 -0.00000000000E+00 -0.00000000000E+00 -0.16249367246E+03  0.16249367246E+03  0.00000000000E+00 0. -1.
          6    2    1    2  501    0 -0.55905185668E+02  0.75657659780E+02 -0.80237984318E+02  0.21179097633E+03  0.17195293618E+03 0.  0.
         24    2    3    3    0    0  0.31831916006E+01  0.52774926669E+02  0.16208237848E+02  0.96296302982E+02  0.78834925003E+02 0.  0.
         -6    2    1    2    0  502  0.55905185668E+02 -0.75657659780E+02  0.57214944926E+03  0.60510783352E+03  0.17306364907E+03 0.  0.
        -24    2    5    5    0    0  0.56213629977E+02 -0.11813142940E+03  0.45522167304E+03  0.48061562053E+03  0.81545056763E+02 0.  0.
          5    1    3    3  501    0 -0.59088377268E+02  0.22882733111E+02 -0.96446222166E+02  0.11549467335E+03  0.47000000000E+01 0. -1.
        -11    1    4    4    0    0  0.21023998292E+02  0.18514349003E+02 -0.26604042474E+02  0.38633724894E+02  0.00000000000E+00 0.  1.
         12    1    4    4    0    0 -0.17840806692E+02  0.34260577666E+02  0.42812280322E+02  0.57662578088E+02  0.00000000000E+00 0. -1.
         -5    1    5    5    0  502 -0.30844430950E+00  0.42473769621E+02  0.11692777622E+03  0.12449221299E+03  0.47000000000E+01 0.  1.
         11    1    6    6    0    0 -0.52789011413E+01 -0.41364020563E+02  0.24497604495E+03  0.24849972151E+03  0.00000000000E+00 0. -1.
        -12    1    6    6    0    0  0.61492531118E+02 -0.76767408839E+02  0.21024562810E+03  0.23211589902E+03  0.00000000000E+00 0.  1.
</event>
<event>
12    1  0.8563264E-002  0.2360430E+03  0.7818608E-02  0.1122549E+00
         21   -1    0    0  503  502  0.00000000000E+00  0.00000000000E+00  0.32086006937E+03  0.32086006937E+03  0.00000000000E+00 0.  1.
         21   -1    0    0  501  503 -0.00000000000E+00 -0.00000000000E+00 -0.18877071533E+03  0.18877071533E+03  0.00000000000E+00 0.  1.
          6    2    1    2  501    0  0.14428667904E+03 -0.71382098517E+02 -0.70891261441E+01  0.23561079034E+03  0.17189572153E+03 0.  0.
         24    2    3    3    0    0  0.13177807098E+03 -0.80424400235E+02 -0.57237665479E+02  0.18293067556E+03  0.79711589923E+02 0.  0.
         -6    2    1    2    0  502 -0.14428667904E+03  0.71382098517E+02  0.13917848019E+03  0.27401999435E+03  0.17263330565E+03 0.  0.
        -24    2    5    5    0    0 -0.60748705390E+02  0.63930417369E+02  0.14737741323E+03  0.18961956132E+03  0.80361512146E+02 0.  0.
          5    1    3    3  501    0  0.12508608054E+02  0.90423017178E+01  0.50148539335E+02  0.52680114780E+02  0.47000000000E+01 0. -1.
        -13    1    4    4    0    0  0.52808044546E+02 -0.10481111329E+02 -0.55646364195E+02  0.77427779973E+02  0.00000000000E+00 0.  1.
         14    1    4    4    0    0  0.78970026437E+02 -0.69943288906E+02 -0.15913012836E+01  0.10550289559E+03  0.00000000000E+00 0. -1.
         -5    1    5    5    0  502 -0.83537973647E+02  0.74516811481E+01 -0.81989330379E+01  0.84400433032E+02  0.47000000000E+01 0.  1.
         11    1    6    6    0    0 -0.52196047094E+02  0.40633316606E+02  0.35597379571E+02  0.75117688882E+02  0.00000000000E+00 0. -1.
        -12    1    6    6    0    0 -0.85526582961E+01  0.23297100763E+02  0.11178003366E+03  0.11450187244E+03  0.00000000000E+00 0.  1.
</event>
<event>
12    1  0.8563264E-002  0.2261601E+03  0.7818608E-02  0.1129563E+00
         21   -1    0    0  501  502  0.00000000000E+00  0.00000000000E+00  0.13650539903E+03  0.13650539903E+03  0.00000000000E+00 0. -1.
         21   -1    0    0  502  503 -0.00000000000E+00 -0.00000000000E+00 -0.42635593111E+03  0.42635593111E+03  0.00000000000E+00 0.  1.
         -6    2    1    2    0  503 -0.13938687451E+03 -0.40494262550E+02 -0.24423863773E+03  0.33214753370E+03  0.17204937052E+03 0.  0.
        -24    2    3    3    0    0 -0.14129832627E+03 -0.38438737895E+02 -0.11461639513E+03  0.20240974195E+03  0.79937675897E+02 0.  0.
          6    2    1    2  501    0  0.13938687451E+03  0.40494262550E+02 -0.45611894352E+02  0.23071379644E+03  0.17343565054E+03 0.  0.
         24    2    5    5    0    0  0.91212875859E+02  0.29928368704E+02 -0.97904904671E+02  0.15867893553E+03  0.79863247155E+02 0.  0.
          5    1    5    5  501    0  0.48173998648E+02  0.10565893846E+02  0.52293010319E+02  0.72034860913E+02  0.47000000000E+01 0. -1.
        -11    1    6    6    0    0  0.91483246358E+02  0.46252891683E+02 -0.63469346780E+02  0.12056895261E+03  0.00000000000E+00 0.  1.
         12    1    6    6    0    0 -0.27037049844E+00 -0.16324522979E+02 -0.34435557891E+02  0.38109982917E+02  0.00000000000E+00 0. -1.
         -5    1    3    3    0  503  0.19114517603E+01 -0.20555246554E+01 -0.12962224260E+03  0.12973779174E+03  0.47000000000E+01 0.  1.
         13    1    4    4    0    0 -0.76357654506E+02 -0.57174637674E+02 -0.87955691834E+02  0.12975220353E+03  0.00000000000E+00 0. -1.
        -14    1    4    4    0    0 -0.64940671762E+02  0.18735899780E+02 -0.26660703295E+02  0.72657538422E+02  0.00000000000E+00 0.  1.
</event>
<event>
12    1  0.8563264E-002  0.2223017E+03  0.7818608E-02  0.1132409E+00
         21   -1    0    0  501  502  0.00000000000E+00  0.00000000000E+00  0.93688848338E+02  0.93688848338E+02  0.00000000000E+00 0.  1.
         21   -1    0    0  502  503 -0.00000000000E+00 -0.00000000000E+00 -0.53883517162E+03  0.53883517162E+03  0.00000000000E+00 0.  1.
         -6    2    1    2    0  503 -0.32433491657E+01  0.13874167932E+03 -0.27352236510E+03  0.35168093996E+03  0.17206169366E+03 0.  0.
        -24    2    3    3    0    0  0.35577625859E+02  0.15417518203E+03 -0.23491115870E+03  0.29460050227E+03  0.81058307638E+02 0.  0.
          6    2    1    2  501    0  0.32433491657E+01 -0.13874167932E+03 -0.17162395819E+03  0.28084308000E+03  0.17366139371E+03 0.  0.
         24    2    5    5    0    0  0.18026590302E+02 -0.50741593129E+02 -0.11667953508E+02  0.97620338995E+02  0.80584875847E+02 0.  0.
          5    1    5    5  501    0 -0.14783241136E+02 -0.88000086195E+02 -0.15995600468E+03  0.18322274100E+03  0.47000000000E+01 0. -1.
        -13    1    6    6    0    0 -0.33805543323E+01 -0.62036576250E+02  0.12546930571E+02  0.63382887337E+02  0.00000000000E+00 0.  1.
         14    1    6    6    0    0  0.21407144634E+02  0.11294983120E+02 -0.24214884079E+02  0.34237451658E+02  0.00000000000E+00 0. -1.
         -5    1    3    3    0  503 -0.38820975025E+02 -0.15433502709E+02 -0.38611206403E+02  0.57080437697E+02  0.47000000000E+01 0.  1.
         13    1    4    4    0    0 -0.26029080739E+01 -0.61307481923E+01  0.11009349033E+01  0.67507971010E+01  0.00000000000E+00 0. -1.
        -14    1    4    4    0    0  0.38180533933E+02  0.16030593023E+03 -0.23601209360E+03  0.28784970517E+03  0.00000000000E+00 0.  1.
</event>
<event>
12    1  0.8563264E-002  0.1777404E+03  0.7818608E-02  0.1170347E+00
         21   -1    0    0  503  502  0.00000000000E+00  0.00000000000E+00  0.56186664870E+03  0.56186664870E+03  0.00000000000E+00 0. -1.
         21   -1    0    0  501  503 -0.00000000000E+00 -0.00000000000E+00 -0.56099141251E+02  0.56099141251E+02  0.00000000000E+00 0. -1.
          6    2    1    2  501    0 -0.33339315128E+02  0.38095441611E+02  0.23101734982E+03  0.29148010320E+03  0.17037858444E+03 0.  0.
         24    2    3    3    0    0  0.36865544523E+02 -0.16833131112E+02  0.11954733320E+03  0.14867420337E+03  0.78549546122E+02 0.  0.
         -6    2    1    2    0  502  0.33339315128E+02 -0.38095441611E+02  0.27475015763E+03  0.32648568676E+03  0.16894520394E+03 0.  0.
        -24    2    5    5    0    0  0.34646071879E+01 -0.73240356133E+02  0.25344695327E+03  0.27546040178E+03  0.79163890483E+02 0.  0.
          5    1    3    3  501    0 -0.70204859651E+02  0.54928572723E+02  0.11147001662E+03  0.14280589982E+03  0.47000000000E+01 0. -1.
        -13    1    4    4    0    0 -0.18695948528E+02 -0.21088434326E+02  0.64298538136E+02  0.70203721839E+02  0.00000000000E+00 0.  1.
         14    1    4    4    0    0  0.55561493051E+02  0.42553032137E+01  0.55248795069E+02  0.78470481533E+02  0.00000000000E+00 0. -1.
         -5    1    5    5    0  502  0.29874707940E+02  0.35144914522E+02  0.21303204361E+02  0.51025284980E+02  0.47000000000E+01 0.  1.
         13    1    6    6    0    0 -0.34825792555E+02 -0.55320089682E+02  0.16306692696E+03  0.17568144699E+03  0.00000000000E+00 0. -1.
        -14    1    6    6    0    0  0.38290399743E+02 -0.17920266451E+02  0.90380026311E+02  0.99778954785E+02  0.00000000000E+00 0.  1.
</event>
<event>
12    1  0.8563264E-002  0.1877443E+03  0.7818608E-02  0.1160761E+00
         21   -1    0    0  503  502  0.00000000000E+00  0.00000000000E+00  0.70029057085E+03  0.70029057085E+03  0.00000000000E+00 0.  1.
         21   -1    0    0  501  503 -0.00000000000E+00 -0.00000000000E+00 -0.60031587356E+02  0.60031587356E+02  0.00000000000E+00 0.  1.
          6    2    1    2  501    0 -0.41454506093E+02  0.59781323809E+02  0.16428420907E+03  0.24865830093E+03  0.17189929179E+03 0.  0.
         24    2    3    3    0    0  0.27972111237E+02 -0.54154916272E+01  0.11114498809E+03  0.13949536425E+03  0.79334618639E+02 0.  0.
         -6    2    1    2    0  502  0.41454506093E+02 -0.59781323809E+02  0.47597477443E+03  0.51166385728E+03  0.17307696035E+03 0.  0.
        -24    2    5    5    0    0  0.17119581145E+02  0.34249206390E+02  0.19087738750E+03  0.21043879323E+03  0.79901316878E+02 0.  0.
          5    1    3    3  501    0 -0.69426617330E+02  0.65196815436E+02  0.53139220982E+02  0.10916293667E+03  0.47000000000E+01 0. -1.
        -13    1    4    4    0    0  0.45668331936E+02  0.22670414702E+02  0.63742096653E+02  0.81624745821E+02  0.00000000000E+00 0.  1.
         14    1    4    4    0    0 -0.17696220699E+02 -0.28085906329E+02  0.47402891436E+02  0.57870618434E+02  0.00000000000E+00 0. -1.
         -5    1    5    5    0  502  0.24334924948E+02 -0.94030530199E+02  0.28509738693E+03  0.30122506405E+03  0.47000000000E+01 0.  1.
         13    1    6    6    0    0  0.42929659084E+02  0.20635497501E+02  0.61375132595E+02  0.77689679413E+02  0.00000000000E+00 0. -1.
        -14    1    6    6    0    0 -0.25810077939E+02  0.13613708888E+02  0.12950225490E+03  0.13274911381E+03  0.00000000000E+00 0.  1.
</event>
<event>
12    1  0.8563264E-002  0.2805013E+03  0.7818608E-02  0.1095655E+00
         21   -1    0    0  503  502  0.00000000000E+00  0.00000000000E+00  0.49707920169E+03  0.49707920169E+03  0.00000000000E+00 0. -1.
         21   -1    0    0  501  503 -0.00000000000E+00 -0.00000000000E+00 -0.17420937325E+03  0.17420937325E+03  0.00000000000E+00 0. -1.
          6    2    1    2  501    0 -0.10975396132E+03  0.19307355836E+03  0.56408291029E+02  0.28440003060E+03  0.16845815845E+03 0.  0.
         24    2    3    3    0    0 -0.16639484991E+02  0.41967485964E+02 -0.58703514485E+01  0.96240337456E+02  0.84791504224E+02 0.  0.
         -6    2    1    2    0  502  0.10975396132E+03 -0.19307355836E+03  0.26646153742E+03  0.38688854434E+03  0.17134078281E+03 0.  0.
        -24    2    5    5    0    0  0.58783323740E+02 -0.14984556583E+03  0.97889031675E+02  0.20548996406E+03  0.82065157406E+02 0.  0.
          5    1    3    3  501    0 -0.93114476325E+02  0.15110607240E+03  0.62278642477E+02  0.18815969315E+03  0.47000000000E+01 0. -1.
        -13    1    4    4    0    0 -0.31018254370E+02 -0.16754357769E+02  0.17954840311E+01  0.35299636985E+02  0.00000000000E+00 0.  1.
         14    1    4    4    0    0  0.14378769379E+02  0.58721843733E+02 -0.76658354797E+01  0.60940700471E+02  0.00000000000E+00 0. -1.
         -5    1    5    5    0  502  0.50970637576E+02 -0.43227992534E+02  0.16857250574E+03  0.18139858027E+03  0.47000000000E+01 0.  1.
         13    1    6    6    0    0  0.69818392769E+02 -0.13377731599E+03  0.10596595798E+03  0.18439024511E+03  0.00000000000E+00 0. -1.
        -14    1    6    6    0    0 -0.11035069029E+02 -0.16068249840E+02 -0.80769263024E+01  0.21099718953E+02  0.00000000000E+00 0.  1.
</event>
<event>
12    1  0.8563264E-002  0.1921198E+03  0.7818608E-02  0.1156843E+00
         21   -1    0    0  503  502  0.00000000000E+00  0.00000000000E+00  0.43486167667E+03  0.43486167667E+03  0.00000000000E+00 0.  1.
         21   -1    0    0  501  503 -0.00000000000E+00 -0.00000000000E+00 -0.86374047823E+02  0.86374047823E+02  0.00000000000E+00 0. -1.
          6    2    1    2  501    0 -0.52821381186E+02  0.66566839733E+02  0.13353337337E+03  0.23293841008E+03  0.17090318496E+03 0.  0.
         24    2    3    3    0    0 -0.48267159241E+02  0.43762900831E+02  0.60125678659E+01  0.10322948055E+03  0.79845253654E+02 0.  0.
         -6    2    1    2    0  502  0.52821381186E+02 -0.66566839733E+02  0.21495425549E+03  0.28829731441E+03  0.17230428632E+03 0.  0.
        -24    2    5    5    0    0  0.18305742529E+02 -0.80254473386E+02  0.60597755711E+02  0.12946816202E+03  0.79460910337E+02 0.  0.
          5    1    3    3  501    0 -0.45542219447E+01  0.22803938902E+02  0.12752080550E+03  0.12970892954E+03  0.47000000000E+01 0. -1.
        -13    1    4    4    0    0  0.16868584535E+01 -0.17812148114E+02 -0.12476526554E+02  0.21812423679E+02  0.00000000000E+00 0.  1.
         14    1    4    4    0    0 -0.49954017695E+02  0.61575048945E+02  0.18489094420E+02  0.81417056867E+02  0.00000000000E+00 0. -1.
         -5    1    5    5    0  502  0.34515638657E+02  0.13687633652E+02  0.15435649977E+03  0.15882915239E+03  0.47000000000E+01 0.  1.
         11    1    6    6    0    0  0.38629346621E+02 -0.87302571264E+01  0.15655488194E+02  0.42585656276E+02  0.00000000000E+00 0. -1.
        -12    1    6    6    0    0 -0.20323604092E+02 -0.71524216259E+02  0.44942267517E+02  0.86882505744E+02  0.00000000000E+00 0.  1.
</event>
<event>
12    1  0.8563264E-002  0.2591585E+03  0.7818608E-02  0.1107688E+00
         21   -1    0    0  503  502  0.00000000000E+00  0.00000000000E+00  0.74561083492E+02  0.74561083492E+02  0.00000000000E+00 0. -1.
         21   -1    0    0  501  503 -0.00000000000E+00 -0.00000000000E+00 -0.22768232028E+04  0.22768232028E+04  0.00000000000E+00 0. -1.
          6    2    1    2  501    0  0.11262652361E+03  0.15736931197E+03 -0.20156325819E+04  0.20322248532E+04  0.17237550416E+03 0.  0.
         24    2    3    3    0    0  0.90222198012E+01  0.10245652243E+02 -0.63675623239E+03  0.64164896517E+03  0.77900713626E+02 0.  0.
         -6    2    1    2    0  502 -0.11262652361E+03 -0.15736931197E+03 -0.18662953738E+03  0.31915943310E+03  0.17199513175E+03 0.  0.
        -24    2    5    5    0    0 -0.21949790305E+02 -0.94705399996E+02 -0.33360903190E+02  0.13031452305E+03  0.80112539421E+02 0.  0.
          5    1    3    3  501    0  0.10360430381E+03  0.14712365973E+03 -0.13788763495E+04  0.13905758880E+04  0.47000000000E+01 0. -1.
        -11    1    4    4    0    0 -0.28915205187E+02  0.25154360149E+02 -0.30708824426E+03  0.30947054898E+03  0.00000000000E+00 0.  1.
         12    1    4    4    0    0  0.37937424989E+02 -0.14908707906E+02 -0.32966798813E+03  0.33217841619E+03  0.00000000000E+00 0. -1.
         -5    1    5    5    0  502 -0.90676733303E+02 -0.62663911974E+02 -0.15326863419E+03  0.18884491006E+03  0.47000000000E+01 0.  1.
         11    1    6    6    0    0 -0.49294466607E+02 -0.54651051439E+02 -0.41856908195E+01  0.73717039205E+02  0.00000000000E+00 0. -1.
        -12    1    6    6    0    0  0.27344676302E+02 -0.40054348557E+02 -0.29175212371E+02  0.56597483842E+02  0.00000000000E+00 0.  1.
</event>
<event>
12    1  0.8563264E-002  0.2526978E+03  0.7818608E-02  0.1112342E+00
         21   -1    0    0  501  502  0.00000000000E+00  0.00000000000E+00  0.20201961997E+03  0.20201961997E+03  0.00000000000E+00 0.  1.
         21   -1    0    0  502  503 -0.00000000000E+00 -0.00000000000E+00 -0.36310674446E+03  0.36310674446E+03  0.00000000000E+00 0.  1.
         -6    2    1    2    0  503  0.16023649937E+03 -0.92873201471E+02 -0.18892103611E+03  0.31551126499E+03  0.17191577346E+03 0.  0.
        -24    2    3    3    0    0  0.25880905666E+02  0.37833754053E+01 -0.46473031893E+02  0.97090928664E+02  0.81134274681E+02 0.  0.
          6    2    1    2  501    0 -0.16023649937E+03  0.92873201471E+02  0.27833911624E+02  0.24961509944E+03  0.16502061674E+03 0.  0.
         24    2    5    5    0    0 -0.13775792489E+03  0.12219446044E+03 -0.50747756972E+01  0.19991505679E+03  0.77663019207E+02 0.  0.
          5    1    5    5  501    0 -0.22478574487E+02 -0.29321258967E+02  0.32908687321E+02  0.49700042652E+02  0.47000000000E+01 0. -1.
        -13    1    6    6    0    0 -0.10783827735E+03  0.44894520234E+02 -0.68115829003E+01  0.11700858802E+03  0.00000000000E+00 0.  1.
         14    1    6    6    0    0 -0.29919647532E+02  0.77299940204E+02  0.17368072032E+01  0.82906468766E+02  0.00000000000E+00 0. -1.
         -5    1    3    3    0  503  0.13435559371E+03 -0.96656576876E+02 -0.14244800422E+03  0.21842033632E+03  0.47000000000E+01 0.  1.
         11    1    4    4    0    0 -0.15735687126E+02  0.13232022962E+01 -0.52631368195E+02  0.54949282358E+02  0.00000000000E+00 0. -1.
        -12    1    4    4    0    0  0.41616592792E+02  0.24601731091E+01  0.61583363017E+01  0.42141646305E+02  0.00000000000E+00 0.  1.
</event>
<event>
12    1  0.8563264E-002  0.2887660E+03  0.7818608E-02  0.1091082E+00
         21   -1    0    0  503  502  0.00000000000E+00  0.00000000000E+00  0.32863170241E+03  0.32863170241E+03  0.00000000000E+00 0.  1.
         21   -1    0    0  501  503 -0.00000000000E+00 -0.00000000000E+00 -0.54096966958E+03  0.54096966958E+03  0.00000000000E+00 0.  1.
          6    2    1    2  501    0 -0.12463851324E+03  0.19528366786E+03  0.21103343859E+03  0.35712780519E+03  0.17127371987E+03 0.  0.
         24    2    3    3    0    0 -0.10251708534E+03  0.21941802295E+03  0.18613053452E+03  0.31572648518E+03  0.79903792024E+02 0.  0.
         -6    2    1    2    0  502  0.12463851324E+03 -0.19528366786E+03 -0.42337140577E+03  0.51247356680E+03  0.17238137814E+03 0.  0.
        -24    2    5    5    0    0  0.12446324259E+03 -0.20621641770E+03 -0.42960686953E+03  0.49903754257E+03  0.80374727721E+02 0.  0.
          5    1    3    3  501    0 -0.22121427901E+02 -0.24134355083E+02  0.24902904073E+02  0.41401320014E+02  0.47000000000E+01 0. -1.
        -13    1    4    4    0    0  0.10783652251E+02  0.21057597890E+02  0.33417790760E+02  0.40944576247E+02  0.00000000000E+00 0.  1.
         14    1    4    4    0    0 -0.11330073759E+03  0.19836042506E+03  0.15271274376E+03  0.27478190893E+03  0.00000000000E+00 0. -1.
         -5    1    5    5    0  502  0.17527065196E+00  0.10932749838E+02  0.62354637652E+01  0.13436024233E+02  0.47000000000E+01 0.  1.
         11    1    6    6    0    0  0.41886928158E+02 -0.14550536681E+03 -0.25887311404E+03  0.29990267704E+03  0.00000000000E+00 0. -1.
        -12    1    6    6    0    0  0.82576314433E+02 -0.60711050898E+02 -0.17073375549E+03  0.19913486553E+03  0.00000000000E+00 0.  1.
</event>
<event>
12    1  0.8563264E-002  0.3967769E+03  0.7818608E-02  0.1044941E+00
         21   -1    0    0  501  502  0.00000000000E+00  0.00000000000E+00  0.62895305087E+03  0.62895305087E+03  0.00000000000E+00 0.  1.
         21   -1    0    0  502  503 -0.00000000000E+00 -0.00000000000E+00 -0.33839376610E+03  0.33839376610E+03  0.00000000000E+00 0.  1.
         -6    2    1    2    0  503 -0.31943754506E+03 -0.16081251012E+03 -0.10182792269E+03  0.40963499024E+03  0.17184554338E+03 0.  0.
        -24    2    3    3    0    0 -0.30061838863E+03 -0.18805489081E+03 -0.89574929674E+02  0.37401850821E+03  0.78295075946E+02 0.  0.
          6    2    1    2  501    0  0.31943754506E+03  0.16081251012E+03  0.39238720747E+03  0.55771182672E+03  0.17080325664E+03 0.  0.
         24    2    5    5    0    0  0.15578080094E+03  0.15299361052E+03  0.22928767996E+03  0.32647988481E+03  0.79633989001E+02 0.  0.
          5    1    5    5  501    0  0.16365674412E+03  0.78188996034E+01  0.16309952750E+03  0.23123194191E+03  0.47000000000E+01 0. -1.
        -11    1    6    6    0    0  0.16237992568E+03  0.13596064196E+03  0.22198968955E+03  0.30680931976E+03  0.00000000000E+00 0.  1.
         12    1    6    6    0    0 -0.65991247430E+01  0.17032968563E+02  0.72979904138E+01  0.19670565054E+02  0.00000000000E+00 0. -1.
         -5    1    3    3    0  503 -0.18819156432E+02  0.27242380685E+02 -0.12252993019E+02  0.35616482029E+02  0.47000000000E+01 0.  1.
         13    1    4    4    0    0 -0.11253779297E+02 -0.30991473982E+02 -0.64839911352E+00  0.32977862718E+02  0.00000000000E+00 0. -1.
        -14    1    4    4    0    0 -0.28936460933E+03 -0.15706341683E+03 -0.88926530561E+02  0.34104064549E+03  0.00000000000E+00 0.  1.
</event>
<event>
12    1  0.8563264E-002  0.2268098E+03  0.7818608E-02  0.1128993E+00
         21   -1    0    0  501  502  0.00000000000E+00  0.00000000000E+00  0.71136520620E+03  0.71136520620E+03  0.00000000000E+00 0. -1.
         21   -1    0    0  502  503 -0.00000000000E+00 -0.00000000000E+00 -0.31555398593E+03  0.31555398593E+03  0.00000000000E+00 0.  1.
         -6    2    1    2    0  503 -0.14392090331E+03 -0.31365713366E+02 -0.25299191232E+03  0.33977580532E+03  0.17246928943E+03 0.  0.
        -24    2    3    3    0    0 -0.34924465589E+02  0.48251049206E+01 -0.41908333423E+02  0.99425298675E+02  0.82982417849E+02 0.  0.
          6    2    1    2  501    0  0.14392090331E+03  0.31365713366E+02  0.64880313259E+03  0.68714338682E+03  0.17182402279E+03 0.  0.
         24    2    5    5    0    0  0.81292136749E+02  0.46546308072E+02  0.20652841246E+03  0.24017377832E+03  0.79085323208E+02 0.  0.
          5    1    5    5  501    0  0.62628766559E+02 -0.15180594706E+02  0.44227472013E+03  0.44696960850E+03  0.47000000000E+01 0. -1.
        -13    1    6    6    0    0  0.90293266758E+02  0.31764297585E+02  0.19991191596E+03  0.22164525433E+03  0.00000000000E+00 0.  1.
         14    1    6    6    0    0 -0.90011300095E+01  0.14782010487E+02  0.66164965034E+01  0.18528523996E+02  0.00000000000E+00 0. -1.
         -5    1    3    3    0  503 -0.10899643772E+03 -0.36190818286E+02 -0.21108357890E+03  0.24035050664E+03  0.47000000000E+01 0.  1.
         11    1    4    4    0    0 -0.32104875717E+02  0.41129837630E+02 -0.15456591038E+02  0.54417761758E+02  0.00000000000E+00 0. -1.
        -12    1    4    4    0    0 -0.28195898722E+01 -0.36304732709E+02 -0.26451742385E+02  0.45007536917E+02  0.00000000000E+00 0.  1.
</event>
<event>
12    1  0.8563264E-002  0.1905833E+03  0.7818608E-02  0.1158515E+00
         21   -1    0    0  501  502  0.00000000000E+00  0.00000000000E+00  0.32969689277E+03  0.32969689277E+03  0.00000000000E+00 0. -1.
         21   -1    0    0  502  503 -0.00000000000E+00 -0.00000000000E+00 -0.11286082320E+03  0.11286082320E+03  0.00000000000E+00 0. -1.
         -6    2    1    2    0  503 -0.57791706352E+02  0.52198809909E+02  0.66607930923E+02  0.20188762914E+03  0.17394654713E+03 0.  0.
        -24    2    3    3    0    0 -0.89438855569E+02 -0.13733471492E+02  0.54357357596E+02  0.12758571577E+03  0.71662231464E+02 0.  0.
          6    2    1    2  501    0  0.57791706352E+02 -0.52198809909E+02  0.15022813864E+03  0.24067008683E+03  0.17114029326E+03 0.  0.
         24    2    5    5    0    0 -0.18423855215E+02 -0.71759535706E+02  0.88474398694E+02  0.14053493708E+03  0.80208976486E+02 0.  0.
          5    1    5    5  501    0  0.76215561567E+02  0.19560725797E+02  0.61753739947E+02  0.10013514975E+03  0.47000000000E+01 0. -1.
        -11    1    6    6    0    0 -0.27265840692E+02 -0.89209696932E+01  0.68084950465E+02  0.73882137548E+02  0.00000000000E+00 0.  1.
         12    1    6    6    0    0  0.88419854772E+01 -0.62838566013E+02  0.20389448229E+02  0.66652799527E+02  0.00000000000E+00 0. -1.
         -5    1    3    3    0  503  0.31647149217E+02  0.65932281401E+02  0.12250573327E+02  0.74301913375E+02  0.47000000000E+01 0.  1.
         11    1    4    4    0    0 -0.14270555472E+02 -0.34470453225E+02  0.14642746689E+02  0.40078309964E+02  0.00000000000E+00 0. -1.
        -12    1    4    4    0    0 -0.75168300097E+02  0.20736981733E+02  0.39714610907E+02  0.87507405803E+02  0.00000000000E+00 0.  1.
</event>
<event>
12    1  0.8563264E-002  0.1797983E+03  0.7818608E-02  0.1168768E+00
         21   -1    0    0  503  502  0.00000000000E+00  0.00000000000E+00  0.66788594985E+02  0.66788594985E+02  0.00000000000E+00 0. -1.
         21   -1    0    0  501  503 -0.00000000000E+00 -0.00000000000E+00 -0.11407522690E+04  0.11407522690E+04  0.00000000000E+00 0. -1.
          6    2    1    2  501    0 -0.35629827357E+02 -0.27010176452E+02 -0.99603863655E+03  0.10115823271E+04  0.17089998476E+03 0.  0.
         24    2    3    3    0    0  0.84302248787E+01 -0.70723598711E+02 -0.51274768777E+03  0.52429967540E+03  0.83108737212E+02 0.  0.
         -6    2    1    2    0  502  0.35629827357E+02  0.27010176452E+02 -0.77925037476E+02  0.19595853689E+03  0.17415051675E+03 0.  0.
        -24    2    5    5    0    0  0.44495975535E+02  0.13229030920E+02  0.20765729583E+02  0.95806222593E+02  0.81195552000E+02 0.  0.
          5    1    3    3  501    0 -0.44060052236E+02  0.43713422260E+02 -0.48329094878E+03  0.48728265171E+03  0.47000000000E+01 0. -1.
        -13    1    4    4    0    0 -0.91604898265E+01  0.78739327282E+01 -0.11689465000E+02  0.16809431354E+02  0.00000000000E+00 0.  1.
         14    1    4    4    0    0  0.17590714705E+02 -0.78597531439E+02 -0.50105822277E+03  0.50749024404E+03  0.00000000000E+00 0. -1.
         -5    1    5    5    0  502 -0.88661481774E+01  0.13781145531E+02 -0.98690767059E+02  0.10015231429E+03  0.47000000000E+01 0.  1.
         13    1    6    6    0    0  0.21721233443E+02  0.46211368243E+02  0.22246359535E+02  0.55697424086E+02  0.00000000000E+00 0. -1.
        -14    1    6    6    0    0  0.22774742092E+02 -0.32982337323E+02 -0.14806299523E+01  0.40108798508E+02  0.00000000000E+00 0.  1.
</event>
<event>
12    1  0.8563264E-002  0.2423093E+03  0.7818608E-02  0.1118282E+00
         21   -1    0    0  501  502  0.00000000000E+00  0.00000000000E+00  0.74895294663E+03  0.74895294663E+03  0.00000000000E+00 0.  1.
         21   -1    0    0  502  503 -0.00000000000E+00 -0.00000000000E+00 -0.80887873987E+02  0.80887873987E+02  0.00000000000E+00 0.  1.
         -6    2    1    2    0  503 -0.39643017427E+02  0.16592621900E+03  0.26060702845E+03  0.35577767234E+03  0.17192629198E+03 0.  0.
        -24    2    3    3    0    0  0.30298354349E+02  0.12084375618E+03  0.21065067182E+03  0.25860796766E+03  0.83565373883E+02 0.  0.
          6    2    1    2  501    0  0.39643017427E+02 -0.16592621900E+03  0.40745804419E+03  0.47406314828E+03  0.17207769115E+03 0.  0.
         24    2    5    5    0    0  0.39306170392E+02 -0.19097046201E+03  0.32407751705E+03  0.38687524843E+03  0.81434196723E+02 0.  0.
          5    1    5    5  501    0  0.33684703500E+00  0.25044243008E+02  0.83380527140E+02  0.87187899848E+02  0.47000000000E+01 0. -1.
        -13    1    6    6    0    0  0.68747493291E+01 -0.58099551072E+02  0.37940017044E+02  0.69729942682E+02  0.00000000000E+00 0.  1.
         14    1    6    6    0    0  0.32431421063E+02 -0.13287091094E+03  0.28613750001E+03  0.31714530575E+03  0.00000000000E+00 0. -1.
         -5    1    3    3    0  503 -0.69941371776E+02  0.45082462825E+02  0.49956356621E+02  0.97169704677E+02  0.47000000000E+01 0.  1.
         11    1    4    4    0    0  0.27747544657E+02  0.42582992137E+00  0.25250408143E+02  0.37519204109E+02  0.00000000000E+00 0. -1.
        -12    1    4    4    0    0  0.25508096925E+01  0.12041792626E+03  0.18540026368E+03  0.22108876355E+03  0.00000000000E+00 0.  1.
</event>
<event>
12    1  0.8563264E-002  0.3600294E+03  0.7818608E-02  0.1058607E+00
         21   -1    0    0  501  502  0.00000000000E+00  0.00000000000E+00  0.17220472731E+04  0.17220472731E+04  0.00000000000E+00 0. -1.
         21   -1    0    0  502  503 -0.00000000000E+00 -0.00000000000E+00 -0.12362772845E+03  0.12362772845E+03  0.00000000000E+00 0.  1.
         -6    2    1    2    0  503  0.28447231303E+03 -0.13739332557E+03  0.22137273412E+03  0.42234119914E+03  0.17194411386E+03 0.  0.
        -24    2    3    3    0    0  0.23872884083E+03 -0.15852158237E+03  0.22309633156E+03  0.37170594193E+03  0.79200900157E+02 0.  0.
          6    2    1    2  501    0 -0.28447231303E+03  0.13739332557E+03  0.13770468106E+04  0.14233338025E+04  0.17268402337E+03 0.  0.
         24    2    5    5    0    0 -0.16176587374E+03  0.11886718950E+02  0.79660507850E+03  0.81691524001E+03  0.80382624251E+02 0.  0.
          5    1    5    5  501    0 -0.12270643929E+03  0.12550660662E+03  0.58044173208E+03  0.60641856245E+03  0.47000000000E+01 0. -1.
        -13    1    6    6    0    0 -0.83036840417E+02 -0.16454345211E+02  0.25000429322E+03  0.26394698136E+03  0.00000000000E+00 0.  1.
         14    1    6    6    0    0 -0.78729033321E+02  0.28341064161E+02  0.54660078528E+03  0.55296825865E+03  0.00000000000E+00 0. -1.
         -5    1    3    3    0  503  0.45743472195E+02  0.21128256808E+02 -0.17235974487E+01  0.50635257206E+02  0.47000000000E+01 0.  1.
         13    1    4    4    0    0  0.61450199871E+02 -0.79927264788E+02  0.10008431307E+03  0.14206112925E+03  0.00000000000E+00 0. -1.
        -14    1    4    4    0    0  0.17727864096E+03 -0.78594317586E+02  0.12301201849E+03  0.22964481268E+03  0.00000000000E+00 0.  1.
</event>
<event>
12    1  0.8563264E-002  0.2024284E+03  0.7818608E-02  0.1148781E+00
         21   -1    0    0  503  502  0.00000000000E+00  0.00000000000E+00  0.90691040885E+02  0.90691040885E+02  0.00000000000E+00 0.  1.
         21   -1    0    0  501  503 -0.00000000000E+00 -0.00000000000E+00 -0.47494076718E+03  0.47494076718E+03  0.00000000000E+00 0. -1.
          6    2    1    2  501    0  0.20326794264E+02  0.98661764384E+02 -0.26599021613E+03  0.33119081109E+03  0.16967391065E+03 0.  0.
         24    2    3    3    0    0  0.55002398368E+02  0.67977909533E+02 -0.25719466593E+03  0.28382681451E+03  0.82233231988E+02 0.  0.
         -6    2    1    2    0  502 -0.20326794264E+02 -0.98661764384E+02 -0.11825951017E+03  0.23444099698E+03  0.17558458646E+03 0.  0.
        -24    2    5    5    0    0  0.38303208750E+02 -0.82483414759E+02 -0.24526089260E+02  0.12260513312E+03  0.78484648833E+02 0.  0.
          5    1    3    3  501    0 -0.34675604104E+02  0.30683854851E+02 -0.87955502055E+01  0.47363996579E+02  0.47000000000E+01 0. -1.
        -11    1    4    4    0    0  0.50506602670E+01  0.35374422353E+02 -0.23808615962E+02  0.42938434065E+02  0.00000000000E+00 0.  1.
         12    1    4    4    0    0  0.49951738101E+02  0.32603487181E+02 -0.23338604996E+03  0.24088838044E+03  0.00000000000E+00 0. -1.
         -5    1    5    5    0  502 -0.58630003014E+02 -0.16178349626E+02 -0.93733420907E+02  0.11183586386E+03  0.47000000000E+01 0.  1.
         13    1    6    6    0    0  0.43586099694E+02 -0.50379683841E+02 -0.48320973062E+02  0.82296883709E+02  0.00000000000E+00 0. -1.
        -14    1    6    6    0    0 -0.52828909440E+01 -0.32103730918E+02  0.23794883802E+02  0.40308249413E+02  0.00000000000E+00 0.  1.
</event>
<event>
12    1  0.8563264E-002  0.1860496E+03  0.7818608E-02  0.1162130E+00
         21   -1    0    0  503  502  0.00000000000E+00  0.00000000000E+00  0.81477229523E+02  0.81477229523E+02  0.00000000000E+00 0. -1.
         21   -1    0    0  501  503 -0.00000000000E+00 -0.00000000000E+00 -0.55758237512E+03  0.55758237512E+03  0.00000000000E+00 0. -1.
          6    2    1    2  501    0 -0.49830570101E+02 -0.50932505216E+02 -0.39417014600E+03  0.43576721393E+03  0.17159765422E+03 0.  0.
         24    2    3    3    0    0 -0.69212611509E+02 -0.91156935658E+02 -0.32185353767E+03  0.35064700379E+03  0.79143218582E+02 0.  0.
         -6    2    1    2    0  502  0.49830570101E+02  0.50932505216E+02 -0.81934999596E+02  0.20329239071E+03  0.17186403393E+03 0.  0.
        -24    2    5    5    0    0  0.29673410436E+02  0.62878021846E+02  0.12166905579E+02  0.10620343660E+03  0.79353509284E+02 0.  0.
          5    1    3    3  501    0  0.19382041408E+02  0.40224430443E+02 -0.72316608339E+02  0.85120210146E+02  0.47000000000E+01 0. -1.
        -13    1    4    4    0    0 -0.77175828149E+01  0.26775253646E+01 -0.11532417659E+03  0.11561313045E+03  0.00000000000E+00 0.  1.
         14    1    4    4    0    0 -0.61495028694E+02 -0.93834461023E+02 -0.20652936108E+03  0.23503387334E+03  0.00000000000E+00 0. -1.
         -5    1    5    5    0  502  0.20157159665E+02 -0.11945516630E+02 -0.94101905175E+02  0.97088954113E+02  0.47000000000E+01 0.  1.
         11    1    6    6    0    0 -0.22410800380E+02  0.44200850775E+02  0.36630484683E-01  0.49557648498E+02  0.00000000000E+00 0. -1.
        -12    1    6    6    0    0  0.52084210816E+02  0.18677171071E+02  0.12130275094E+02  0.56645788100E+02  0.00000000000E+00 0.  1.
</event>
<event>
12    1  0.8563264E-002  0.1761048E+03  0.7818608E-02  0.1171954E+00
         21   -1    0    0  503  502  0.00000000000E+00  0.00000000000E+00  0.15679518910E+03  0.15679518910E+03  0.00000000000E+00 0. -1.
         21   -1    0    0  501  503 -0.00000000000E+00 -0.00000000000E+00 -0.37915288839E+03  0.37915288839E+03  0.00000000000E+00 0. -1.
          6    2    1    2  501    0 -0.30111237690E+02  0.28764999465E+02 -0.29704625623E+03  0.34465955764E+03  0.16976342511E+03 0.  0.
         24    2    3    3    0    0 -0.69859914606E+02 -0.21084928424E+02 -0.20688967490E+03  0.23413683697E+03  0.81803049893E+02 0.  0.
         -6    2    1    2    0  502  0.30111237690E+02 -0.28764999465E+02  0.74688556934E+02  0.19128851986E+03  0.17111050658E+03 0.  0.
        -24    2    5    5    0    0  0.28518500123E+02 -0.26378655428E+02 -0.24481746765E+02  0.91965458151E+02  0.79681561585E+02 0.  0.
          5    1    3    3  501    0  0.39748676916E+02  0.49849927889E+02 -0.90156581326E+02  0.11052272067E+03  0.47000000000E+01 0. -1.
        -13    1    4    4    0    0 -0.13650411685E+02 -0.30963020515E+02 -0.14919445954E+03  0.15298375448E+03  0.00000000000E+00 0.  1.
         14    1    4    4    0    0 -0.56209502922E+02  0.98780920911E+01 -0.57695215362E+02  0.81153082491E+02  0.00000000000E+00 0. -1.
         -5    1    5    5    0  502  0.15927375667E+01 -0.23863440372E+01  0.99170303699E+02  0.99323061706E+02  0.47000000000E+01 0.  1.
         13    1    6    6    0    0 -0.90134965804E+01 -0.45452094602E+02 -0.15979303785E+02  0.49015040281E+02  0.00000000000E+00 0. -1.
        -14    1    6    6    0    0  0.37531996704E+02  0.19073439174E+02 -0.85024429799E+01  0.42950417869E+02  0.00000000000E+00 0.  1.
</event>
<event>
12    1  0.8563264E-002  0.1743478E+03  0.7818608E-02  0.1173408E+00
         21   -1    0    0  503  502  0.00000000000E+00  0.00000000000E+00  0.28726400057E+03  0.28726400057E+03  0.00000000000E+00 0.  1.
         21   -1    0    0  501  503 -0.00000000000E+00 -0.00000000000E+00 -0.19522793432E+03  0.19522793432E+03  0.00000000000E+00 0. -1.
          6    2    1    2  501    0 -0.52115029778E+01 -0.30192310036E+02 -0.11728287808E+03  0.21012481568E+03  0.17163458079E+03 0.  0.
         24    2    3    3    0    0  0.33593295299E+02 -0.39537800267E+02 -0.13608182171E+03  0.16575544744E+03  0.79150862389E+02 0.  0.
         -6    2    1    2    0  502  0.52115029778E+01  0.30192310036E+02  0.20931894434E+03  0.27236711921E+03  0.17155375782E+03 0.  0.
        -24    2    5    5    0    0 -0.61763579641E+02  0.63143793224E+01  0.12620697407E+03  0.16288877949E+03  0.82158036874E+02 0.  0.
          5    1    3    3  501    0 -0.38804798276E+02  0.93454902310E+01  0.18798943624E+02  0.44369368243E+02  0.47000000000E+01 0. -1.
        -11    1    4    4    0    0  0.21760513579E+02 -0.49863140296E+02 -0.37848892128E+02  0.66275118610E+02  0.00000000000E+00 0.  1.
         12    1    4    4    0    0  0.11832781719E+02  0.10325340029E+02 -0.98232929577E+02  0.99480328826E+02  0.00000000000E+00 0. -1.
         -5    1    5    5    0  502  0.66975082619E+02  0.23877930713E+02  0.83111970272E+02  0.10947833973E+03  0.47000000000E+01 0.  1.
         11    1    6    6    0    0  0.11763412104E+02 -0.21253823484E+02  0.26051356089E+02  0.35619882525E+02  0.00000000000E+00 0. -1.
        -12    1    6    6    0    0 -0.73526991745E+02  0.27568202806E+02  0.10015561798E+03  0.12726889696E+03  0.00000000000E+00 0.  1.
</event>
<event>
12    1  0.8563264E-002  0.3085133E+03  0.7818608E-02  0.1081070E+00
         21   -1    0    0  501  502  0.00000000000E+00  0.00000000000E+00  0.10408967440E+04  0.10408967440E+04  0.00000000000E+00 0.  1.
         21   -1    0    0  502  503 -0.00000000000E+00 -0.00000000000E+00 -0.91610795930E+02  0.91610795930E+02  0.00000000000E+00 0. -1.
         -6    2    1    2    0  503  0.97764238949E+02  0.23711924361E+03  0.44864086887E+03  0.54448058530E+03  0.17145581483E+03 0.  0.
        -24    2    3    3    0    0 -0.14114986723E+02  0.73251165574E+02  0.15869370063E+03  0.19311018458E+03  0.80888111970E+02 0.  0.
          6    2    1    2  501    0 -0.97764238949E+02 -0.23711924361E+03  0.50064507916E+03  0.58802695459E+03  0.17130914139E+03 0.  0.
         24    2    5    5    0    0 -0.58743210412E+02 -0.52754022942E+02  0.25515311821E+03  0.27850867055E+03  0.78931705507E+02 0.  0.
          5    1    5    5  501    0 -0.39021028537E+02 -0.18436522067E+03  0.24549196096E+03  0.30951828404E+03  0.47000000000E+01 0. -1.
        -13    1    6    6    0    0 -0.56474040793E+02 -0.29627683724E+02  0.82383206592E+02  0.10418305839E+03  0.00000000000E+00 0.  1.
         14    1    6    6    0    0 -0.22691696190E+01 -0.23126339217E+02  0.17276991162E+03  0.17432561216E+03  0.00000000000E+00 0. -1.
         -5    1    3    3    0  503  0.11187922567E+03  0.16386807804E+03  0.28994716823E+03  0.35137040072E+03  0.47000000000E+01 0.  1.
         13    1    4    4    0    0  0.42645650428E+01  0.83861392068E+02  0.14587639560E+03  0.16831768293E+03  0.00000000000E+00 0. -1.
        -14    1    4    4    0    0 -0.18379551766E+02 -0.10610226494E+02  0.12817305031E+02  0.24792501641E+02  0.00000000000E+00 0.  1.
</event>
<event>
12    1  0.8563264E-002  0.1765957E+03  0.7818608E-02  0.1172630E+00
         21   -1    0    0  503  502  0.00000000000E+00  0.00000000000E+00  0.15378510324E+03  0.15378510324E+03  0.00000000000E+00 0.  1.
         21   -1    0    0  501  503 -0.00000000000E+00 -0.00000000000E+00 -0.21639281796E+03  0.21639281796E+03  0.00000000000E+00 0.  1.
          6    2    1    2  501    0  0.63648384764E+00  0.41053650292E+02 -0.88499127094E+02  0.19753004846E+03  0.17175627277E+03 0.  0.
         24    2    3    3    0    0 -0.40791690317E+02  0.48663148413E+02 -0.11008453581E+03  0.14996726947E+03  0.79621057979E+02 0.  0.
         -6    2    1    2    0  502 -0.63648384764E+00 -0.41053650292E+02  0.25891412368E+02  0.17264787273E+03  0.16568378138E+03 0.  0.
        -24    2    5    5    0    0 -0.35016692720E+02 -0.46046837520E+02 -0.33465937889E+02  0.10371083109E+03  0.79306288985E+02 0.  0.
          5    1    3    3  501    0  0.41428174164E+02 -0.76094981211E+01  0.21585408720E+02  0.47562778996E+02  0.47000000000E+01 0. -1.
        -13    1    4    4    0    0 -0.54476130693E+02  0.52740933549E+02 -0.56626809469E+02  0.94635355113E+02  0.00000000000E+00 0.  1.
         14    1    4    4    0    0  0.13684440376E+02 -0.40777851358E+01 -0.53457726346E+02  0.55331914354E+02  0.00000000000E+00 0. -1.
         -5    1    5    5    0  502  0.34380208873E+02  0.49931872282E+01  0.59357350257E+02  0.68937041642E+02  0.47000000000E+01 0.  1.
         11    1    6    6    0    0 -0.22534722166E+02 -0.56706192024E+02  0.56597020383E+01  0.61281629744E+02  0.00000000000E+00 0. -1.
        -12    1    6    6    0    0 -0.12481970554E+02  0.10659354504E+02 -0.39125639927E+02  0.42429201348E+02  0.00000000000E+00 0.  1.
</event>
<event>
12    1  0.8563264E-002  0.1754693E+03  0.7818608E-02  0.1173199E+00
         21   -1    0    0  501  502  0.00000000000E+00  0.00000000000E+00  0.52602398386E+03  0.52602398386E+03  0.00000000000E+00 0. -1.
         21   -1    0    0  502  503 -0.00000000000E+00 -0.00000000000E+00 -0.57311471072E+02  0.57311471072E+02  0.00000000000E+00 0. -1.
         -6    2    1    2    0  503  0.43931262464E+01  0.16387017158E+02  0.22839183610E+03  0.28577282852E+03  0.17092526095E+03 0.  0.
        -24    2    3    3    0    0 -0.36402444122E+02 -0.42411319688E+02  0.15679826716E+03  0.18443551016E+03  0.79416011285E+02 0.  0.
          6    2    1    2  501    0 -0.43931262464E+01 -0.16387017158E+02  0.24032067669E+03  0.29756262642E+03  0.17464723046E+03 0.  0.
         24    2    5    5    0    0 -0.32809281633E+02  0.35499988948E+01  0.24758889025E+03  0.26178722391E+03  0.78378827345E+02 0.  0.
          5    1    5    5  501    0  0.28416155387E+02 -0.19937016053E+02 -0.72682135600E+01  0.35775402505E+02  0.47000000000E+01 0. -1.
        -11    1    6    6    0    0  0.15168528279E+02 -0.23944822175E+02  0.10764119051E+03  0.11131066729E+03  0.00000000000E+00 0.  1.
         12    1    6    6    0    0 -0.47977809912E+02  0.27494821070E+02  0.13994769975E+03  0.15047655663E+03  0.00000000000E+00 0. -1.
         -5    1    3    3    0  503  0.40795570369E+02  0.58798336845E+02  0.71593568939E+02  0.10133731835E+03  0.47000000000E+01 0.  1.
         11    1    4    4    0    0 -0.51500929547E+02  0.17826234457E+00  0.92066204677E+02  0.10549200712E+03  0.00000000000E+00 0. -1.
        -12    1    4    4    0    0  0.15098485425E+02 -0.42589582032E+02  0.64732062484E+02  0.78943503046E+02  0.00000000000E+00 0.  1.
</event>
<event>
12    1  0.8563264E-002  0.1845924E+03  0.7818608E-02  0.1164190E+00
         21   -1    0    0  501  502  0.00000000000E+00  0.00000000000E+00  0.10053735919E+04  0.10053735919E+04  0.00000000000E+00 0.  1.
         21   -1    0    0  502  503 -0.00000000000E+00 -0.00000000000E+00 -0.77691944690E+02  0.77691944690E+02  0.00000000000E+00 0.  1.
         -6    2    1    2    0  503  0.65478091077E+02 -0.21261934907E+02  0.56272283459E+02  0.19297905788E+03  0.17127433143E+03 0.  0.
        -24    2    3    3    0    0 -0.18648002078E+02 -0.86540801233E+01 -0.90214814286E+01  0.85640699006E+02  0.82645635788E+02 0.  0.
          6    2    1    2  501    0 -0.65478091077E+02  0.21261934907E+02  0.87140936379E+03  0.89008647876E+03  0.16781004163E+03 0.  0.
         24    2    5    5    0    0 -0.10634175542E+03  0.35157591717E+02  0.76596246698E+03  0.77605110534E+03  0.54883440870E+02 0.  0.
          5    1    5    5  501    0  0.40863664345E+02 -0.13895656810E+02  0.10544689682E+03  0.11403537342E+03  0.47000000000E+01 0. -1.
        -11    1    6    6    0    0 -0.46401155160E+02  0.39481927630E+02  0.29157622810E+03  0.29787344058E+03  0.00000000000E+00 0.  1.
         12    1    6    6    0    0 -0.59940600261E+02 -0.43243359131E+01  0.47438623888E+03  0.47817766476E+03  0.00000000000E+00 0. -1.
         -5    1    3    3    0  503  0.84126093155E+02 -0.12607854784E+02  0.65293764888E+02  0.10733835887E+03  0.47000000000E+01 0.  1.
         13    1    4    4    0    0 -0.49027261301E+01 -0.24100312925E+02  0.31610113013E+02  0.40050730971E+02  0.00000000000E+00 0. -1.
        -14    1    4    4    0    0 -0.13745275948E+02  0.15446232802E+02 -0.40631594441E+02  0.45589968036E+02  0.00000000000E+00 0.  1.
</event>
<event>
12    1  0.8563264E-002  0.3501630E+03  0.7818608E-02  0.1062656E+00
         21   -1    0    0  503  502  0.00000000000E+00  0.00000000000E+00  0.86423845749E+02  0.86423845749E+02  0.00000000000E+00 0. -1.
         21   -1    0    0  501  503 -0.00000000000E+00 -0.00000000000E+00 -0.18756904646E+04  0.18756904646E+04  0.00000000000E+00 0.  1.
          6    2    1    2  501    0  0.28298789966E+03  0.11110589413E+03 -0.13800906455E+04  0.14235615018E+04  0.17161144641E+03 0.  0.
         24    2    3    3    0    0  0.17817219437E+03  0.61221031658E+02 -0.57424490712E+03  0.60938444756E+03  0.78095108761E+02 0.  0.
         -6    2    1    2    0  502 -0.28298789966E+03 -0.11110589413E+03 -0.40917597339E+03  0.53855280859E+03  0.17374544420E+03 0.  0.
        -24    2    5    5    0    0 -0.89852745670E+02 -0.32920323288E+02 -0.23960983840E+03  0.26987282175E+03  0.79127755378E+02 0.  0.
          5    1    3    3  501    0  0.10481570529E+03  0.49884862467E+02 -0.80584573839E+03  0.81417705425E+03  0.47000000000E+01 0. -1.
        -13    1    4    4    0    0  0.34538574104E+02  0.13916209370E+02 -0.23538976802E+03  0.23831684135E+03  0.00000000000E+00 0.  1.
         14    1    4    4    0    0  0.14363362026E+03  0.47304822288E+02 -0.33885513910E+03  0.37106760621E+03  0.00000000000E+00 0. -1.
         -5    1    5    5    0  502 -0.19313515399E+03 -0.78185570837E+02 -0.16956613498E+03  0.26867998684E+03  0.47000000000E+01 0.  1.
         13    1    6    6    0    0  0.27421875706E+01  0.13514119891E+02 -0.74986104530E+01  0.15696502408E+02  0.00000000000E+00 0. -1.
        -14    1    6    6    0    0 -0.92594933240E+02 -0.46434443179E+02 -0.23211122795E+03  0.25417631935E+03  0.00000000000E+00 0.  1.
</event>
<event>
12    1  0.8563264E-002  0.2298305E+03  0.7818608E-02  0.1127233E+00
         21   -1    0    0  501  502  0.00000000000E+00  0.00000000000E+00  0.30775366087E+03  0.30775366087E+03  0.00000000000E+00 0.  1.
         21   -1    0    0  502  503 -0.00000000000E+00 -0.00000000000E+00 -0.20509869230E+03  0.20509869230E+03  0.00000000000E+00 0.  1.
         -6    2    1    2    0  503 -0.12380759056E+03 -0.82883283678E+02 -0.55036282100E+02  0.23632825795E+03  0.17499741416E+03 0.  0.
        -24    2    3    3    0    0 -0.64689841677E+02 -0.18171732953E+02  0.35741129710E+02  0.11005426409E+03  0.79495441357E+02 0.  0.
          6    2    1    2  501    0  0.12380759056E+03  0.82883283678E+02  0.15769125067E+03  0.27652409523E+03  0.17146745029E+03 0.  0.
         24    2    5    5    0    0  0.70009435632E+02  0.74137679754E+02  0.23304486054E+02  0.13142888660E+03  0.79578492860E+02 0.  0.
          5    1    5    5  501    0  0.53798154925E+02  0.87456039243E+01  0.13438676462E+03  0.14509520863E+03  0.47000000000E+01 0. -1.
        -11    1    6    6    0    0 -0.12558060340E+02  0.36505173819E+02  0.66004633115E+01  0.39165018971E+02  0.00000000000E+00 0.  1.
         12    1    6    6    0    0  0.82567495972E+02  0.37632505935E+02  0.16704022743E+02  0.92263867629E+02  0.00000000000E+00 0. -1.
         -5    1    3    3    0  503 -0.59117748880E+02 -0.64711550725E+02 -0.90777411809E+02  0.12627399386E+03  0.47000000000E+01 0.  1.
         11    1    4    4    0    0 -0.83108703699E+02 -0.19428858801E+02  0.32401597703E+02  0.91292939040E+02  0.00000000000E+00 0. -1.
        -12    1    4    4    0    0  0.18418862022E+02  0.12571258480E+01  0.33395320063E+01  0.18761325049E+02  0.00000000000E+00 0.  1.
</event>
<event>
12    1  0.8563264E-002  0.1775077E+03  0.7818608E-02  0.1170243E+00
         21   -1    0    0  501  502  0.00000000000E+00  0.00000000000E+00  0.17958997426E+03  0.17958997426E+03  0.00000000000E+00 0.  1.
         21   -1    0    0  502  503 -0.00000000000E+00 -0.00000000000E+00 -0.18517581060E+03  0.18517581060E+03  0.00000000000E+00 0.  1.
         -6    2    1    2    0  503  0.10699156805E+01 -0.45788109995E+02 -0.44642748712E+02  0.18301199204E+03  0.17147220907E+03 0.  0.
        -24    2    3    3    0    0  0.20537207455E+02 -0.79322062417E+02 -0.71274530065E+02  0.13573786390E+03  0.81430599796E+02 0.  0.
          6    2    1    2  501    0 -0.10699156805E+01  0.45788109995E+02  0.39056912375E+02  0.18175379282E+03  0.17149723923E+03 0.  0.
         24    2    5    5    0    0  0.58650016605E+02  0.45545482686E+01 -0.11050954518E+01  0.98676998238E+02  0.79217172303E+02 0.  0.
          5    1    5    5  501    0 -0.59719932285E+02  0.41233561726E+02  0.40162007826E+02  0.83076794578E+02  0.47000000000E+01 0. -1.
        -11    1    6    6    0    0  0.51242173618E+02  0.33198180926E+02  0.17761526236E+02  0.63587352423E+02  0.00000000000E+00 0.  1.
         12    1    6    6    0    0  0.74078429861E+01 -0.28643632657E+02 -0.18866621688E+02  0.35089645815E+02  0.00000000000E+00 0. -1.
         -5    1    3    3    0  503 -0.19467291775E+02  0.33533952422E+02  0.26631781352E+02  0.47274128147E+02  0.47000000000E+01 0.  1.
         13    1    4    4    0    0  0.12816768210E+02 -0.53003009032E+02  0.49247087514E+01  0.54752545786E+02  0.00000000000E+00 0. -1.
        -14    1    4    4    0    0  0.77204392451E+01 -0.26319053385E+02 -0.76199238816E+02  0.80985318110E+02  0.00000000000E+00 0.  1.
</event>
<event>
12    1  0.8563264E-002  0.1773400E+03  0.7818608E-02  0.1170723E+00
         21   -1    0    0  501  502  0.00000000000E+00  0.00000000000E+00  0.43503458024E+02  0.43503458024E+02  0.00000000000E+00 0.  1.
         21   -1    0    0  502  503 -0.00000000000E+00 -0.00000000000E+00 -0.12296348549E+04  0.12296348549E+04  0.00000000000E+00 0. -1.
         -6    2    1    2    0  503 -0.41541528440E+02  0.84707693404E+00 -0.10050872905E+04  0.10206125261E+04  0.17240374385E+03 0.  0.
        -24    2    3    3    0    0  0.38179175828E+02 -0.17730853085E+02 -0.69561559656E+03  0.70046357719E+03  0.70683323160E+02 0.  0.
          6    2    1    2  501    0  0.41541528440E+02 -0.84707693404E+00 -0.18104410643E+03  0.25252578682E+03  0.17107275766E+03 0.  0.
         24    2    5    5    0    0  0.56297024129E+02 -0.21795629825E+02 -0.38324305243E+02  0.10744788302E+03  0.80199069744E+02 0.  0.
          5    1    5    5  501    0 -0.14755495688E+02  0.20948552891E+02 -0.14271980118E+03  0.14507790380E+03  0.47000000000E+01 0. -1.
        -11    1    6    6    0    0  0.19184496721E+02 -0.48506174005E+02 -0.32235673093E+02  0.61319103473E+02  0.00000000000E+00 0.  1.
         12    1    6    6    0    0  0.37112527408E+02  0.26710544179E+02 -0.60886321497E+01  0.46128779546E+02  0.00000000000E+00 0. -1.
         -5    1    3    3    0  503 -0.79720704269E+02  0.18577930019E+02 -0.30947169392E+03  0.32014894895E+03  0.47000000000E+01 0.  1.
         13    1    4    4    0    0 -0.16492158713E+02  0.11556179687E+02 -0.18650261491E+03  0.18758667851E+03  0.00000000000E+00 0. -1.
        -14    1    4    4    0    0  0.54671334541E+02 -0.29287032772E+02 -0.50911298165E+03  0.51287689867E+03  0.00000000000E+00 0.  1.
</event>
<event>
12    1  0.8563264E-002  0.2297705E+03  0.7818608E-02  0.1126848E+00
         21   -1    0    0  501  502  0.00000000000E+00  0.00000000000E+00  0.25341738818E+03  0.25341738818E+03  0.00000000000E+00 0. -1.
         21   -1    0    0  502  503 -0.00000000000E+00 -0.00000000000E+00 -0.44529330537E+03  0.44529330537E+03  0.00000000000E+00 0. -1.
         -6    2    1    2    0  503 -0.13918032545E+03 -0.60866426076E+02 -0.35094103804E+03  0.41946880390E+03  0.17239077832E+03 0.  0.
        -24    2    3    3    0    0 -0.16985888620E+03 -0.63758479693E+02 -0.32191332633E+03  0.37687495328E+03  0.74090186860E+02 0.  0.
          6    2    1    2  501    0  0.13918032545E+03  0.60866426076E+02  0.15906512085E+03  0.27924188965E+03  0.17204195839E+03 0.  0.
         24    2    5    5    0    0  0.64741215418E+02  0.85512865256E+02  0.45931731331E+02  0.14151069532E+03  0.80072953289E+02 0.  0.
          5    1    5    5  501    0  0.74439110035E+02 -0.24646439180E+02  0.11313338952E+03  0.13773119433E+03  0.47000000000E+01 0. -1.
        -11    1    6    6    0    0 -0.15346966656E+01 -0.13327556322E+02  0.11380661259E+02  0.17592569513E+02  0.00000000000E+00 0.  1.
         12    1    6    6    0    0  0.66275912083E+02  0.98840421578E+02  0.34551070072E+02  0.12391812581E+03  0.00000000000E+00 0. -1.
         -5    1    3    3    0  503  0.30678560746E+02  0.28920536172E+01 -0.29027711716E+02  0.42593850625E+02  0.47000000000E+01 0.  1.
         13    1    4    4    0    0 -0.10151640585E+03  0.30167842339E+00 -0.15051417438E+03  0.18154941023E+03  0.00000000000E+00 0. -1.
        -14    1    4    4    0    0 -0.68342480346E+02 -0.64060158116E+02 -0.17139915195E+03  0.19532554305E+03  0.00000000000E+00 0.  1.
</event>
<event>
12    1  0.8563264E-002  0.2498175E+03  0.7818608E-02  0.1113531E+00
         21   -1    0    0  503  502  0.00000000000E+00  0.00000000000E+00  0.25034939072E+03  0.25034939072E+03  0.00000000000E+00 0.  1.
         21   -1    0    0  501  503 -0.00000000000E+00 -0.00000000000E+00 -0.29837715523E+03  0.29837715523E+03  0.00000000000E+00 0. -1.
          6    2    1    2  501    0  0.17884420511E+03  0.11312370751E+02 -0.13611925929E+03  0.28449466435E+03  0.17405614572E+03 0.  0.
         24    2    3    3    0    0  0.13356432109E+03  0.39554379761E+02 -0.26930787653E+02  0.16287192261E+03  0.79987617947E+02 0.  0.
         -6    2    1    2    0  502 -0.17884420511E+03 -0.11312370751E+02  0.88091494783E+02  0.26423188160E+03  0.17304668841E+03 0.  0.
        -24    2    5    5    0    0 -0.19649707544E+03  0.19268093728E+02  0.70748291765E+02  0.22461287948E+03  0.80394432299E+02 0.  0.
          5    1    3    3  501    0  0.45279884017E+02 -0.28242009010E+02 -0.10918847164E+03  0.12162274174E+03  0.47000000000E+01 0. -1.
        -13    1    4    4    0    0  0.56558233050E+02  0.45956104895E+02  0.15805556352E+02  0.74569517328E+02  0.00000000000E+00 0.  1.
         14    1    4    4    0    0  0.77006088044E+02 -0.64017251336E+01 -0.42736344005E+02  0.88302405287E+02  0.00000000000E+00 0. -1.
         -5    1    5    5    0  502  0.17652870333E+02 -0.30580464479E+02  0.17343203018E+02  0.39619002128E+02  0.47000000000E+01 0.  1.
         13    1    6    6    0    0 -0.11675079194E+03  0.16550593587E+02 -0.81950786298E-01  0.11791809141E+03  0.00000000000E+00 0. -1.
        -14    1    6    6    0    0 -0.79746283505E+02  0.27175001402E+01  0.70830242551E+02  0.10669478806E+03  0.00000000000E+00 0.  1.
</event>
<event>
12    1  0.8563264E-002  0.2159905E+03  0.7818608E-02  0.1137033E+00
         21   -1    0    0  501  502  0.00000000000E+00  0.00000000000E+00  0.32326431281E+03  0.32326431281E+03  0.00000000000E+00 0. -1.
         21   -1    0    0  502  503 -0.00000000000E+00 -0.00000000000E+00 -0.24227263504E+03  0.24227263504E+03  0.00000000000E+00 0.  1.
         -6    2    1    2    0  503  0.92391231617E+02  0.92873048755E+02 -0.13974446585E+03  0.25670633821E+03  0.17090373161E+03 0.  0.
        -24    2    3    3    0    0  0.13022267868E+03  0.56140257656E+02 -0.10697242353E+03  0.19444388495E+03  0.79092669861E+02 0.  0.
          6    2    1    2  501    0 -0.92391231617E+02 -0.92873048755E+02  0.22073614363E+03  0.30883060963E+03  0.17172756761E+03 0.  0.
         24    2    5    5    0    0  0.79942306191E+01 -0.80718492934E+02  0.96914812048E+02  0.14889691584E+03  0.78730095442E+02 0.  0.
          5    1    5    5  501    0 -0.10038546224E+03 -0.12154555821E+02  0.12382133158E+03  0.15993369379E+03  0.47000000000E+01 0. -1.
        -11    1    6    6    0    0 -0.15170054195E+02  0.94920046238E+01  0.63523876173E+01  0.18988984293E+02  0.00000000000E+00 0.  1.
         12    1    6    6    0    0  0.23164284814E+02 -0.90210497558E+02  0.90562424430E+02  0.12990793155E+03  0.00000000000E+00 0. -1.
         -5    1    3    3    0  503 -0.37831447064E+02  0.36732791099E+02 -0.32772042317E+02  0.62262453264E+02  0.47000000000E+01 0.  1.
         13    1    4    4    0    0  0.99602480552E+01  0.19773939077E+02  0.85803895105E+01  0.23745279364E+02  0.00000000000E+00 0. -1.
        -14    1    4    4    0    0  0.12026243062E+03  0.36366318579E+02 -0.11555281304E+03  0.17069860559E+03  0.00000000000E+00 0.  1.
</event>
<event>
12    1  0.8563264E-002  0.3086965E+03  0.7818608E-02  0.1080992E+00
         21   -1    0    0  501  502  0.00000000000E+00  0.00000000000E+00  0.45397724493E+03  0.45397724493E+03  0.00000000000E+00 0. -1.
         21   -1    0    0  502  503 -0.00000000000E+00 -0.00000000000E+00 -0.21204103150E+03  0.21204103150E+03  0.00000000000E+00 0.  1.
         -6    2    1    2    0  503  0.86978694067E+02 -0.24020799858E+03  0.15519646301E+03  0.34536685641E+03  0.17299464608E+03 0.  0.
        -24    2    3    3    0    0  0.49074789006E+02 -0.51569439582E+02  0.10099221659E+03  0.14541335609E+03  0.76667296174E+02 0.  0.
          6    2    1    2  501    0 -0.86978694067E+02  0.24020799858E+03  0.86739750424E+02  0.32065142003E+03  0.17328696738E+03 0.  0.
         24    2    5    5    0    0 -0.86661352247E+02  0.69686692176E+02  0.52998521899E+02  0.14676014036E+03  0.79770109920E+02 0.  0.
          5    1    5    5  501    0 -0.31734181969E+00  0.17052130640E+03  0.33741228524E+02  0.17389127967E+03  0.47000000000E+01 0. -1.
        -13    1    6    6    0    0 -0.12664265319E+02  0.53658950978E+02  0.14266055029E+01  0.55151625899E+02  0.00000000000E+00 0.  1.
         14    1    6    6    0    0 -0.73997086928E+02  0.16027741199E+02  0.51571916396E+02  0.91608514465E+02  0.00000000000E+00 0. -1.
         -5    1    3    3    0  503  0.37903905060E+02 -0.18863855899E+03  0.54204246413E+02  0.19995350031E+03  0.47000000000E+01 0.  1.
         13    1    4    4    0    0  0.54680413568E+02 -0.62302702486E+02  0.59098466836E+02  0.10180473048E+03  0.00000000000E+00 0. -1.
        -14    1    4    4    0    0 -0.56056245619E+01  0.10733262904E+02  0.41893749758E+02  0.43608625616E+02  0.00000000000E+00 0.  1.
</event>
<event>
12    1  0.8563264E-002  0.3920301E+03  0.7818608E-02  0.1046694E+00
         21   -1    0    0  501  502  0.00000000000E+00  0.00000000000E+00  0.11370751642E+04  0.11370751642E+04  0.00000000000E+00 0.  1.
         21   -1    0    0  502  503 -0.00000000000E+00 -0.00000000000E+00 -0.27952856082E+03  0.27952856082E+03  0.00000000000E+00 0. -1.
         -6    2    1    2    0  503  0.35146683463E+03  0.22842375418E+02 -0.81416441075E+02  0.39908752381E+03  0.16909022687E+03 0.  0.
        -24    2    3    3    0    0  0.29259786075E+03 -0.30147105674E+02 -0.94250536630E+02  0.31871187326E+03  0.78560412468E+02 0.  0.
          6    2    1    2  501    0 -0.35146683463E+03 -0.22842375418E+02  0.93896304442E+03  0.10175162012E+04  0.17215374205E+03 0.  0.
         24    2    5    5    0    0 -0.34236060301E+03 -0.90437515541E+01  0.75803763390E+03  0.83577622305E+03  0.81291258298E+02 0.  0.
          5    1    5    5  501    0 -0.91062316202E+01 -0.13798623864E+02  0.18092541052E+03  0.18173997812E+03  0.47000000000E+01 0. -1.
        -11    1    6    6    0    0 -0.30609361080E+03 -0.33562214241E+02  0.67442630842E+03  0.74139771128E+03  0.00000000000E+00 0.  1.
         12    1    6    6    0    0 -0.36266992207E+02  0.24518462687E+02  0.83611325481E+02  0.94378511776E+02  0.00000000000E+00 0. -1.
         -5    1    3    3    0  503  0.58868973884E+02  0.52989481092E+02  0.12834095555E+02  0.80375650549E+02  0.47000000000E+01 0.  1.
         13    1    4    4    0    0  0.19501429794E+03  0.44174979603E+01 -0.90717721372E+02  0.21512739403E+03  0.00000000000E+00 0. -1.
        -14    1    4    4    0    0  0.97583562805E+02 -0.34564603634E+02 -0.35328152581E+01  0.10358447923E+03  0.00000000000E+00 0.  1.
</event>
<event>
12    1  0.8563264E-002  0.2170257E+03  0.7818608E-02  0.1136147E+00
         21   -1    0    0  501  502  0.00000000000E+00  0.00000000000E+00  0.43317506888E+03  0.43317506888E+03  0.00000000000E+00 0.  1.
         21   -1    0    0  502  503 -0.00000000000E+00 -0.00000000000E+00 -0.12248972454E+03  0.12248972454E+03  0.00000000000E+00 0.  1.
         -6    2    1    2    0  503 -0.10999182959E+03  0.73170616467E+02  0.62038105138E+02  0.22571854813E+03  0.17218593088E+03 0.  0.
        -24    2    3    3    0    0 -0.11319021057E+03  0.11029757401E+03  0.38109806950E+02  0.18118435822E+03  0.79986471849E+02 0.  0.
          6    2    1    2  501    0  0.10999182959E+03 -0.73170616467E+02  0.24864723920E+03  0.32994624529E+03  0.17200852749E+03 0.  0.
         24    2    5    5    0    0  0.13623644766E+03 -0.51044186264E+02  0.24317255592E+03  0.29486888724E+03  0.81540726558E+02 0.  0.
          5    1    5    5  501    0 -0.26244618066E+02 -0.22126430203E+02  0.54746832803E+01  0.35077358052E+02  0.47000000000E+01 0. -1.
        -11    1    6    6    0    0  0.71644582102E+02 -0.53898998730E+02  0.83149411552E+02  0.12227785102E+03  0.00000000000E+00 0.  1.
         12    1    6    6    0    0  0.64591865555E+02  0.28548124651E+01  0.16002314436E+03  0.17259103622E+03  0.00000000000E+00 0. -1.
         -5    1    3    3    0  503  0.31983809750E+01 -0.37126957539E+02  0.23928298188E+02  0.44534189912E+02  0.47000000000E+01 0.  1.
         11    1    4    4    0    0 -0.32443012837E+02  0.75958429350E+02 -0.63071325901E+01  0.82837262103E+02  0.00000000000E+00 0. -1.
        -12    1    4    4    0    0 -0.80747197730E+02  0.34339144656E+02  0.44416939540E+02  0.98347096119E+02  0.00000000000E+00 0.  1.
</event>
<event>
12    1  0.8563264E-002  0.5313619E+03  0.7818608E-02  0.1005957E+00
         21   -1    0    0  501  502  0.00000000000E+00  0.00000000000E+00  0.83311238284E+03  0.83311238284E+03  0.00000000000E+00 0.  1.
         21   -1    0    0  502  503 -0.00000000000E+00 -0.00000000000E+00 -0.41815689258E+03  0.41815689258E+03  0.00000000000E+00 0. -1.
         -6    2    1    2    0  503 -0.35128693515E+03  0.35773730749E+03 -0.66027834141E+02  0.53454727906E+03  0.17321266319E+03 0.  0.
        -24    2    3    3    0    0 -0.25676250348E+03  0.32687142694E+03 -0.18909173012E+02  0.42441177620E+03  0.83641413223E+02 0.  0.
          6    2    1    2  501    0  0.35128693515E+03 -0.35773730749E+03  0.48098332440E+03  0.71672199636E+03  0.17597434398E+03 0.  0.
         24    2    5    5    0    0  0.34320843420E+03 -0.35218912938E+03  0.41020838320E+03  0.64511734036E+03  0.77950324172E+02 0.  0.
          5    1    5    5  501    0  0.80785009505E+01 -0.55481781151E+01  0.70774941206E+02  0.71604655999E+02  0.47000000000E+01 0. -1.
        -13    1    6    6    0    0  0.22664524750E+03 -0.19145639097E+03  0.27798102352E+03  0.40656742036E+03  0.00000000000E+00 0.  1.
         14    1    6    6    0    0  0.11656318669E+03 -0.16073273841E+03  0.13222735968E+03  0.23854992001E+03  0.00000000000E+00 0. -1.
         -5    1    3    3    0  503 -0.94524431663E+02  0.30865880555E+02 -0.47118661129E+02  0.11013550286E+03  0.47000000000E+01 0.  1.
         11    1    4    4    0    0 -0.59225628572E+02  0.66819238300E+02  0.30012324982E+02  0.94197799006E+02  0.00000000000E+00 0. -1.
        -12    1    4    4    0    0 -0.19753687491E+03  0.26005218864E+03 -0.48921497995E+02  0.33021397719E+03  0.00000000000E+00 0.  1.
</event>
<event>
12    1  0.8563264E-002  0.2553216E+03  0.7818608E-02  0.1110236E+00
         21   -1    0    0  501  502  0.00000000000E+00  0.00000000000E+00  0.10050225155E+04  0.10050225155E+04  0.00000000000E+00 0. -1.
         21   -1    0    0  502  503 -0.00000000000E+00 -0.00000000000E+00 -0.21842739429E+03  0.21842739429E+03  0.00000000000E+00 0. -1.
         -6    2    1    2    0  503  0.10390965988E+03  0.15626815789E+03  0.90726311845E+03  0.94250488853E+03  0.17312464935E+03 0.  0.
        -24    2    3    3    0    0  0.81343865207E+02  0.11280864527E+03  0.85847218366E+03  0.87321860096E+03  0.78699555849E+02 0.  0.
          6    2    1    2  501    0 -0.10390965988E+03 -0.15626815789E+03 -0.12066799722E+03  0.28094502128E+03  0.17074069474E+03 0.  0.
         24    2    5    5    0    0 -0.40549564716E+02 -0.52433156660E+01 -0.43232604115E+02  0.99723238001E+02  0.80024412406E+02 0.  0.
          5    1    5    5  501    0 -0.63360095164E+02 -0.15102484223E+03 -0.77435393106E+02  0.18122178328E+03  0.47000000000E+01 0. -1.
        -13    1    6    6    0    0  0.89220232308E+01  0.15346944108E+02  0.13033931352E+02  0.22023046076E+02  0.00000000000E+00 0.  1.
         14    1    6    6    0    0 -0.49471587947E+02 -0.20590259774E+02 -0.56266535468E+02  0.77700191925E+02  0.00000000000E+00 0. -1.
         -5    1    3    3    0  503  0.22565794673E+02  0.43459512629E+02  0.48790934784E+02  0.69286287563E+02  0.47000000000E+01 0.  1.
         11    1    4    4    0    0  0.24778258191E+02  0.59079757132E+02  0.59498512223E+03  0.59842432726E+03  0.00000000000E+00 0. -1.
        -12    1    4    4    0    0  0.56565607016E+02  0.53728888134E+02  0.26348706143E+03  0.27479427370E+03  0.00000000000E+00 0.  1.
</event>
<event>
12    1  0.8563264E-002  0.2431687E+03  0.7818608E-02  0.1117893E+00
         21   -1    0    0  501  502  0.00000000000E+00  0.00000000000E+00  0.46826901509E+03  0.46826901509E+03  0.00000000000E+00 0. -1.
         21   -1    0    0  502  503 -0.00000000000E+00 -0.00000000000E+00 -0.16925162375E+03  0.16925162375E+03  0.00000000000E+00 0. -1.
         -6    2    1    2    0  503 -0.11327975392E+03  0.12801582280E+03  0.31100186047E+03  0.39405676790E+03  0.17128404938E+03 0.  0.
        -24    2    3    3    0    0 -0.36029080507E+02  0.61937518437E+02  0.24623845396E+03  0.27343173868E+03  0.94853511670E+02 0.  0.
          6    2    1    2  501    0  0.11327975392E+03 -0.12801582280E+03 -0.11984469130E+02  0.24346387094E+03  0.17294703067E+03 0.  0.
         24    2    5    5    0    0  0.47273332866E+02 -0.13130842906E+03  0.32263418277E+02  0.16379170254E+03  0.79436277102E+02 0.  0.
          5    1    5    5  501    0  0.66006421053E+02  0.32926062647E+01 -0.44247887407E+02  0.79672168392E+02  0.47000000000E+01 0. -1.
        -11    1    6    6    0    0 -0.16139183700E+02 -0.17052716444E+01  0.47190947625E+01  0.16901214669E+02  0.00000000000E+00 0.  1.
         12    1    6    6    0    0  0.63412516566E+02 -0.12960315742E+03  0.27544323514E+02  0.14689048788E+03  0.00000000000E+00 0. -1.
         -5    1    3    3    0  503 -0.77250673412E+02  0.66078304362E+02  0.64763406506E+02  0.12062502921E+03  0.47000000000E+01 0.  1.
         13    1    4    4    0    0 -0.15318049705E+02  0.83431604063E+02  0.20998793385E+03  0.22647385625E+03  0.00000000000E+00 0. -1.
        -14    1    4    4    0    0 -0.20711030802E+02 -0.21494085626E+02  0.36250520114E+02  0.46957882430E+02  0.00000000000E+00 0.  1.
</event>
<event>
12    1  0.8563264E-002  0.1753199E+03  0.7818608E-02  0.1172995E+00
         21   -1    0    0  501  502  0.00000000000E+00  0.00000000000E+00  0.28369574393E+03  0.28369574393E+03  0.00000000000E+00 0.  1.
         21   -1    0    0  502  503 -0.00000000000E+00 -0.00000000000E+00 -0.15609074992E+03  0.15609074992E+03  0.00000000000E+00 0.  1.
         -6    2    1    2    0  503  0.49547199799E+01 -0.15016030732E+02 -0.59323575982E+02  0.18508476254E+03  0.17460541866E+03 0.  0.
        -24    2    3    3    0    0 -0.52066504258E+02  0.14158171439E+02  0.43085232111E+00  0.97362269482E+02  0.81042280328E+02 0.  0.
          6    2    1    2  501    0 -0.49547199799E+01  0.15016030732E+02  0.18692856999E+03  0.25470173132E+03  0.17228073376E+03 0.  0.
         24    2    5    5    0    0 -0.58201806963E+02  0.17006003581E+02  0.59095395040E+02  0.11612820252E+03  0.79478545621E+02 0.  0.
          5    1    5    5  501    0  0.53247086984E+02 -0.19899728496E+01  0.12783317495E+03  0.13857352880E+03  0.47000000000E+01 0. -1.
        -13    1    6    6    0    0  0.15115733450E+01 -0.26205095696E+02  0.16268735769E+02  0.30881445205E+02  0.00000000000E+00 0.  1.
         14    1    6    6    0    0 -0.59713380308E+02  0.43211099277E+02  0.42826659271E+02  0.85246757316E+02  0.00000000000E+00 0. -1.
         -5    1    3    3    0  503  0.57021224238E+02 -0.29174202171E+02 -0.59754428303E+02  0.87722493055E+02  0.47000000000E+01 0.  1.
         11    1    4    4    0    0 -0.26565161715E+02 -0.25343971179E+02  0.24895339806E+02  0.44359921507E+02  0.00000000000E+00 0. -1.
        -12    1    4    4    0    0 -0.25501342543E+02  0.39502142619E+02 -0.24464487485E+02  0.53002347975E+02  0.00000000000E+00 0.  1.
</event>
<event>
12    1  0.8563264E-002  0.2524689E+03  0.7818608E-02  0.1113145E+00
         21   -1    0    0  501  502  0.00000000000E+00  0.00000000000E+00  0.48042185740E+02  0.48042185740E+02  0.00000000000E+00 0.  1.
         21   -1    0    0  502  503 -0.00000000000E+00 -0.00000000000E+00 -0.12976485196E+04  0.12976485196E+04  0.00000000000E+00 0.  1.
         -6    2    1    2    0  503  0.49991074084E+00  0.18538388283E+03 -0.71141242479E+03  0.75488289344E+03  0.17138585338E+03 0.  0.
        -24    2    3    3    0    0 -0.38724957361E+02  0.39109253456E+02 -0.35426741986E+03  0.36692735215E+03  0.78109672567E+02 0.  0.
          6    2    1    2  501    0 -0.49991074084E+00 -0.18538388283E+03 -0.53819390910E+03  0.59080781192E+03  0.15822058310E+03 0.  0.
         24    2    5    5    0    0 -0.14715587944E+02 -0.12383849924E+03 -0.21299827858E+03  0.25950099366E+03  0.80124756540E+02 0.  0.
          5    1    5    5  501    0  0.14215677204E+02 -0.61545383594E+02 -0.32519563052E+03  0.33130681826E+03  0.47000000000E+01 0. -1.
        -13    1    6    6    0    0 -0.15774944191E+02 -0.94140548103E+02 -0.20867653607E+03  0.22947154152E+03  0.00000000000E+00 0.  1.
         14    1    6    6    0    0  0.10593562467E+01 -0.29697951137E+02 -0.43217425057E+01  0.30029452137E+02  0.00000000000E+00 0. -1.
         -5    1    3    3    0  503  0.39224868102E+02  0.14627462938E+03 -0.35714500493E+03  0.38795554130E+03  0.47000000000E+01 0.  1.
         13    1    4    4    0    0 -0.21514531123E+02  0.67435236023E+01 -0.18500522338E+02  0.29165381650E+02  0.00000000000E+00 0. -1.
        -14    1    4    4    0    0 -0.17210426238E+02  0.32365729853E+02 -0.33576689753E+03  0.33776197050E+03  0.00000000000E+00 0.  1.
</event>
<event>
12    1  0.8563264E-002  0.2422544E+03  0.7818608E-02  0.1118573E+00
         21   -1    0    0  501  502  0.00000000000E+00  0.00000000000E+00  0.33468801930E+02  0.33468801930E+02  0.00000000000E+00 0. -1.
         21   -1    0    0  502  503 -0.00000000000E+00 -0.00000000000E+00 -0.19697108693E+04  0.19697108693E+04  0.00000000000E+00 0. -1.
         -6    2    1    2    0  503 -0.16970438931E+03  0.15833203371E+02 -0.13060870385E+04  0.13280629800E+04  0.16981653795E+03 0.  0.
        -24    2    3    3    0    0 -0.13445515830E+03  0.52123476552E+02 -0.65203982020E+03  0.67204518602E+03  0.75456997882E+02 0.  0.
          6    2    1    2  501    0  0.16970438931E+03 -0.15833203371E+02 -0.63015502884E+03  0.67511669122E+03  0.17215375779E+03 0.  0.
         24    2    5    5    0    0  0.50846751301E+02  0.45586229958E+02 -0.19721240878E+03  0.22194907636E+03  0.75532521730E+02 0.  0.
          5    1    5    5  501    0  0.11885763801E+03 -0.61419433329E+02 -0.43294262005E+03  0.45316761486E+03  0.47000000000E+01 0. -1.
        -13    1    6    6    0    0  0.24710200592E+02 -0.29840911878E+00 -0.87293629033E+01  0.26208487900E+02  0.00000000000E+00 0.  1.
         14    1    6    6    0    0  0.26136550709E+02  0.45884639077E+02 -0.18848304588E+03  0.19574058846E+03  0.00000000000E+00 0. -1.
         -5    1    3    3    0  503 -0.35249231010E+02 -0.36290273181E+02 -0.65404721833E+03  0.65601779398E+03  0.47000000000E+01 0.  1.
         11    1    4    4    0    0 -0.51179480778E+02 -0.11030341271E+02 -0.14049569802E+03  0.14993348140E+03  0.00000000000E+00 0. -1.
        -12    1    4    4    0    0 -0.83275677518E+02  0.63153817823E+02 -0.51154412218E+03  0.52211170462E+03  0.00000000000E+00 0.  1.
</event>
<event>
12    1  0.8563264E-002  0.1985017E+03  0.7818608E-02  0.1151177E+00
         21   -1    0    0  501  502  0.00000000000E+00  0.00000000000E+00  0.13586173933E+03  0.13586173933E+03  0.00000000000E+00 0. -1.
         21   -1    0    0  502  503 -0.00000000000E+00 -0.00000000000E+00 -0.43507732209E+03  0.43507732209E+03  0.00000000000E+00 0. -1.
         -6    2    1    2    0  503  0.56918205788E+02 -0.78913717296E+02 -0.31528495565E+03  0.37256882644E+03  0.17301985506E+03 0.  0.
        -24    2    3    3    0    0  0.51360908662E+02 -0.97323093435E+02 -0.13530253607E+03  0.19150102135E+03  0.79095748665E+02 0.  0.
          6    2    1    2  501    0 -0.56918205788E+02  0.78913717296E+02  0.16069372889E+02  0.19837023498E+03  0.17212050562E+03 0.  0.
         24    2    5    5    0    0 -0.40121044879E+02 -0.16737601981E+02  0.38512130427E+02  0.98585031368E+02  0.79661651110E+02 0.  0.
          5    1    5    5  501    0 -0.16797160909E+02  0.95651319278E+02 -0.22442757539E+02  0.99785203613E+02  0.47000000000E+01 0. -1.
        -13    1    6    6    0    0  0.20256477647E+02  0.46580962431E+01  0.26052717645E+02  0.33328168926E+02  0.00000000000E+00 0.  1.
         14    1    6    6    0    0 -0.60377522526E+02 -0.21395698224E+02  0.12459412782E+02  0.65256862442E+02  0.00000000000E+00 0. -1.
         -5    1    3    3    0  503  0.55572971257E+01  0.18409376139E+02 -0.17998241958E+03  0.18106780508E+03  0.47000000000E+01 0.  1.
         11    1    4    4    0    0  0.60589258741E+02 -0.51212812662E+02 -0.11630060959E+03  0.14078225117E+03  0.00000000000E+00 0. -1.
        -12    1    4    4    0    0 -0.92283500789E+01 -0.46110280773E+02 -0.19001926485E+02  0.50718770177E+02  0.00000000000E+00 0.  1.
</event>
<event>
12    1  0.8563264E-002  0.2399099E+03  0.7818608E-02  0.1120048E+00
         21   -1    0    0  503  502  0.00000000000E+00  0.00000000000E+00  0.14664578870E+04  0.14664578870E+04  0.00000000000E+00 0.  1.
         21   -1    0    0  501  503 -0.00000000000E+00 -0.00000000000E+00 -0.10530301706E+03  0.10530301706E+03  0.00000000000E+00 0. -1.
          6    2    1    2  501    0  0.90763109576E+02 -0.13967742972E+03  0.56637285807E+02  0.24536621656E+03  0.17102359970E+03 0.  0.
         24    2    3    3    0    0  0.47785794634E+02 -0.94798158225E+02  0.10299016235E+03  0.16770105209E+03  0.79034779431E+02 0.  0.
         -6    2    1    2    0  502 -0.90763109576E+02  0.13967742972E+03  0.13045175842E+04  0.13263946875E+04  0.17265286928E+03 0.  0.
        -24    2    5    5    0    0 -0.19244993732E+01  0.12752050041E+03  0.81387414952E+03  0.82760298796E+03  0.79185811278E+02 0.  0.
          5    1    3    3  501    0  0.42977314942E+02 -0.44879271491E+02 -0.46352876540E+02  0.77665164474E+02  0.47000000000E+01 0. -1.
        -13    1    4    4    0    0  0.66266960153E+02 -0.77967079867E+02  0.61856010020E+02  0.11956730961E+03  0.00000000000E+00 0.  1.
         14    1    4    4    0    0 -0.18481165520E+02 -0.16831078358E+02  0.41134152327E+02  0.48133742482E+02  0.00000000000E+00 0. -1.
         -5    1    5    5    0  502 -0.88838610203E+02  0.12156929309E+02  0.49064343464E+03  0.49879169956E+03  0.47000000000E+01 0.  1.
         13    1    6    6    0    0 -0.68189390143E+01  0.11663354586E+02  0.14334386629E+02  0.19697878300E+02  0.00000000000E+00 0. -1.
        -14    1    6    6    0    0  0.48944396411E+01  0.11585714582E+03  0.79953976289E+03  0.80790510966E+03  0.00000000000E+00 0.  1.
</event>
<event>
12    1  0.8563264E-002  0.2045962E+03  0.7818608E-02  0.1146036E+00
         21   -1    0    0  503  502  0.00000000000E+00  0.00000000000E+00  0.40772916125E+02  0.40772916125E+02  0.00000000000E+00 0. -1.
         21   -1    0    0  501  503 -0.00000000000E+00 -0.00000000000E+00 -0.11036592949E+04  0.11036592949E+04  0.00000000000E+00 0. -1.
          6    2    1    2  501    0 -0.10117713661E+03  0.46276038932E+02 -0.68607495206E+03  0.71593188015E+03  0.17170128834E+03 0.  0.
         24    2    3    3    0    0 -0.53737445200E+02  0.83621046027E+02 -0.57805423042E+03  0.59209432454E+03  0.80924677860E+02 0.  0.
         -6    2    1    2    0  502  0.10117713661E+03 -0.46276038932E+02 -0.37681142668E+03  0.42850033084E+03  0.17101870513E+03 0.  0.
        -24    2    5    5    0    0 -0.60084618618E+01  0.29674369970E+01 -0.13027929835E+03  0.15516198237E+03  0.84009748843E+02 0.  0.
          5    1    3    3  501    0 -0.47439691412E+02 -0.37345007095E+02 -0.10802072164E+03  0.12383755561E+03  0.47000000000E+01 0. -1.
        -11    1    4    4    0    0  0.19892956397E+02  0.16519883657E+02 -0.76784202984E+02  0.81021294103E+02  0.00000000000E+00 0.  1.
         12    1    4    4    0    0 -0.73630401597E+02  0.67101162370E+02 -0.50127002744E+03  0.51107303044E+03  0.00000000000E+00 0. -1.
         -5    1    5    5    0  502  0.10718559847E+03 -0.49243475929E+02 -0.24653212834E+03  0.27333834847E+03  0.47000000000E+01 0.  1.
         13    1    6    6    0    0  0.33473900711E+02  0.21188191968E+02 -0.49287688137E+02  0.63235414995E+02  0.00000000000E+00 0. -1.
        -14    1    6    6    0    0 -0.39482362573E+02 -0.18220754971E+02 -0.80991610209E+02  0.91926567380E+02  0.00000000000E+00 0.  1.
</event>
<event>
12    1  0.8563264E-002  0.1951810E+03  0.7818608E-02  0.1155149E+00
         21   -1    0    0  501  502  0.00000000000E+00  0.00000000000E+00  0.49962358319E+03  0.49962358319E+03  0.00000000000E+00 0. -1.
         21   -1    0    0  502  503 -0.00000000000E+00 -0.00000000000E+00 -0.12807434003E+03  0.12807434003E+03  0.00000000000E+00 0. -1.
         -6    2    1    2    0  503  0.30866587583E+01 -0.90377965720E+02  0.39129588508E+03  0.43727349313E+03  0.17296801428E+03 0.  0.
        -24    2    3    3    0    0 -0.14997711456E+02 -0.75079182848E+01  0.30690867661E+03  0.31753302311E+03  0.79705613349E+02 0.  0.
          6    2    1    2  501    0 -0.30866587583E+01  0.90377965720E+02 -0.19746641919E+02  0.19042443008E+03  0.16641463144E+03 0.  0.
         24    2    5    5    0    0 -0.54663454069E+02  0.82168755675E+02 -0.42351932854E+02  0.13332236250E+03  0.79002332284E+02 0.  0.
          5    1    5    5  501    0  0.51576795310E+02  0.82092100446E+01  0.22605290935E+02  0.57102067583E+02  0.47000000000E+01 0. -1.
        -11    1    6    6    0    0 -0.10092031164E+02 -0.12753172748E+00  0.18930304906E+02  0.21452780733E+02  0.00000000000E+00 0.  1.
         12    1    6    6    0    0 -0.44571422905E+02  0.82296287402E+02 -0.61282237760E+02  0.11186958177E+03  0.00000000000E+00 0. -1.
         -5    1    3    3    0  503  0.18084370214E+02 -0.82870047435E+02  0.84387208469E+02  0.11974047002E+03  0.47000000000E+01 0.  1.
         13    1    4    4    0    0  0.23278086540E+02  0.20340668054E+02  0.16691463846E+03  0.16975308133E+03  0.00000000000E+00 0. -1.
        -14    1    4    4    0    0 -0.38275797996E+02 -0.27848586338E+02  0.13999403815E+03  0.14777994177E+03  0.00000000000E+00 0.  1.
</event>
<event>
12    1  0.8563264E-002  0.1967794E+03  0.7818608E-02  0.1152526E+00
         21   -1    0    0  501  502  0.00000000000E+00  0.00000000000E+00  0.10351125946E+03  0.10351125946E+03  0.00000000000E+00 0. -1.
         21   -1    0    0  502  503 -0.00000000000E+00 -0.00000000000E+00 -0.49651811826E+03  0.49651811826E+03  0.00000000000E+00 0. -1.
         -6    2    1    2    0  503 -0.90989992144E+02  0.26129094910E+02 -0.34563137727E+03  0.39762742261E+03  0.17229222265E+03 0.  0.
        -24    2    3    3    0    0 -0.92868907182E+02  0.73755945730E+02 -0.22089353202E+03  0.26401055512E+03  0.82722713166E+02 0.  0.
          6    2    1    2  501    0  0.90989992144E+02 -0.26129094910E+02 -0.47375481525E+02  0.20240195511E+03  0.17251146893E+03 0.  0.
         24    2    5    5    0    0  0.52774326467E+02 -0.30899252387E+02 -0.96994423960E+02  0.13941528228E+03  0.79302013355E+02 0.  0.
          5    1    5    5  501    0  0.38215665677E+02  0.47701574764E+01  0.49618942435E+02  0.62986672827E+02  0.47000000000E+01 0. -1.
        -11    1    6    6    0    0  0.28575846504E+02 -0.57358350185E+02 -0.66415948411E+02  0.92291048009E+02  0.00000000000E+00 0.  1.
         12    1    6    6    0    0  0.24198479963E+02  0.26459097798E+02 -0.30578475549E+02  0.47124234272E+02  0.00000000000E+00 0. -1.
         -5    1    3    3    0  503  0.18789150386E+01 -0.47626850820E+02 -0.12473784525E+03  0.13361686750E+03  0.47000000000E+01 0.  1.
         11    1    4    4    0    0 -0.19914846270E+02  0.29576889288E+02 -0.14668802667E+03  0.15095950003E+03  0.00000000000E+00 0. -1.
        -12    1    4    4    0    0 -0.72954060912E+02  0.44179056442E+02 -0.74205505352E+02  0.11305105509E+03  0.00000000000E+00 0.  1.
</event>
<event>
12    1  0.8563264E-002  0.1845389E+03  0.7818608E-02  0.1163493E+00
         21   -1    0    0  501  502  0.00000000000E+00  0.00000000000E+00  0.16811880482E+04  0.16811880482E+04  0.00000000000E+00 0. -1.
         21   -1    0    0  502  503 -0.00000000000E+00 -0.00000000000E+00 -0.77151463231E+02  0.77151463231E+02  0.00000000000E+00 0. -1.
         -6    2    1    2    0  503 -0.22859839141E+02 -0.62487665699E+02  0.47025452265E+02  0.19043636221E+03  0.17212592565E+03 0.  0.
        -24    2    3    3    0    0 -0.20367947022E+02 -0.85352240030E+02  0.84923281692E+02  0.14585684044E+03  0.79764628669E+02 0.  0.
          6    2    1    2  501    0  0.22859839141E+02  0.62487665699E+02  0.15570111327E+04  0.15679031493E+04  0.17207363938E+03 0.  0.
         24    2    5    5    0    0 -0.14177122851E+02  0.38138900604E+02  0.39477303439E+03  0.40481068252E+03  0.79814619297E+02 0.  0.
          5    1    5    5  501    0  0.37036961992E+02  0.24348765095E+02  0.11622380984E+04  0.11630924667E+04  0.47000000000E+01 0. -1.
        -13    1    6    6    0    0 -0.93288020150E+00 -0.23819150065E+02  0.15433553141E+03  0.15616554816E+03  0.00000000000E+00 0.  1.
         14    1    6    6    0    0 -0.13244242650E+02  0.61958050670E+02  0.24043750297E+03  0.24864513436E+03  0.00000000000E+00 0. -1.
         -5    1    3    3    0  503 -0.24918921185E+01  0.22864574331E+02 -0.37897829426E+02  0.44579521766E+02  0.47000000000E+01 0.  1.
         11    1    4    4    0    0  0.11352620849E+02 -0.85006096865E+02  0.52805697583E+02  0.10071425024E+03  0.00000000000E+00 0. -1.
        -12    1    4    4    0    0 -0.31720567872E+02 -0.34614316533E+00  0.32117584108E+02  0.45142590202E+02  0.00000000000E+00 0.  1.
</event>
<event>
12    1  0.8563264E-002  0.2082516E+03  0.7818608E-02  0.1143046E+00
         21   -1    0    0  503  502  0.00000000000E+00  0.00000000000E+00  0.25369416451E+03  0.25369416451E+03  0.00000000000E+00 0.  1.
         21   -1    0    0  501  503 -0.00000000000E+00 -0.00000000000E+00 -0.18430055535E+03  0.18430055535E+03  0.00000000000E+00 0. -1.
          6    2    1    2  501    0 -0.28015562575E+02  0.11331379358E+03 -0.25074754960E+02  0.20931809189E+03  0.17193147673E+03 0.  0.
         24    2    3    3    0    0 -0.49326921914E+02  0.19238870282E+02  0.26648354481E+02  0.99766116635E+02  0.80248762462E+02 0.  0.
         -6    2    1    2    0  502  0.28015562575E+02 -0.11331379358E+03  0.94468364117E+02  0.22867662797E+03  0.17246402755E+03 0.  0.
        -24    2    5    5    0    0  0.10803800414E+02 -0.23528624784E+02 -0.16727910635E+02  0.84647732220E+02  0.78835888326E+02 0.  0.
          5    1    3    3  501    0  0.21311359339E+02  0.94074923300E+02 -0.51723109441E+02  0.10955197525E+03  0.47000000000E+01 0. -1.
        -13    1    4    4    0    0 -0.19433813694E+02  0.45119215419E+02  0.33737905362E+02  0.59595830164E+02  0.00000000000E+00 0.  1.
         14    1    4    4    0    0 -0.29893108221E+02 -0.25880345137E+02 -0.70895508816E+01  0.40170286472E+02  0.00000000000E+00 0. -1.
         -5    1    5    5    0  502  0.17211762161E+02 -0.89785168798E+02  0.11119627475E+03  0.14402889575E+03  0.47000000000E+01 0. -1.
         11    1    6    6    0    0  0.35194484612E+02 -0.31988176341E+01 -0.33537812575E+02  0.48720314589E+02  0.00000000000E+00 0. -1.
        -12    1    6    6    0    0 -0.24390684198E+02 -0.20329807150E+02  0.16809901940E+02  0.35927417631E+02  0.00000000000E+00 0.  1.
</event>
<event>
12    1  0.8563264E-002  0.2890837E+03  0.7818608E-02  0.1090863E+00
         21   -1    0    0  501  502  0.00000000000E+00  0.00000000000E+00  0.18346575878E+03  0.18346575878E+03  0.00000000000E+00 0.  1.
         21   -1    0    0  502  503 -0.00000000000E+00 -0.00000000000E+00 -0.65754856057E+03  0.65754856057E+03  0.00000000000E+00 0.  1.
         -6    2    1    2    0  503  0.22737500998E+03 -0.50301478603E+02 -0.47045267386E+03  0.55217306174E+03  0.17128846389E+03 0.  0.
        -24    2    3    3    0    0  0.13867565939E+03 -0.91239215012E+02 -0.23933988658E+03  0.30121752086E+03  0.76765100803E+02 0.  0.
          6    2    1    2  501    0 -0.22737500998E+03  0.50301478603E+02 -0.36301279354E+01  0.28884125760E+03  0.17084045292E+03 0.  0.
         24    2    5    5    0    0 -0.60040189408E+02  0.26876310311E+02 -0.48190361788E+02  0.11403454971E+03  0.79714535421E+02 0.  0.
          5    1    5    5  501    0 -0.16733482057E+03  0.23425168292E+02  0.44560233853E+02  0.17480670790E+03  0.47000000000E+01 0. -1.
        -11    1    6    6    0    0 -0.75559734050E+02  0.12570895344E+02 -0.20643907995E+02  0.79331404606E+02  0.00000000000E+00 0.  1.
         12    1    6    6    0    0  0.15519544642E+02  0.14305414967E+02 -0.27546453794E+02  0.34703145101E+02  0.00000000000E+00 0. -1.
         -5    1    3    3    0  503  0.88699350590E+02  0.40937736409E+02 -0.23111278727E+03  0.25095554088E+03  0.47000000000E+01 0.  1.
         11    1    4    4    0    0  0.13171964861E+02 -0.55410905354E+01  0.35299323761E+01  0.14719536854E+02  0.00000000000E+00 0. -1.
        -12    1    4    4    0    0  0.12550369453E+03 -0.85698124477E+02 -0.24286981896E+03  0.28649798401E+03  0.00000000000E+00 0.  1.
</event>
<event>
12    1  0.8563264E-002  0.1963518E+03  0.7818608E-02  0.1152950E+00
         21   -1    0    0  503  502  0.00000000000E+00  0.00000000000E+00  0.28476868193E+02  0.28476868193E+02  0.00000000000E+00 0. -1.
         21   -1    0    0  501  503 -0.00000000000E+00 -0.00000000000E+00 -0.15089508863E+04  0.15089508863E+04  0.00000000000E+00 0. -1.
          6    2    1    2  501    0  0.90884243458E+02  0.24467527916E+02 -0.98833727452E+03  0.10075668308E+04  0.17181892967E+03 0.  0.
         24    2    3    3    0    0  0.11750963102E+03  0.30140099535E+02 -0.94735357922E+03  0.95814170949E+03  0.76418534463E+02 0.  0.
         -6    2    1    2    0  502 -0.90884243458E+02 -0.24467527916E+02 -0.49213674355E+03  0.52986092371E+03  0.17232358656E+03 0.  0.
        -24    2    5    5    0    0 -0.73237843202E+02  0.85528225276E+01 -0.47751689961E+03  0.48939403820E+03  0.77763762558E+02 0.  0.
          5    1    3    3  501    0 -0.26625387565E+02 -0.56725716193E+01 -0.40983695298E+02  0.49425121265E+02  0.47000000000E+01 0. -1.
        -13    1    4    4    0    0  0.52116930179E+02 -0.25031532574E+02 -0.37955607578E+03  0.38393432602E+03  0.00000000000E+00 0.  1.
         14    1    4    4    0    0  0.65392700844E+02  0.55171632109E+02 -0.56779750345E+03  0.57420738347E+03  0.00000000000E+00 0. -1.
         -5    1    5    5    0  502 -0.17646400256E+02 -0.33020350443E+02 -0.14619843943E+02  0.40466885503E+02  0.47000000000E+01 0.  1.
         11    1    6    6    0    0 -0.17757924263E+02 -0.21120920875E+02 -0.48602122436E+02  0.55889207170E+02  0.00000000000E+00 0. -1.
        -12    1    6    6    0    0 -0.55479918939E+02  0.29673743402E+02 -0.42891477717E+03  0.43350483103E+03  0.00000000000E+00 0.  1.
</event>
<event>
12    1  0.8563264E-002  0.1730531E+03  0.7818608E-02  0.1175126E+00
         21   -1    0    0  503  502  0.00000000000E+00  0.00000000000E+00  0.10318346345E+03  0.10318346345E+03  0.00000000000E+00 0.  1.
         21   -1    0    0  501  503 -0.00000000000E+00 -0.00000000000E+00 -0.38250054137E+03  0.38250054137E+03  0.00000000000E+00 0.  1.
          6    2    1    2  501    0 -0.26197521720E+01  0.85176952576E+01 -0.19112908674E+02  0.17410534656E+03  0.17282347696E+03 0.  0.
         24    2    3    3    0    0  0.25674262254E+01  0.57848905589E+02 -0.53767721061E+02  0.11341332769E+03  0.81354333106E+02 0.  0.
         -6    2    1    2    0  502  0.26197521720E+01 -0.85176952576E+01 -0.26020416925E+03  0.31157865826E+03  0.17115968086E+03 0.  0.
        -24    2    5    5    0    0 -0.66017021250E+02  0.68823129515E+01 -0.13950325236E+03  0.17179679872E+03  0.75148980720E+02 0.  0.
          5    1    3    3  501    0 -0.51871783974E+01 -0.49331210331E+02  0.34654812388E+02  0.60692018866E+02  0.47000000000E+01 0. -1.
        -13    1    4    4    0    0 -0.75206297807E+01  0.27255815560E+02  0.18842843963E+02  0.33977818098E+02  0.00000000000E+00 0.  1.
         14    1    4    4    0    0  0.10088056006E+02  0.30593090029E+02 -0.72610565024E+02  0.79435509595E+02  0.00000000000E+00 0. -1.
         -5    1    5    5    0  502  0.68636773422E+02 -0.15400008209E+02 -0.12070091689E+03  0.13978185954E+03  0.47000000000E+01 0.  1.
         13    1    6    6    0    0  0.23116984931E+01  0.20107715585E+02 -0.57844512798E+01  0.21050511931E+02  0.00000000000E+00 0. -1.
        -14    1    6    6    0    0 -0.68328719743E+02 -0.13225402633E+02 -0.13371880108E+03  0.15074628679E+03  0.00000000000E+00 0.  1.
</event>
<event>
12    1  0.8563264E-002  0.1834374E+03  0.7818608E-02  0.1165684E+00
         21   -1    0    0  501  502  0.00000000000E+00  0.00000000000E+00  0.19438497636E+03  0.19438497636E+03  0.00000000000E+00 0.  1.
         21   -1    0    0  502  503 -0.00000000000E+00 -0.00000000000E+00 -0.23302395728E+03  0.23302395728E+03  0.00000000000E+00 0.  1.
         -6    2    1    2    0  503  0.54861876263E+02 -0.32740089069E+02 -0.13191873202E+03  0.22594652127E+03  0.17195214368E+03 0.  0.
        -24    2    3    3    0    0  0.63049792867E+02 -0.81237927038E+02 -0.75516370079E+02  0.15096386528E+03  0.80699995674E+02 0.  0.
          6    2    1    2  501    0 -0.54861876263E+02  0.32740089069E+02  0.93279751108E+02  0.20146241237E+03  0.16674607261E+03 0.  0.
         24    2    5    5    0    0 -0.10089275795E+03  0.28847679023E+02  0.72978748847E+02  0.15078486687E+03  0.79991506434E+02 0.  0.
          5    1    5    5  501    0  0.46030881688E+02  0.38924100458E+01  0.20301002261E+02  0.50677545499E+02  0.47000000000E+01 0. -1.
        -13    1    6    6    0    0 -0.11185377693E+03  0.36198399581E+02  0.71260166503E+02  0.13747582652E+03  0.00000000000E+00 0.  1.
         14    1    6    6    0    0  0.10961018982E+02 -0.73507205573E+01  0.17185823434E+01  0.13309040353E+02  0.00000000000E+00 0. -1.
         -5    1    3    3    0  503 -0.81879166043E+01  0.48497837968E+02 -0.56402361946E+02  0.74982655988E+02  0.47000000000E+01 0.  1.
         11    1    4    4    0    0  0.13117514630E+02 -0.31134777707E+02  0.14257817982E+02  0.36670546036E+02  0.00000000000E+00 0. -1.
        -12    1    4    4    0    0  0.49932278237E+02 -0.50103149330E+02 -0.89774188061E+02  0.11429331925E+03  0.00000000000E+00 0.  1.
</event>
<event>
12    1  0.8563264E-002  0.1910113E+03  0.7818608E-02  0.1157656E+00
         21   -1    0    0  503  502  0.00000000000E+00  0.00000000000E+00  0.18244245382E+03  0.18244245382E+03  0.00000000000E+00 0.  1.
         21   -1    0    0  501  503 -0.00000000000E+00 -0.00000000000E+00 -0.35644284286E+03  0.35644284286E+03  0.00000000000E+00 0. -1.
          6    2    1    2  501    0 -0.64173316511E+02  0.48783619987E+02 -0.26584948585E+03  0.32735494623E+03  0.17316828683E+03 0.  0.
         24    2    3    3    0    0 -0.78852226322E+02  0.68407486386E+02 -0.11591668702E+03  0.17535987825E+03  0.80107120658E+02 0.  0.
         -6    2    1    2    0  502  0.64173316511E+02 -0.48783619987E+02  0.91849096804E+02  0.21153035045E+03  0.17265797533E+03 0.  0.
        -24    2    5    5    0    0  0.23164646136E+02 -0.61667550790E+02  0.12101642902E+03  0.15937165043E+03  0.80092816258E+02 0.  0.
          5    1    3    3  501    0  0.14678909811E+02 -0.19623866398E+02 -0.14993279883E+03  0.15199506798E+03  0.47000000000E+01 0. -1.
        -13    1    4    4    0    0 -0.51803965753E+01  0.43571368503E+02 -0.11833831908E+02  0.45446014562E+02  0.00000000000E+00 0.  1.
         14    1    4    4    0    0 -0.73671829746E+02  0.24836117882E+02 -0.10408285511E+03  0.12991386369E+03  0.00000000000E+00 0. -1.
         -5    1    5    5    0  502  0.41008670375E+02  0.12883930803E+02 -0.29167332218E+02  0.52158700018E+02  0.47000000000E+01 0.  1.
         13    1    6    6    0    0  0.17112997068E+02 -0.62734929928E+02  0.36379049852E+02  0.74511484818E+02  0.00000000000E+00 0. -1.
        -14    1    6    6    0    0  0.60516490685E+01  0.10673791376E+01  0.84637379171E+02  0.84860165612E+02  0.00000000000E+00 0.  1.
</event>
<event>
12    1  0.8563264E-002  0.2009957E+03  0.7818608E-02  0.1149119E+00
         21   -1    0    0  501  502  0.00000000000E+00  0.00000000000E+00  0.15446247870E+03  0.15446247870E+03  0.00000000000E+00 0. -1.
         21   -1    0    0  502  503 -0.00000000000E+00 -0.00000000000E+00 -0.26020580234E+03  0.26020580234E+03  0.00000000000E+00 0. -1.
         -6    2    1    2    0  503  0.55672505586E+02 -0.85319799751E+02 -0.53418046382E+02  0.20797296355E+03  0.17326387327E+03 0.  0.
        -24    2    3    3    0    0  0.15649269569E+02  0.17485367031E+02 -0.47813750819E+02  0.97409588657E+02  0.81558785527E+02 0.  0.
          6    2    1    2  501    0 -0.55672505586E+02  0.85319799751E+02 -0.52325277255E+02  0.20669531750E+03  0.17206430056E+03 0.  0.
         24    2    5    5    0    0 -0.25117770515E+02  0.13674052731E+02  0.33569964832E+02  0.90648828905E+02  0.79198393477E+02 0.  0.
          5    1    5    5  501    0 -0.30554735072E+02  0.71645747021E+02 -0.85895242087E+02  0.11604648859E+03  0.47000000000E+01 0. -1.
        -13    1    6    6    0    0 -0.45947221663E+02 -0.11314978658E+02  0.54212960795E+01  0.47629469572E+02  0.00000000000E+00 0.  1.
         14    1    6    6    0    0  0.20829451148E+02  0.24989031388E+02  0.28148668753E+02  0.43019359333E+02  0.00000000000E+00 0. -1.
         -5    1    3    3    0  503  0.40023236017E+02 -0.10280516678E+03 -0.56042955634E+01  0.11056337489E+03  0.47000000000E+01 0.  1.
         11    1    4    4    0    0 -0.12449213557E+02 -0.27502907239E+02 -0.26758828383E+02  0.40341389679E+02  0.00000000000E+00 0. -1.
        -12    1    4    4    0    0  0.28098483126E+02  0.44988274271E+02 -0.21054922436E+02  0.57068198978E+02  0.00000000000E+00 0.  1.
</event>
<event>
12    1  0.8563264E-002  0.2981964E+03  0.7818608E-02  0.1086528E+00
         21   -1    0    0  503  502  0.00000000000E+00  0.00000000000E+00  0.21701922844E+03  0.21701922844E+03  0.00000000000E+00 0.  1.
         21   -1    0    0  501  503 -0.00000000000E+00 -0.00000000000E+00 -0.50038971169E+03  0.50038971169E+03  0.00000000000E+00 0. -1.
          6    2    1    2  501    0  0.20986076872E+02 -0.23826456973E+03  0.13852814080E+02  0.29851798188E+03  0.17807488436E+03 0.  0.
         24    2    3    3    0    0  0.65421870195E+02 -0.18697138445E+03 -0.33005177534E+02  0.21591476183E+03  0.79319120836E+02 0.  0.
         -6    2    1    2    0  502 -0.20986076872E+02  0.23826456973E+03 -0.29722329734E+03  0.41889095825E+03  0.17296683444E+03 0.  0.
        -24    2    5    5    0    0 -0.22532345248E+02  0.25942823581E+03 -0.26709031531E+03  0.38173751542E+03  0.81089937930E+02 0.  0.
          5    1    3    3  501    0 -0.44435793324E+02 -0.51293185276E+02  0.46857991614E+02  0.82603220047E+02  0.47000000000E+01 0. -1.
        -13    1    4    4    0    0  0.33659172946E+02 -0.53158355544E+02 -0.45751512471E+02  0.77794290156E+02  0.00000000000E+00 0.  1.
         14    1    4    4    0    0  0.31762697250E+02 -0.13381302891E+03  0.12746334938E+02  0.13812047168E+03  0.00000000000E+00 0. -1.
         -5    1    5    5    0  502  0.15462683768E+01 -0.21163666082E+02 -0.30132982029E+02  0.37153442827E+02  0.47000000000E+01 0.  1.
         11    1    6    6    0    0  0.85062140238E+01 -0.25857697473E+01 -0.84537788340E+01  0.12268180744E+02  0.00000000000E+00 0. -1.
        -12    1    6    6    0    0 -0.31038559272E+02  0.26201400556E+03 -0.25863653647E+03  0.36946933468E+03  0.00000000000E+00 0.  1.
</event>
<event>
12    1  0.8563264E-002  0.2735963E+03  0.7818608E-02  0.1099326E+00
         21   -1    0    0  501  502  0.00000000000E+00  0.00000000000E+00  0.47414227625E+03  0.47414227625E+03  0.00000000000E+00 0. -1.
         21   -1    0    0  502  503 -0.00000000000E+00 -0.00000000000E+00 -0.19525289582E+03  0.19525289582E+03  0.00000000000E+00 0.  1.
         -6    2    1    2    0  503 -0.20945847709E+03 -0.35781771448E+02 -0.75660894035E+01  0.27370086539E+03  0.17234189628E+03 0.  0.
        -24    2    3    3    0    0 -0.10514110346E+03  0.40701742577E+02 -0.27240214016E+02  0.14277721001E+03  0.83258747011E+02 0.  0.
          6    2    1    2  501    0  0.20945847709E+03  0.35781771448E+02  0.28645546983E+03  0.39569430668E+03  0.17135944489E+03 0.  0.
         24    2    5    5    0    0  0.20402804846E+03  0.44778817859E+02  0.17559540068E+03  0.28423812098E+03  0.79529727724E+02 0.  0.
          5    1    5    5  501    0  0.54304286291E+01 -0.89970464115E+01  0.11086006915E+03  0.11145618570E+03  0.47000000000E+01 0. -1.
        -13    1    6    6    0    0  0.23821327421E+02  0.16091218151E+02 -0.30055339592E+01  0.28903566840E+02  0.00000000000E+00 0.  1.
         14    1    6    6    0    0  0.18020672104E+03  0.28687599708E+02  0.17860093464E+03  0.25533455414E+03  0.00000000000E+00 0. -1.
         -5    1    3    3    0  503 -0.10431737363E+03 -0.76483514024E+02  0.19674124612E+02  0.13092365538E+03  0.47000000000E+01 0.  1.
         13    1    4    4    0    0 -0.50039204680E+02  0.12259034450E+02  0.28950198715E+02  0.59095853800E+02  0.00000000000E+00 0. -1.
        -14    1    4    4    0    0 -0.55101898780E+02  0.28442708127E+02 -0.56190412731E+02  0.83681356213E+02  0.00000000000E+00 0.  1.
</event>
<event>
12    1  0.8563264E-002  0.2009644E+03  0.7818608E-02  0.1148960E+00
         21   -1    0    0  501  502  0.00000000000E+00  0.00000000000E+00  0.23668398026E+04  0.23668398026E+04  0.00000000000E+00 0. -1.
         21   -1    0    0  502  503 -0.00000000000E+00 -0.00000000000E+00 -0.17163423087E+02  0.17163423087E+02  0.00000000000E+00 0.  1.
         -6    2    1    2    0  503  0.86144863488E+02 -0.56178603668E+02  0.10776599884E+04  0.10962096079E+04  0.17247458012E+03 0.  0.
        -24    2    3    3    0    0  0.11885222578E+03 -0.59015776391E+02  0.72561223832E+03  0.74260314663E+03  0.85659789589E+02 0.  0.
          6    2    1    2  501    0 -0.86144863488E+02  0.56178603668E+02  0.12720163911E+04  0.12877936178E+04  0.17265494433E+03 0.  0.
         24    2    5    5    0    0 -0.62468444220E+02  0.77166452262E+02  0.53374737202E+03  0.54883198337E+03  0.80456950966E+02 0.  0.
          5    1    5    5  501    0 -0.23676419267E+02 -0.20987848594E+02  0.73826901906E+03  0.73896163441E+03  0.47000000000E+01 0. -1.
        -13    1    6    6    0    0 -0.12676354237E+02 -0.16737798959E+02  0.10760729295E+03  0.10963655124E+03  0.00000000000E+00 0.  1.
         14    1    6    6    0    0 -0.49792089984E+02  0.93904251221E+02  0.42614007906E+03  0.43919543213E+03  0.00000000000E+00 0. -1.
         -5    1    3    3    0  503 -0.32707362290E+02  0.28371727233E+01  0.35204775013E+03  0.35360646129E+03  0.47000000000E+01 0.  1.
         13    1    4    4    0    0  0.11810047786E+03 -0.21467501884E+02  0.57298772729E+03  0.58542592369E+03  0.00000000000E+00 0. -1.
        -14    1    4    4    0    0  0.75174791805E+00 -0.37548274507E+02  0.15262451103E+03  0.15717722294E+03  0.00000000000E+00 0.  1.
</event>
<event>
12    1  0.8563264E-002  0.2302837E+03  0.7818608E-02  0.1126807E+00
         21   -1    0    0  503  502  0.00000000000E+00  0.00000000000E+00  0.82486437019E+02  0.82486437019E+02  0.00000000000E+00 0.  1.
         21   -1    0    0  501  503 -0.00000000000E+00 -0.00000000000E+00 -0.88235370654E+03  0.88235370654E+03  0.00000000000E+00 0.  1.
          6    2    1    2  501    0  0.81644962098E+02  0.12775649891E+03 -0.65557110308E+03  0.69484101470E+03  0.17332899833E+03 0.  0.
         24    2    3    3    0    0 -0.15877005195E+02  0.97165287129E+02 -0.32547382132E+03  0.34925070556E+03  0.79684845825E+02 0.  0.
         -6    2    1    2    0  502 -0.81644962098E+02 -0.12775649891E+03 -0.14429616644E+03  0.26999912886E+03  0.17055944151E+03 0.  0.
        -24    2    5    5    0    0  0.90615916766E+01 -0.10440005241E+03 -0.10206787559E+03  0.16714719141E+03  0.80863149702E+02 0.  0.
          5    1    3    3  501    0  0.97521967293E+02  0.30591211781E+02 -0.33009728176E+03  0.34559030914E+03  0.47000000000E+01 0. -1.
        -13    1    4    4    0    0  0.27597471142E+02  0.57178630741E+02 -0.21229323990E+03  0.22158392526E+03  0.00000000000E+00 0.  1.
         14    1    4    4    0    0 -0.43474476337E+02  0.39986656388E+02 -0.11318058142E+03  0.12766678030E+03  0.00000000000E+00 0. -1.
         -5    1    5    5    0  502 -0.90706553775E+02 -0.23356446500E+02 -0.42228290847E+02  0.10285193746E+03  0.47000000000E+01 0.  1.
         11    1    6    6    0    0  0.43911396224E+02 -0.66358875200E+02 -0.72704258518E+02  0.10778506503E+03  0.00000000000E+00 0. -1.
        -12    1    6    6    0    0 -0.34849804547E+02 -0.38041177209E+02 -0.29363617077E+02  0.59362126379E+02  0.00000000000E+00 0.  1.
</event>
<event>
12    1  0.8563264E-002  0.1748919E+03  0.7818608E-02  0.1172945E+00
         21   -1    0    0  503  502  0.00000000000E+00  0.00000000000E+00  0.13507268214E+03  0.13507268214E+03  0.00000000000E+00 0. -1.
         21   -1    0    0  501  503 -0.00000000000E+00 -0.00000000000E+00 -0.23763453778E+03  0.23763453778E+03  0.00000000000E+00 0.  1.
          6    2    1    2  501    0  0.31626340899E+02  0.11477903796E+02 -0.98291375222E+01  0.17475130617E+03  0.17119999810E+03 0.  0.
         24    2    3    3    0    0  0.45037624184E+01 -0.45363704346E+02  0.30103908636E+02  0.10002954994E+03  0.83794486677E+02 0.  0.
         -6    2    1    2    0  502 -0.31626340899E+02 -0.11477903796E+02 -0.92732718116E+02  0.19795591375E+03  0.17162522852E+03 0.  0.
        -24    2    5    5    0    0  0.45179231261E+01 -0.57989595015E+02 -0.13410613312E+02  0.99042661086E+02  0.79034166070E+02 0.  0.
          5    1    3    3  501    0  0.27122578481E+02  0.56841608142E+02 -0.39933046158E+02  0.74721756236E+02  0.47000000000E+01 0. -1.
        -11    1    4    4    0    0  0.94400670406E+01 -0.48290787747E+02 -0.17392071374E+02  0.52188113528E+02  0.00000000000E+00 0.  1.
         12    1    4    4    0    0 -0.49363046222E+01  0.29270834009E+01  0.47495980010E+02  0.47841436409E+02  0.00000000000E+00 0. -1.
         -5    1    5    5    0  502 -0.36144264025E+02  0.46511691219E+02 -0.79322104804E+02  0.98913252664E+02  0.47000000000E+01 0.  1.
         13    1    6    6    0    0  0.25240947079E+02 -0.68705781327E+02 -0.17739711088E+02  0.75314587874E+02  0.00000000000E+00 0. -1.
        -14    1    6    6    0    0 -0.20723023953E+02  0.10716186312E+02  0.43290977760E+01  0.23728073213E+02  0.00000000000E+00 0.  1.
</event>
<event>
12    1  0.8563264E-002  0.1812500E+03  0.7818608E-02  0.1167705E+00
         21   -1    0    0  501  502  0.00000000000E+00  0.00000000000E+00  0.78693698790E+03  0.78693698790E+03  0.00000000000E+00 0.  1.
         21   -1    0    0  502  503 -0.00000000000E+00 -0.00000000000E+00 -0.47345834619E+02  0.47345834619E+02  0.00000000000E+00 0.  1.
         -6    2    1    2    0  503 -0.91529603558E+01 -0.37624236152E+02  0.20952803862E+03  0.27408780790E+03  0.17240292237E+03 0.  0.
        -24    2    3    3    0    0 -0.11697133545E+02  0.46908552711E+02  0.11761918931E+03  0.14910144148E+03  0.77844273425E+02 0.  0.
          6    2    1    2  501    0  0.91529603558E+01  0.37624236152E+02  0.53006311466E+03  0.56019501463E+03  0.17706549368E+03 0.  0.
         24    2    5    5    0    0  0.42972738080E+02 -0.28418991532E+01  0.13679181310E+03  0.16337554420E+03  0.78261329554E+02 0.  0.
          5    1    5    5  501    0 -0.33819777724E+02  0.40466135306E+02  0.39327130156E+03  0.39681947042E+03  0.47000000000E+01 0. -1.
        -11    1    6    6    0    0  0.39892465411E+02  0.21942834211E+02  0.12963087809E+03  0.13739381836E+03  0.00000000000E+00 0.  1.
         12    1    6    6    0    0  0.30802726684E+01 -0.24784733364E+02  0.71609350155E+01  0.25981725846E+02  0.00000000000E+00 0. -1.
         -5    1    3    3    0  503  0.25441731889E+01 -0.84532788863E+02  0.91908849307E+02  0.12498636642E+03  0.47000000000E+01 0.  1.
         11    1    4    4    0    0  0.32543906402E+02  0.10795260918E+02  0.49404941177E+02  0.60137273923E+02  0.00000000000E+00 0. -1.
        -12    1    4    4    0    0 -0.44241039947E+02  0.36113291793E+02  0.68214248135E+02  0.88964167553E+02  0.00000000000E+00 0.  1.
</event>
<event>
12    1  0.8563264E-002  0.2350652E+03  0.7818608E-02  0.1123153E+00
         21   -1    0    0  501  502  0.00000000000E+00  0.00000000000E+00  0.93755304244E+03  0.93755304244E+03  0.00000000000E+00 0. -1.
         21   -1    0    0  502  503 -0.00000000000E+00 -0.00000000000E+00 -0.58903336402E+02  0.58903336402E+02  0.00000000000E+00 0. -1.
         -6    2    1    2    0  503 -0.95369137622E+02  0.12779389955E+03  0.44523020425E+03  0.50339643329E+03  0.17248617655E+03 0.  0.
        -24    2    3    3    0    0 -0.10798797169E+03  0.70249455863E+02  0.40330677508E+03  0.43093774240E+03  0.80340493653E+02 0.  0.
          6    2    1    2  501    0  0.95369137622E+02 -0.12779389955E+03  0.43341950178E+03  0.49305994554E+03  0.17271100776E+03 0.  0.
         24    2    5    5    0    0  0.68427211432E+02 -0.40166084124E+02  0.11283106057E+03  0.15958799760E+03  0.80261342950E+02 0.  0.
          5    1    5    5  501    0  0.26941926190E+02 -0.87627815425E+02  0.32058844121E+03  0.33347194794E+03  0.47000000000E+01 0. -1.
        -11    1    6    6    0    0  0.48337723495E+02 -0.38101491772E+02  0.20196739026E+02  0.64777831510E+02  0.00000000000E+00 0.  1.
         12    1    6    6    0    0  0.20089487937E+02 -0.20645923520E+01  0.92634321541E+02  0.94810166093E+02  0.00000000000E+00 0. -1.
         -5    1    3    3    0  503  0.12618834067E+02  0.57544443686E+02  0.41923429171E+02  0.72458690892E+02  0.47000000000E+01 0.  1.
         13    1    4    4    0    0 -0.97114807038E+01 -0.27318108910E+01  0.67725580624E+00  0.10111099032E+02  0.00000000000E+00 0. -1.
        -14    1    4    4    0    0 -0.98276490985E+02  0.72981266754E+02  0.40262951928E+03  0.42082664337E+03  0.00000000000E+00 0.  1.
</event>
<event>
12    1  0.8563264E-002  0.3038574E+03  0.7818608E-02  0.1083342E+00
         21   -1    0    0  503  502  0.00000000000E+00  0.00000000000E+00  0.50300201022E+03  0.50300201022E+03  0.00000000000E+00 0.  1.
         21   -1    0    0  501  503 -0.00000000000E+00 -0.00000000000E+00 -0.19216094508E+03  0.19216094508E+03  0.00000000000E+00 0. -1.
          6    2    1    2  501    0  0.23922135739E+03  0.74207153838E+02  0.22928327737E+03  0.38065748467E+03  0.17203412406E+03 0.  0.
         24    2    3    3    0    0  0.56356166211E+02  0.69723293555E+02  0.10541748158E+03  0.15969457259E+03  0.79700413787E+02 0.  0.
         -6    2    1    2    0  502 -0.23922135739E+03 -0.74207153838E+02  0.81557787778E+02  0.31450547063E+03  0.17183846717E+03 0.  0.
        -24    2    5    5    0    0 -0.93295124556E+02  0.25630794882E+02  0.50180015175E+02  0.13487046278E+03  0.79442368383E+02 0.  0.
          5    1    3    3  501    0  0.18286519118E+03  0.44838602822E+01  0.12386579578E+03  0.22096291208E+03  0.47000000000E+01 0. -1.
        -11    1    4    4    0    0 -0.10290608787E+02 -0.85339123465E+01  0.27944259377E+02  0.30977506699E+02  0.00000000000E+00 0.  1.
         12    1    4    4    0    0  0.66646774998E+02  0.78257205902E+02  0.77473222207E+02  0.12871706589E+03  0.00000000000E+00 0. -1.
         -5    1    5    5    0  502 -0.14592623283E+03 -0.99837948719E+02  0.31377772603E+02  0.17963500786E+03  0.47000000000E+01 0.  1.
         13    1    6    6    0    0 -0.62465580560E+02 -0.50074629427E+01 -0.69895608361E+01  0.63054558919E+02  0.00000000000E+00 0. -1.
        -14    1    6    6    0    0 -0.30829543996E+02  0.30638257824E+02  0.57169576011E+02  0.71815903857E+02  0.00000000000E+00 0.  1.
</event>
<event>
12    1  0.8563264E-002  0.2107584E+03  0.7818608E-02  0.1141820E+00
         21   -1    0    0  503  502  0.00000000000E+00  0.00000000000E+00  0.67846364089E+02  0.67846364089E+02  0.00000000000E+00 0. -1.
         21   -1    0    0  501  503 -0.00000000000E+00 -0.00000000000E+00 -0.70242024280E+03  0.70242024280E+03  0.00000000000E+00 0.  1.
          6    2    1    2  501    0  0.75105338141E+01 -0.11661539077E+03 -0.43370083454E+03  0.48219864914E+03  0.17539545566E+03 0.  0.
         24    2    3    3    0    0  0.12284217805E+02 -0.48747877676E+02 -0.38893699929E+03  0.40062243729E+03  0.81847970421E+02 0.  0.
         -6    2    1    2    0  502 -0.75105338141E+01  0.11661539077E+03 -0.20087304417E+03  0.28806795775E+03  0.17022811438E+03 0.  0.
        -24    2    5    5    0    0  0.37628947797E+02  0.37776266144E+02 -0.16307745173E+03  0.18956020588E+03  0.80596726941E+02 0.  0.
          5    1    3    3  501    0 -0.47736839905E+01 -0.67867513094E+02 -0.44763835254E+02  0.81576211846E+02  0.47000000000E+01 0. -1.
        -11    1    4    4    0    0  0.12069438763E+02  0.21850714990E+02 -0.84721946477E+02  0.88322892346E+02  0.00000000000E+00 0.  1.
         12    1    4    4    0    0  0.21477904164E+00 -0.70598592666E+02 -0.30421505281E+03  0.31229954494E+03  0.00000000000E+00 0. -1.
         -5    1    5    5    0  502 -0.45139481611E+02  0.78839124626E+02 -0.37795592445E+02  0.98507751879E+02  0.47000000000E+01 0.  1.
         11    1    6    6    0    0  0.26767705472E+02  0.21205094746E+02 -0.10536276519E+02  0.35737644330E+02  0.00000000000E+00 0. -1.
        -12    1    6    6    0    0  0.10861242325E+02  0.16571171398E+02 -0.15254117521E+03  0.15382256155E+03  0.00000000000E+00 0.  1.
</event>
<event>
12    1  0.8563264E-002  0.2061872E+03  0.7818608E-02  0.1144884E+00
         21   -1    0    0  503  502  0.00000000000E+00  0.00000000000E+00  0.83586909718E+02  0.83586909718E+02  0.00000000000E+00 0.  1.
         21   -1    0    0  501  503 -0.00000000000E+00 -0.00000000000E+00 -0.54818958238E+03  0.54818958238E+03  0.00000000000E+00 0. -1.
          6    2    1    2  501    0 -0.11206516894E+03  0.78350096170E+01 -0.31985561346E+03  0.37985411887E+03  0.17135211903E+03 0.  0.
         24    2    3    3    0    0 -0.80939100955E+02  0.46619600765E+02 -0.11253387476E+03  0.16659964657E+03  0.79793759339E+02 0.  0.
         -6    2    1    2    0  502  0.11206516894E+03 -0.78350096170E+01 -0.14474705920E+03  0.25192237323E+03  0.17289644739E+03 0.  0.
        -24    2    5    5    0    0  0.77680551952E+02 -0.22566371310E+02 -0.17402936292E+03  0.20418498522E+03  0.69726463871E+02 0.  0.
          5    1    3    3  501    0 -0.31126067983E+02 -0.38784591149E+02 -0.20732173870E+03  0.21325447230E+03  0.47000000000E+01 0. -1.
        -11    1    4    4    0    0 -0.95743282946E+02  0.29464442527E+02 -0.92725387246E+02  0.13650247999E+03  0.00000000000E+00 0.  1.
         12    1    4    4    0    0  0.14804181992E+02  0.17155158238E+02 -0.19808487513E+02  0.30097166580E+02  0.00000000000E+00 0. -1.
         -5    1    5    5    0  502  0.34384616986E+02  0.14731361694E+02  0.29282303722E+02  0.47737388009E+02  0.47000000000E+01 0.  1.
         11    1    6    6    0    0  0.79163693308E+02  0.42057801022E+01 -0.11926129985E+03  0.14320557449E+03  0.00000000000E+00 0. -1.
        -12    1    6    6    0    0 -0.14831413561E+01 -0.26772151413E+02 -0.54768063075E+02  0.60979410726E+02  0.00000000000E+00 0.  1.
</event>
<event>
12    1  0.8563264E-002  0.2444697E+03  0.7818608E-02  0.1117102E+00
         21   -1    0    0  503  502  0.00000000000E+00  0.00000000000E+00  0.69371273158E+02  0.69371273158E+02  0.00000000000E+00 0.  1.
         21   -1    0    0  501  503 -0.00000000000E+00 -0.00000000000E+00 -0.85893474919E+03  0.85893474919E+03  0.00000000000E+00 0.  1.
          6    2    1    2  501    0  0.17142394768E+03  0.10658213756E+01 -0.42269289610E+03  0.48829778056E+03  0.17429323644E+03 0.  0.
         24    2    3    3    0    0  0.14357982377E+03 -0.23049569580E+01 -0.17962290243E+03  0.24356983118E+03  0.80258313982E+02 0.  0.
         -6    2    1    2    0  502 -0.17142394768E+03 -0.10658213756E+01 -0.36687057993E+03  0.44000824179E+03  0.17212183072E+03 0.  0.
        -24    2    5    5    0    0 -0.33124864744E+02 -0.38018289773E+02 -0.19134575651E+03  0.21346205467E+03  0.80063744775E+02 0.  0.
          5    1    3    3  501    0  0.27844123907E+02  0.33707783336E+01 -0.24306999367E+03  0.24472794937E+03  0.47000000000E+01 0. -1.
        -13    1    4    4    0    0  0.25504752942E+02 -0.15653486677E+02 -0.89679227774E+02  0.94540403859E+02  0.00000000000E+00 0.  1.
         14    1    4    4    0    0  0.11807507083E+03  0.13348529719E+02 -0.89943674658E+02  0.14902942732E+03  0.00000000000E+00 0. -1.
         -5    1    5    5    0  502 -0.13829908294E+03  0.36952468398E+02 -0.17552482341E+03  0.22654618712E+03  0.47000000000E+01 0.  1.
         13    1    6    6    0    0 -0.26328906327E+02 -0.69746215597E-01 -0.16423415211E+03  0.16633121443E+03  0.00000000000E+00 0. -1.
        -14    1    6    6    0    0 -0.67959584168E+01 -0.37948543558E+02 -0.27111604402E+02  0.47130840245E+02  0.00000000000E+00 0.  1.
</event>
<event>
12    1  0.8563264E-002  0.1958485E+03  0.7818608E-02  0.1153479E+00
         21   -1    0    0  501  502  0.00000000000E+00  0.00000000000E+00  0.10454594459E+04  0.10454594459E+04  0.00000000000E+00 0.  1.
         21   -1    0    0  502  503 -0.00000000000E+00 -0.00000000000E+00 -0.38994978785E+02  0.38994978785E+02  0.00000000000E+00 0.  1.
         -6    2    1    2    0  503  0.76920743978E+02  0.52577842274E+02  0.36572118855E+03  0.41444800681E+03  0.17127151615E+03 0.  0.
        -24    2    3    3    0    0  0.11154412587E+03  0.97501065617E+01  0.28122656049E+03  0.31348055814E+03  0.81513958412E+02 0.  0.
          6    2    1    2  501    0 -0.76920743978E+02 -0.52577842274E+02  0.64074327852E+03  0.67000641783E+03  0.17226555259E+03 0.  0.
         24    2    5    5    0    0 -0.10710319254E+03 -0.62160364943E+02  0.60136472640E+03  0.61925639015E+03  0.80646994726E+02 0.  0.
          5    1    5    5  501    0  0.30182448567E+02  0.95825226688E+01  0.39378552119E+02  0.50750027677E+02  0.47000000000E+01 0. -1.
        -11    1    6    6    0    0 -0.67116969364E+02 -0.74759000161E+02  0.33937844616E+03  0.35393689466E+03  0.00000000000E+00 0.  1.
         12    1    6    6    0    0 -0.39986223181E+02  0.12598635218E+02  0.26198628024E+03  0.26531949549E+03  0.00000000000E+00 0. -1.
         -5    1    3    3    0  503 -0.34623381888E+02  0.42827735712E+02  0.84494628055E+02  0.10096744866E+03  0.47000000000E+01 0.  1.
         11    1    4    4    0    0 -0.20833485987E+00  0.21971864931E+02  0.22818310255E+02  0.31677776672E+02  0.00000000000E+00 0. -1.
        -12    1    4    4    0    0  0.11175246073E+03 -0.12221758370E+02  0.25840825024E+03  0.28180278147E+03  0.00000000000E+00 0.  1.
</event>
<event>
12    1  0.8563264E-002  0.1986626E+03  0.7818608E-02  0.1151188E+00
         21   -1    0    0  501  502  0.00000000000E+00  0.00000000000E+00  0.69045245806E+02  0.69045245806E+02  0.00000000000E+00 0.  1.
         21   -1    0    0  502  503 -0.00000000000E+00 -0.00000000000E+00 -0.61459374312E+03  0.61459374312E+03  0.00000000000E+00 0.  1.
         -6    2    1    2    0  503 -0.96925136993E+02 -0.16861815081E+02 -0.36659098302E+03  0.41625792093E+03  0.17088857457E+03 0.  0.
        -24    2    3    3    0    0  0.14695006465E+02  0.15367156367E+01 -0.18726901518E+03  0.20418241431E+03  0.80015433247E+02 0.  0.
          6    2    1    2  501    0  0.96925136993E+02  0.16861815081E+02 -0.17895751429E+03  0.26738106799E+03  0.17259212210E+03 0.  0.
         24    2    5    5    0    0  0.10722114197E+03  0.37948974376E+02 -0.69890892102E+02  0.15571955232E+03  0.80170719316E+02 0.  0.
          5    1    5    5  501    0 -0.10296004975E+02 -0.21087159295E+02 -0.10906662219E+03  0.11166151567E+03  0.47000000000E+01 0. -1.
        -13    1    6    6    0    0  0.15275767291E+02 -0.20616275479E+02 -0.30383115826E+02  0.39768248745E+02  0.00000000000E+00 0.  1.
         14    1    6    6    0    0  0.91945374677E+02  0.58565249855E+02 -0.39507776275E+02  0.11595130358E+03  0.00000000000E+00 0. -1.
         -5    1    3    3    0  503 -0.11162014346E+03 -0.18398530718E+02 -0.17932196785E+03  0.21207550662E+03  0.47000000000E+01 0.  1.
         11    1    4    4    0    0  0.47977059406E+01  0.29428723128E+02 -0.24066128419E+02  0.38317701709E+02  0.00000000000E+00 0. -1.
        -12    1    4    4    0    0  0.98973005249E+01 -0.27892007491E+02 -0.16320288676E+03  0.16586471260E+03  0.00000000000E+00 0.  1.
</event>
<event>
12    1  0.8563264E-002  0.2316661E+03  0.7818608E-02  0.1125687E+00
         21   -1    0    0  503  502  0.00000000000E+00  0.00000000000E+00  0.90423413393E+02  0.90423413393E+02  0.00000000000E+00 0.  1.
         21   -1    0    0  501  503 -0.00000000000E+00 -0.00000000000E+00 -0.13099146553E+04  0.13099146553E+04  0.00000000000E+00 0. -1.
          6    2    1    2  501    0 -0.84323067579E+02  0.13112824051E+03 -0.11279394498E+04  0.11512378706E+04  0.16969454068E+03 0.  0.
         24    2    3    3    0    0 -0.72328039153E+01  0.55007337847E+02 -0.29475685952E+03  0.31102800438E+03  0.82332816085E+02 0.  0.
         -6    2    1    2    0  502  0.84323067579E+02 -0.13112824051E+03 -0.91551792200E+02  0.24910019817E+03  0.17135980534E+03 0.  0.
        -24    2    5    5    0    0  0.35511196180E+02  0.42525963861E+01 -0.32074244113E+02  0.93311114743E+02  0.79994233349E+02 0.  0.
          5    1    3    3  501    0 -0.77090263664E+02  0.76120902665E+02 -0.83318259024E+03  0.84020986619E+03  0.47000000000E+01 0. -1.
        -11    1    4    4    0    0 -0.54831685404E+01  0.49647241661E+01 -0.22520413539E+03  0.22532557827E+03  0.00000000000E+00 0.  1.
         12    1    4    4    0    0 -0.17496353748E+01  0.50042613681E+02 -0.69552724124E+02  0.85702426109E+02  0.00000000000E+00 0. -1.
         -5    1    5    5    0  502  0.48811871400E+02 -0.13538083690E+03 -0.59477548087E+02  0.15578908343E+03  0.47000000000E+01 0.  1.
         11    1    6    6    0    0  0.21041538368E+02 -0.28733134828E+02 -0.42846454718E+02  0.55714971559E+02  0.00000000000E+00 0. -1.
        -12    1    6    6    0    0  0.14469657812E+02  0.32985731214E+02  0.10772210605E+02  0.37596143184E+02  0.00000000000E+00 0.  1.
</event>
<event>
12    1  0.8563264E-002  0.3036322E+03  0.7818608E-02  0.1083466E+00
         21   -1    0    0  503  502  0.00000000000E+00  0.00000000000E+00  0.10299052365E+04  0.10299052365E+04  0.00000000000E+00 0.  1.
         21   -1    0    0  501  503 -0.00000000000E+00 -0.00000000000E+00 -0.93694639368E+02  0.93694639368E+02  0.00000000000E+00 0.  1.
          6    2    1    2  501    0  0.15882659139E+03  0.19316053193E+03  0.34837246675E+03  0.46197598812E+03  0.17181839475E+03 0.  0.
         24    2    3    3    0    0  0.93577274687E+02  0.16842577203E+03  0.16558027393E+03  0.26626099780E+03  0.79712889875E+02 0.  0.
         -6    2    1    2    0  502 -0.15882659139E+03 -0.19316053193E+03  0.58783813036E+03  0.66162388774E+03  0.17220808368E+03 0.  0.
        -24    2    5    5    0    0 -0.14506186357E+02 -0.36300437185E+02  0.20562234493E+03  0.22396595593E+03  0.79699745926E+02 0.  0.
          5    1    3    3  501    0  0.65249316708E+02  0.24734759906E+02  0.18279219283E+03  0.19571499032E+03  0.47000000000E+01 0. -1.
        -11    1    4    4    0    0  0.72854694528E+02  0.11259701506E+03  0.15636798677E+03  0.20600204272E+03  0.00000000000E+00 0.  1.
         12    1    4    4    0    0  0.20722580158E+02  0.55828756964E+02  0.92122871551E+01  0.60258955079E+02  0.00000000000E+00 0. -1.
         -5    1    5    5    0  502 -0.14432040504E+03 -0.15686009475E+03  0.38221578543E+03  0.43765793180E+03  0.47000000000E+01 0.  1.
         13    1    6    6    0    0 -0.13870053688E+02 -0.21081533054E+02  0.90567834928E+01  0.26811093832E+02  0.00000000000E+00 0. -1.
        -14    1    6    6    0    0 -0.63613266923E+00 -0.15218904131E+02  0.19656556144E+03  0.19715486210E+03  0.00000000000E+00 0.  1.
</event>
<event>
12    1  0.8563264E-002  0.1983017E+03  0.7818608E-02  0.1152162E+00
         21   -1    0    0  501  502  0.00000000000E+00  0.00000000000E+00  0.58812809640E+02  0.58812809640E+02  0.00000000000E+00 0.  1.
         21   -1    0    0  502  503 -0.00000000000E+00 -0.00000000000E+00 -0.68260843240E+03  0.68260843240E+03  0.00000000000E+00 0.  1.
         -6    2    1    2    0  503 -0.54664188906E+02  0.80136693453E+02 -0.38514021665E+03  0.43113111323E+03  0.16772294752E+03 0.  0.
        -24    2    3    3    0    0  0.70711403995E+01  0.93330274198E+02 -0.30509442835E+03  0.32907848131E+03  0.80308751329E+02 0.  0.
          6    2    1    2  501    0  0.54664188906E+02 -0.80136693453E+02 -0.23865540611E+03  0.31029012881E+03  0.17295519069E+03 0.  0.
         24    2    5    5    0    0 -0.29131463533E+02 -0.49447792282E+02 -0.17091177663E+03  0.19815267139E+03  0.82218729364E+02 0.  0.
          5    1    5    5  501    0  0.83795652439E+02 -0.30688901171E+02 -0.67743629477E+02  0.11213745742E+03  0.47000000000E+01 0. -1.
        -11    1    6    6    0    0 -0.50970943657E+02 -0.41941467598E+02 -0.76893307650E+02  0.10133955083E+03  0.00000000000E+00 0.  1.
         12    1    6    6    0    0  0.21839480124E+02 -0.75063246842E+01 -0.94018468984E+02  0.96813120559E+02  0.00000000000E+00 0. -1.
         -5    1    3    3    0  503 -0.61735329306E+02 -0.13193580744E+02 -0.80045788302E+02  0.10205263192E+03  0.47000000000E+01 0.  1.
         13    1    4    4    0    0  0.18095376479E+01  0.16417554228E+02 -0.23629539500E+01  0.16685145031E+02  0.00000000000E+00 0. -1.
        -14    1    4    4    0    0  0.52616027515E+01  0.76912719969E+02 -0.30273147440E+03  0.31239333628E+03  0.00000000000E+00 0.  1.
</event>
<event>
12    1  0.8563264E-002  0.2173079E+03  0.7818608E-02  0.1135944E+00
         21   -1    0    0  501  502  0.00000000000E+00  0.00000000000E+00  0.18496763246E+03  0.18496763246E+03  0.00000000000E+00 0.  1.
         21   -1    0    0  502  503 -0.00000000000E+00 -0.00000000000E+00 -0.61985146142E+03  0.61985146142E+03  0.00000000000E+00 0. -1.
         -6    2    1    2    0  503 -0.77206426290E+02 -0.10733327374E+03 -0.52610500516E+03  0.56914129299E+03  0.17220357436E+03 0.  0.
        -24    2    3    3    0    0 -0.52803771549E+02 -0.20458004783E+02 -0.41217134726E+03  0.42372543994E+03  0.80319740448E+02 0.  0.
          6    2    1    2  501    0  0.77206426290E+02  0.10733327374E+03  0.91221176202E+02  0.23567780088E+03  0.17245712200E+03 0.  0.
         24    2    5    5    0    0  0.11163040172E+03  0.11796986568E+03  0.80373592201E+02  0.19775805337E+03  0.79183947566E+02 0.  0.
          5    1    5    5  501    0 -0.34423975433E+02 -0.10636591941E+02  0.10847584002E+02  0.37919747512E+02  0.47000000000E+01 0. -1.
        -13    1    6    6    0    0  0.51382925036E+02  0.14130160001E+02  0.51875205860E+02  0.74370043632E+02  0.00000000000E+00 0.  1.
         14    1    6    6    0    0  0.60247476687E+02  0.10383970568E+03  0.28498386341E+02  0.12338800974E+03  0.00000000000E+00 0. -1.
         -5    1    3    3    0  503 -0.24402654741E+02 -0.86875268961E+02 -0.11393365790E+03  0.14541585305E+03  0.47000000000E+01 0.  1.
         13    1    4    4    0    0 -0.60054186537E+01 -0.43991307844E+02 -0.22627563047E+03  0.23059046200E+03  0.00000000000E+00 0. -1.
        -14    1    4    4    0    0 -0.46798352895E+02  0.23533303061E+02 -0.18589571679E+03  0.19313497795E+03  0.00000000000E+00 0.  1.
</event>
<event>
12    1  0.8563264E-002  0.1899105E+03  0.7818608E-02  0.1159084E+00
         21   -1    0    0  503  502  0.00000000000E+00  0.00000000000E+00  0.17090133082E+03  0.17090133082E+03  0.00000000000E+00 0.  1.
         21   -1    0    0  501  503 -0.00000000000E+00 -0.00000000000E+00 -0.21168521910E+03  0.21168521910E+03  0.00000000000E+00 0.  1.
          6    2    1    2  501    0 -0.57746785338E+02 -0.57310435318E+02 -0.44385041913E+02  0.19502832231E+03  0.17160080811E+03 0.  0.
         24    2    3    3    0    0 -0.43214032961E+02 -0.80287300655E+02  0.22608344262E+02  0.12257598609E+03  0.78741550942E+02 0.  0.
         -6    2    1    2    0  502  0.57746785338E+02  0.57310435318E+02  0.36011536369E+01  0.18755822760E+03  0.16895544745E+03 0.  0.
        -24    2    5    5    0    0  0.77828250950E+02  0.33983472864E+01  0.42201200290E+02  0.11811881445E+03  0.78117396347E+02 0.  0.
          5    1    3    3  501    0 -0.14532752378E+02  0.22976865337E+02 -0.66993386175E+02  0.72452336219E+02  0.47000000000E+01 0. -1.
        -11    1    4    4    0    0 -0.22649116502E+02 -0.74250203760E+02 -0.15212565963E+02  0.79104345012E+02  0.00000000000E+00 0.  1.
         12    1    4    4    0    0 -0.20564916459E+02 -0.60370968958E+01  0.37820910225E+02  0.43471641079E+02  0.00000000000E+00 0. -1.
         -5    1    5    5    0  502 -0.20081465611E+02  0.53912088032E+02 -0.38600046653E+02  0.69439413150E+02  0.47000000000E+01 0.  1.
         13    1    6    6    0    0  0.61056057818E+01 -0.76083776002E+01 -0.20188970928E+02  0.22422318765E+02  0.00000000000E+00 0. -1.
        -14    1    6    6    0    0  0.71722645168E+02  0.11006724887E+02  0.62390171218E+02  0.95696495689E+02  0.00000000000E+00 0.  1.
</event>
<event>
12    1  0.8563264E-002  0.1959803E+03  0.7818608E-02  0.1154387E+00
         21   -1    0    0  501  502  0.00000000000E+00  0.00000000000E+00  0.49103287341E+02  0.49103287341E+02  0.00000000000E+00 0.  1.
         21   -1    0    0  502  503 -0.00000000000E+00 -0.00000000000E+00 -0.81686721520E+03  0.81686721520E+03  0.00000000000E+00 0.  1.
         -6    2    1    2    0  503 -0.14699820964E+02  0.82760469536E+02 -0.27510085863E+03  0.33777028048E+03  0.17703926089E+03 0.  0.
        -24    2    3    3    0    0 -0.41393294079E+02  0.11968143262E+03 -0.20858997527E+03  0.25701455853E+03  0.80682435538E+02 0.  0.
          6    2    1    2  501    0  0.14699820964E+02 -0.82760469536E+02 -0.49266306922E+03  0.52820022206E+03  0.17091867878E+03 0.  0.
         24    2    5    5    0    0  0.43337433362E+02 -0.11044982232E+03 -0.43108796177E+03  0.45471282886E+03  0.82762488890E+02 0.  0.
          5    1    5    5  501    0 -0.28637612398E+02  0.27689352786E+02 -0.61575107452E+02  0.73487393200E+02  0.47000000000E+01 0. -1.
        -13    1    6    6    0    0 -0.20854730405E+02 -0.56709337355E+01 -0.56956912554E+02  0.60919366029E+02  0.00000000000E+00 0.  1.
         14    1    6    6    0    0  0.64192163767E+02 -0.10477888859E+03 -0.37413104922E+03  0.39379346283E+03  0.00000000000E+00 0. -1.
         -5    1    3    3    0  503  0.26693473115E+02 -0.36920963080E+02 -0.66510883363E+02  0.80755721949E+02  0.47000000000E+01 0.  1.
         13    1    4    4    0    0 -0.40986280216E+02  0.23585751186E+02 -0.35839803485E+02  0.59335102079E+02  0.00000000000E+00 0. -1.
        -14    1    4    4    0    0 -0.40701386266E+00  0.96095681430E+02 -0.17275017179E+03  0.19767945645E+03  0.00000000000E+00 0.  1.
</event>
<event>
12    1  0.8563264E-002  0.1897434E+03  0.7818608E-02  0.1159805E+00
         21   -1    0    0  501  502  0.00000000000E+00  0.00000000000E+00  0.53704356706E+02  0.53704356706E+02  0.00000000000E+00 0. -1.
         21   -1    0    0  502  503 -0.00000000000E+00 -0.00000000000E+00 -0.65345559810E+03  0.65345559810E+03  0.00000000000E+00 0. -1.
         -6    2    1    2    0  503  0.36517063271E+02 -0.67524045567E+02 -0.29912867443E+03  0.35423229747E+03  0.17352107672E+03 0.  0.
        -24    2    3    3    0    0  0.50628462176E+02  0.22348329844E+02 -0.18556119917E+03  0.20864439661E+03  0.77697082108E+02 0.  0.
          6    2    1    2  501    0 -0.36517063271E+02  0.67524045567E+02 -0.30062256697E+03  0.35292765734E+03  0.16819931898E+03 0.  0.
         24    2    5    5    0    0 -0.42734750186E+02  0.13892126996E+02 -0.66556095792E+02  0.11266895250E+03  0.79027393387E+02 0.  0.
          5    1    5    5  501    0  0.62176869147E+01  0.53631918570E+02 -0.23406647118E+03  0.24025870483E+03  0.47000000000E+01 0. -1.
        -13    1    6    6    0    0 -0.74061683845E+01 -0.28847255450E+02 -0.43266072139E+02  0.52525883862E+02  0.00000000000E+00 0.  1.
         14    1    6    6    0    0 -0.35328581801E+02  0.42739382447E+02 -0.23290023653E+02  0.60143068643E+02  0.00000000000E+00 0. -1.
         -5    1    3    3    0  503 -0.14111398904E+02 -0.89872375411E+02 -0.11356747526E+03  0.14558790086E+03  0.47000000000E+01 0.  1.
         11    1    4    4    0    0  0.41709882210E+02 -0.14548090323E+02 -0.45041680214E+02  0.63088145975E+02  0.00000000000E+00 0. -1.
        -12    1    4    4    0    0  0.89185799657E+01  0.36896420167E+02 -0.14051951896E+03  0.14555625063E+03  0.00000000000E+00 0.  1.
</event>
<event>
12    1  0.8563264E-002  0.2835867E+03  0.7818608E-02  0.1094000E+00
         21   -1    0    0  503  502  0.00000000000E+00  0.00000000000E+00  0.32929813216E+03  0.32929813216E+03  0.00000000000E+00 0.  1.
         21   -1    0    0  501  503 -0.00000000000E+00 -0.00000000000E+00 -0.52479995436E+03  0.52479995436E+03  0.00000000000E+00 0.  1.
          6    2    1    2  501    0 -0.22224568696E+03 -0.35438597844E+02 -0.41075288889E+03  0.49807216728E+03  0.16943703402E+03 0.  0.
         24    2    3    3    0    0 -0.21970492959E+03  0.12373228138E+01 -0.29635279918E+03  0.37781806494E+03  0.81545824903E+02 0.  0.
         -6    2    1    2    0  502  0.22224568696E+03  0.35438597844E+02  0.21525106670E+03  0.35602591924E+03  0.17254678748E+03 0.  0.
        -24    2    5    5    0    0  0.21358794532E+03 -0.86422276832E+01  0.21020436480E+03  0.31057666326E+03  0.81101728064E+02 0.  0.
          5    1    3    3  501    0 -0.25407573688E+01 -0.36675920658E+02 -0.11440008971E+03  0.12025410234E+03  0.47000000000E+01 0. -1.
        -13    1    4    4    0    0 -0.14169813466E+03 -0.35187388544E+02 -0.16039011895E+03  0.21689053446E+03  0.00000000000E+00 0.  1.
         14    1    4    4    0    0 -0.78006794924E+02  0.36424711358E+02 -0.13596268023E+03  0.16092753048E+03  0.00000000000E+00 0. -1.
         -5    1    5    5    0  502  0.86577416360E+01  0.44080825527E+02  0.50467018973E+01  0.45449255983E+02  0.47000000000E+01 0.  1.
         13    1    6    6    0    0  0.24899554583E+02  0.15791400839E+02  0.35887420006E+01  0.29702444815E+02  0.00000000000E+00 0. -1.
        -14    1    6    6    0    0  0.18868839074E+03 -0.24433628522E+02  0.20661562280E+03  0.28087421844E+03  0.00000000000E+00 0.  1.
</event>
<event>
12    1  0.8563264E-002  0.5878748E+03  0.7818608E-02  0.9931136E-01
         21   -1    0    0  503  502  0.00000000000E+00  0.00000000000E+00  0.17896267969E+04  0.17896267969E+04  0.00000000000E+00 0. -1.
         21   -1    0    0  501  503 -0.00000000000E+00 -0.00000000000E+00 -0.20389875647E+03  0.20389875647E+03  0.00000000000E+00 0.  1.
          6    2    1    2  501    0 -0.42787390428E+03  0.36428691228E+03  0.56225963890E+03  0.81346952807E+03  0.17267234621E+03 0.  0.
         24    2    3    3    0    0 -0.42955515604E+03  0.32182849473E+03  0.50016619244E+03  0.73808232808E+03  0.80672739343E+02 0.  0.
         -6    2    1    2    0  502  0.42787390428E+03 -0.36428691228E+03  0.10234684015E+04  0.11800560253E+04  0.17106613193E+03 0.  0.
        -24    2    5    5    0    0  0.23745315280E+03 -0.28977977541E+03  0.68560687380E+03  0.78510808195E+03  0.77340784340E+02 0.  0.
          5    1    3    3  501    0  0.16812517637E+01  0.42458417545E+02  0.62093446459E+02  0.75387199982E+02  0.47000000000E+01 0.  1.
        -13    1    4    4    0    0 -0.38666479495E+03  0.27648654663E+03  0.40612165480E+03  0.62521138235E+03  0.00000000000E+00 0.  1.
         14    1    4    4    0    0 -0.42890361091E+02  0.45341948104E+02  0.94044537638E+02  0.11287094574E+03  0.00000000000E+00 0. -1.
         -5    1    5    5    0  502  0.19042075148E+03 -0.74507136862E+02  0.33786152775E+03  0.39494794337E+03  0.47000000000E+01 0.  1.
         11    1    6    6    0    0  0.10357023229E+03 -0.18565330610E+03  0.36473455222E+03  0.42216730885E+03  0.00000000000E+00 0. -1.
        -12    1    6    6    0    0  0.13388292051E+03 -0.10412646931E+03  0.32087232159E+03  0.36294077309E+03  0.00000000000E+00 0.  1.
</event>
<event>
12    1  0.8563264E-002  0.3766164E+03  0.7818608E-02  0.1052238E+00
         21   -1    0    0  503  502  0.00000000000E+00  0.00000000000E+00  0.40294534929E+03  0.40294534929E+03  0.00000000000E+00 0.  1.
         21   -1    0    0  501  503 -0.00000000000E+00 -0.00000000000E+00 -0.35172227963E+03  0.35172227963E+03  0.00000000000E+00 0. -1.
          6    2    1    2  501    0 -0.16926333350E+03  0.28872382114E+03  0.34081042071E+02  0.37766131701E+03  0.17162468346E+03 0.  0.
         24    2    3    3    0    0 -0.14368662889E+03  0.29358191139E+03  0.27577361148E+01  0.33666121511E+03  0.80603862409E+02 0.  0.
         -6    2    1    2    0  502  0.16926333350E+03 -0.28872382114E+03  0.17142027588E+02  0.37700631192E+03  0.17270897242E+03 0.  0.
        -24    2    5    5    0    0  0.49026410979E+02 -0.16533056619E+03 -0.42082242603E+02  0.19476356972E+03  0.80150782010E+02 0.  0.
          5    1    3    3  501    0 -0.25576704614E+02 -0.48580902458E+01  0.31323305957E+02  0.41000101900E+02  0.47000000000E+01 0. -1.
        -11    1    4    4    0    0 -0.14328747749E+03  0.23595120336E+03  0.19233221594E+02  0.27672041555E+03  0.00000000000E+00 0.  1.
         12    1    4    4    0    0 -0.39915140215E+00  0.57630708027E+02 -0.16475485479E+02  0.59940799555E+02  0.00000000000E+00 0. -1.
         -5    1    5    5    0  502  0.12023692252E+03 -0.12339325495E+03  0.59224270191E+02  0.18224274220E+03  0.47000000000E+01 0.  1.
         11    1    6    6    0    0  0.32817470032E+02 -0.16570299025E+03 -0.50747996560E+02  0.17637977909E+03  0.00000000000E+00 0. -1.
        -12    1    6    6    0    0  0.16208940948E+02  0.37242405649E+00  0.86657539575E+01  0.18383790632E+02  0.00000000000E+00 0.  1.
</event>
<event>
12    1  0.8563264E-002  0.2463191E+03  0.7818608E-02  0.1115884E+00
         21   -1    0    0  501  502  0.00000000000E+00  0.00000000000E+00  0.98918886131E+02  0.98918886131E+02  0.00000000000E+00 0.  1.
         21   -1    0    0  502  503 -0.00000000000E+00 -0.00000000000E+00 -0.61178636847E+03  0.61178636847E+03  0.00000000000E+00 0. -1.
         -6    2    1    2    0  503 -0.55541819790E+02  0.16593983864E+03 -0.27735936956E+03  0.37094648758E+03  0.17335556805E+03 0.  0.
        -24    2    3    3    0    0  0.27557172282E+02  0.76117474547E+02 -0.82686819968E+02  0.14096172474E+03  0.80497391073E+02 0.  0.
          6    2    1    2  501    0  0.55541819790E+02 -0.16593983864E+03 -0.23550811278E+03  0.33975876702E+03  0.17132140785E+03 0.  0.
         24    2    5    5    0    0  0.55590346388E+02 -0.18993074427E+03 -0.17935104405E+03  0.27851113624E+03  0.78978995817E+02 0.  0.
          5    1    5    5  501    0 -0.48526597927E-01  0.23990905623E+02 -0.56157068727E+02  0.61247630774E+02  0.47000000000E+01 0. -1.
        -11    1    6    6    0    0  0.31583197484E+02 -0.13743276025E+03 -0.76151154080E+02  0.16026309687E+03  0.00000000000E+00 0.  1.
         12    1    6    6    0    0  0.24007148903E+02 -0.52497984021E+02 -0.10319988997E+03  0.11824803937E+03  0.00000000000E+00 0. -1.
         -5    1    3    3    0  503 -0.83098992072E+02  0.89822364096E+02 -0.19467254959E+03  0.22998476284E+03  0.47000000000E+01 0.  1.
         13    1    4    4    0    0  0.41120086771E+02  0.25756238474E+02 -0.73397329577E+02  0.87985301871E+02  0.00000000000E+00 0. -1.
        -14    1    4    4    0    0 -0.13562914488E+02  0.50361236073E+02 -0.92894903908E+01  0.52976422868E+02  0.00000000000E+00 0.  1.
</event>
<event>
12    1  0.8563264E-002  0.2538556E+03  0.7818608E-02  0.1111056E+00
         21   -1    0    0  501  502  0.00000000000E+00  0.00000000000E+00  0.45364339545E+03  0.45364339545E+03  0.00000000000E+00 0. -1.
         21   -1    0    0  502  503 -0.00000000000E+00 -0.00000000000E+00 -0.29235009793E+03  0.29235009793E+03  0.00000000000E+00 0. -1.
         -6    2    1    2    0  503  0.17931235826E+03 -0.51935842634E+02 -0.18739932823E+03  0.31468243538E+03  0.17045900780E+03 0.  0.
        -24    2    3    3    0    0  0.20432073687E+03 -0.49305878745E+02 -0.15630825051E+03  0.27441978737E+03  0.81828585027E+02 0.  0.
          6    2    1    2  501    0 -0.17931235826E+03  0.51935842634E+02  0.34869262576E+03  0.43131105800E+03  0.17202449803E+03 0.  0.
         24    2    5    5    0    0 -0.11952385529E+03  0.89623885064E+02  0.30158487093E+03  0.34624470629E+03  0.81323855680E+02 0.  0.
          5    1    5    5  501    0 -0.59788502964E+02 -0.37688042430E+02  0.47107754833E+02  0.85066351716E+02  0.47000000000E+01 0. -1.
        -11    1    6    6    0    0 -0.11212976320E+02  0.17940690360E+02  0.39741457571E+01  0.21526565984E+02  0.00000000000E+00 0.  1.
         12    1    6    6    0    0 -0.10831087897E+03  0.71683194704E+02  0.29761072517E+03  0.32471814030E+03  0.00000000000E+00 0. -1.
         -5    1    3    3    0  503 -0.25008378613E+02 -0.26299638893E+01 -0.31091077721E+02  0.40262648010E+02  0.47000000000E+01 0.  1.
         13    1    4    4    0    0  0.57741385319E+02  0.99399058321E+01 -0.79205440109E+02  0.98520916812E+02  0.00000000000E+00 0. -1.
        -14    1    4    4    0    0  0.14657935155E+03 -0.59245784577E+02 -0.77102810403E+02  0.17589887056E+03  0.00000000000E+00 0.  1.
</event>
<event>
12    1  0.8563264E-002  0.2082538E+03  0.7818608E-02  0.1143336E+00
         21   -1    0    0  501  502  0.00000000000E+00  0.00000000000E+00  0.40308291489E+03  0.40308291489E+03  0.00000000000E+00 0. -1.
         21   -1    0    0  502  503 -0.00000000000E+00 -0.00000000000E+00 -0.20260341040E+03  0.20260341040E+03  0.00000000000E+00 0. -1.
         -6    2    1    2    0  503 -0.27333560876E+02 -0.11459496903E+03 -0.10796213959E+03  0.23457510624E+03  0.17172805945E+03 0.  0.
        -24    2    3    3    0    0  0.42399789515E+02 -0.98259028475E+02 -0.86322833385E+02  0.15960876256E+03  0.81060142460E+02 0.  0.
          6    2    1    2  501    0  0.27333560876E+02  0.11459496903E+03  0.30844164409E+03  0.37111121906E+03  0.16943482118E+03 0.  0.
         24    2    5    5    0    0  0.32788920832E+02  0.14710835465E+03  0.23659372713E+03  0.29192097744E+03  0.80779230116E+02 0.  0.
          5    1    5    5  501    0 -0.54553599551E+01 -0.32513385617E+02  0.71847916953E+02  0.79190241615E+02  0.47000000000E+01 0. -1.
        -13    1    6    6    0    0  0.40818254807E+02  0.13320125404E+03  0.15351913859E+03  0.20730853797E+03  0.00000000000E+00 0.  1.
         14    1    6    6    0    0 -0.80293339752E+01  0.13907100602E+02  0.83074588546E+02  0.84612439472E+02  0.00000000000E+00 0. -1.
         -5    1    3    3    0  503 -0.69733350392E+02 -0.16335940553E+02 -0.21639306209E+02  0.74966343674E+02  0.47000000000E+01 0.  1.
         13    1    4    4    0    0 -0.40307246503E+01 -0.84632262993E+02 -0.64709770605E+02  0.10661248094E+03  0.00000000000E+00 0. -1.
        -14    1    4    4    0    0  0.46430514165E+02 -0.13626765482E+02 -0.21613062780E+02  0.52996281623E+02  0.00000000000E+00 0.  1.
</event>
<event>
12    1  0.8563264E-002  0.1989346E+03  0.7818608E-02  0.1151019E+00
         21   -1    0    0  501  502  0.00000000000E+00  0.00000000000E+00  0.18213060280E+03  0.18213060280E+03  0.00000000000E+00 0. -1.
         21   -1    0    0  502  503 -0.00000000000E+00 -0.00000000000E+00 -0.11155921884E+04  0.11155921884E+04  0.00000000000E+00 0. -1.
         -6    2    1    2    0  503 -0.37836576949E+02 -0.88449726410E+02 -0.10492033680E+04  0.10675681914E+04  0.17210222357E+03 0.  0.
        -24    2    3    3    0    0 -0.34991869096E+02  0.19957099536E+02 -0.46686646784E+03  0.47520133929E+03  0.78925897804E+02 0.  0.
          6    2    1    2  501    0  0.37836576949E+02  0.88449726410E+02  0.11574178236E+03  0.23015459978E+03  0.17412644531E+03 0.  0.
         24    2    5    5    0    0 -0.71529373335E+01  0.30843095901E+02  0.12918218242E+03  0.15568773045E+03  0.80920776559E+02 0.  0.
          5    1    5    5  501    0  0.44989514282E+02  0.57606630508E+02 -0.13440400062E+02  0.74466869329E+02  0.47000000000E+01 0. -1.
        -11    1    6    6    0    0 -0.13740246739E+02 -0.16818834282E+02  0.46865317558E+01  0.22217811480E+02  0.00000000000E+00 0.  1.
         12    1    6    6    0    0  0.65873094056E+01  0.47661930184E+02  0.12449565067E+03  0.13346991897E+03  0.00000000000E+00 0. -1.
         -5    1    3    3    0  503 -0.28447078530E+01 -0.10840682595E+03 -0.58233690011E+03  0.59236685213E+03  0.47000000000E+01 0.  1.
         11    1    4    4    0    0 -0.42257254844E+01  0.25535830965E+02 -0.40552703079E+03  0.40635219714E+03  0.00000000000E+00 0. -1.
        -12    1    4    4    0    0 -0.30766143612E+02 -0.55787314293E+01 -0.61339437049E+02  0.68849142149E+02  0.00000000000E+00 0.  1.
</event>
<event>
12    1  0.8563264E-002  0.1734906E+03  0.7818608E-02  0.1174460E+00
         21   -1    0    0  501  502  0.00000000000E+00  0.00000000000E+00  0.31134233680E+03  0.31134233680E+03  0.00000000000E+00 0.  1.
         21   -1    0    0  502  503 -0.00000000000E+00 -0.00000000000E+00 -0.12438568995E+03  0.12438568995E+03  0.00000000000E+00 0.  1.
         -6    2    1    2    0  503 -0.15828802351E+02 -0.21322435099E+02 -0.10011139479E+02  0.17377917182E+03  0.17144614438E+03 0.  0.
        -24    2    3    3    0    0  0.50828778139E+02 -0.30352091209E+02  0.23831886324E+02  0.98332448093E+02  0.74809741441E+02 0.  0.
          6    2    1    2  501    0  0.15828802351E+02  0.21322435099E+02  0.19696778632E+03  0.26194885492E+03  0.17063322222E+03 0.  0.
         24    2    5    5    0    0  0.70281342602E+02  0.15942546966E+02  0.16433969758E+03  0.19806846270E+03  0.83844783936E+02 0.  0.
          5    1    5    5  501    0 -0.54452540250E+02  0.53798881324E+01  0.32628088746E+02  0.63880392228E+02  0.47000000000E+01 0. -1.
        -13    1    6    6    0    0  0.44949712915E+02 -0.12061543131E+02  0.15101731401E+03  0.15802590498E+03  0.00000000000E+00 0.  1.
         14    1    6    6    0    0  0.25331629687E+02  0.28004090098E+02  0.13322383572E+02  0.40042557721E+02  0.00000000000E+00 0. -1.
         -5    1    3    3    0  503 -0.66657580490E+02  0.90296561104E+01 -0.33843025802E+02  0.75446723731E+02  0.47000000000E+01 0.  1.
         13    1    4    4    0    0  0.57751128508E+02 -0.32148276985E+01  0.35639401543E+02  0.67938905668E+02  0.00000000000E+00 0. -1.
        -14    1    4    4    0    0 -0.69223503693E+01 -0.27137263511E+02 -0.11807515219E+02  0.30393542425E+02  0.00000000000E+00 0.  1.
</event>
<event>
12    1  0.8563264E-002  0.2616043E+03  0.7818608E-02  0.1106203E+00
         21   -1    0    0  503  502  0.00000000000E+00  0.00000000000E+00  0.23927162838E+03  0.23927162838E+03  0.00000000000E+00 0. -1.
         21   -1    0    0  501  503 -0.00000000000E+00 -0.00000000000E+00 -0.54518646937E+03  0.54518646937E+03  0.00000000000E+00 0.  1.
          6    2    1    2  501    0 -0.99975945988E+02 -0.16909072114E+03 -0.42348598996E+03  0.49777221143E+03  0.17277132002E+03 0.  0.
         24    2    3    3    0    0 -0.29737306441E+02 -0.14897911411E+03 -0.36696942593E+03  0.40528353518E+03  0.80678996592E+02 0.  0.
         -6    2    1    2    0  502  0.99975945988E+02  0.16909072114E+03  0.11757114897E+03  0.28668588632E+03  0.17256581524E+03 0.  0.
        -24    2    5    5    0    0  0.36587569340E+02  0.10115462013E+03 -0.36549350041E+01  0.13387471673E+03  0.79612648647E+02 0.  0.
          5    1    3    3  501    0 -0.70238639547E+02 -0.20111607036E+02 -0.56516564035E+02  0.92488676244E+02  0.47000000000E+01 0. -1.
        -11    1    4    4    0    0 -0.44714826234E+02 -0.97578298984E+02 -0.30528912349E+03  0.32360838839E+03  0.00000000000E+00 0.  1.
         12    1    4    4    0    0  0.14977519793E+02 -0.51400815123E+02 -0.61680302441E+02  0.81675146793E+02  0.00000000000E+00 0. -1.
         -5    1    5    5    0  502  0.63388376649E+02  0.67936101013E+02  0.12122608398E+03  0.15281116959E+03  0.47000000000E+01 0.  1.
         11    1    6    6    0    0  0.20091476081E+02  0.75157216762E+02  0.34282748910E+02  0.85015184028E+02  0.00000000000E+00 0. -1.
        -12    1    6    6    0    0  0.16496093258E+02  0.25997403368E+02 -0.37937683914E+02  0.48859532698E+02  0.00000000000E+00 0.  1.
</event>
<event>
12    1  0.8563264E-002  0.1933875E+03  0.7818608E-02  0.1155537E+00
         21   -1    0    0  503  502  0.00000000000E+00  0.00000000000E+00  0.43193817085E+03  0.43193817085E+03  0.00000000000E+00 0. -1.
         21   -1    0    0  501  503 -0.00000000000E+00 -0.00000000000E+00 -0.15269407718E+03  0.15269407718E+03  0.00000000000E+00 0. -1.
          6    2    1    2  501    0  0.64824926889E+02 -0.59721348247E+02 -0.52914762761E+02  0.20049613611E+03  0.17213314003E+03 0.  0.
         24    2    3    3    0    0 -0.26843107201E+02 -0.59347139278E+02 -0.19764204159E+02  0.10290403581E+03  0.77175005507E+02 0.  0.
         -6    2    1    2    0  502 -0.64824926889E+02  0.59721348247E+02  0.33215885644E+03  0.38413611192E+03  0.17164537858E+03 0.  0.
        -24    2    5    5    0    0 -0.51347119639E+02  0.98413202949E+02  0.17226802933E+03  0.21901228716E+03  0.77255568013E+02 0.  0.
          5    1    3    3  501    0  0.91668034090E+02 -0.37420896899E+00 -0.33150558602E+02  0.97592100305E+02  0.47000000000E+01 0. -1.
        -13    1    4    4    0    0 -0.50703066975E+02 -0.23403969234E+02 -0.98593275215E+00  0.55852652936E+02  0.00000000000E+00 0.  1.
         14    1    4    4    0    0  0.23859959774E+02 -0.35943170044E+02 -0.18778271407E+02  0.47051382873E+02  0.00000000000E+00 0. -1.
         -5    1    5    5    0  502 -0.13477807250E+02 -0.38691854702E+02  0.15989082711E+03  0.16512382476E+03  0.47000000000E+01 0.  1.
         11    1    6    6    0    0  0.49974350043E+00  0.70303591696E+02  0.12506560388E+03  0.14347212281E+03  0.00000000000E+00 0. -1.
        -12    1    6    6    0    0 -0.51846863140E+02  0.28109611253E+02  0.47202425442E+02  0.75540164349E+02  0.00000000000E+00 0.  1.
</event>
<event>
12    1  0.8563264E-002  0.2072361E+03  0.7818608E-02  0.1143885E+00
         21   -1    0    0  501  502  0.00000000000E+00  0.00000000000E+00  0.28830946417E+03  0.28830946417E+03  0.00000000000E+00 0. -1.
         21   -1    0    0  502  503 -0.00000000000E+00 -0.00000000000E+00 -0.18139763385E+03  0.18139763385E+03  0.00000000000E+00 0.  1.
         -6    2    1    2    0  503  0.11462446212E+02 -0.11502929401E+03  0.15331639184E+03  0.25733907790E+03  0.17133113801E+03 0.  0.
        -24    2    3    3    0    0 -0.32969311151E+02 -0.11534188786E+02  0.98260357917E+02  0.13188520295E+03  0.80737821565E+02 0.  0.
          6    2    1    2  501    0 -0.11462446212E+02  0.11502929401E+03 -0.46404561526E+02  0.21236802012E+03  0.17199903048E+03 0.  0.
         24    2    5    5    0    0  0.59467325074E+02  0.74530384770E+02 -0.27576703387E+02  0.12841700854E+03  0.81481976574E+02 0.  0.
          5    1    5    5  501    0 -0.70929771286E+02  0.40498909236E+02 -0.18827858139E+02  0.83951011585E+02  0.47000000000E+01 0. -1.
        -11    1    6    6    0    0 -0.32212028328E+01  0.33537067508E+02 -0.40207904366E+02  0.52457474379E+02  0.00000000000E+00 0.  1.
         12    1    6    6    0    0  0.62688527907E+02  0.40993317263E+02  0.12631200979E+02  0.75959534158E+02  0.00000000000E+00 0. -1.
         -5    1    3    3    0  503  0.44431757363E+02 -0.10349510522E+03  0.55056033925E+02  0.12545387494E+03  0.47000000000E+01 0.  1.
         11    1    4    4    0    0  0.92538427007E+00 -0.37729647304E+02  0.20110207576E+02  0.42764507135E+02  0.00000000000E+00 0. -1.
        -12    1    4    4    0    0 -0.33894695421E+02  0.26195458518E+02  0.78150150340E+02  0.89120695817E+02  0.00000000000E+00 0.  1.
</event>
<event>
12    1  0.8563264E-002  0.1763390E+03  0.7818608E-02  0.1171464E+00
         21   -1    0    0  501  502  0.00000000000E+00  0.00000000000E+00  0.37788753241E+02  0.37788753241E+02  0.00000000000E+00 0.  1.
         21   -1    0    0  502  503 -0.00000000000E+00 -0.00000000000E+00 -0.88109595340E+03  0.88109595340E+03  0.00000000000E+00 0.  1.
         -6    2    1    2    0  503 -0.26266476245E+01  0.39715399356E+02 -0.30191449630E+03  0.34949774991E+03  0.17149956820E+03 0.  0.
        -24    2    3    3    0    0  0.30263646710E+02  0.62970723371E+01 -0.28778013744E+03  0.30029992331E+03  0.80044331475E+02 0.  0.
          6    2    1    2  501    0  0.26266476245E+01 -0.39715399356E+02 -0.54139270386E+03  0.56938695673E+03  0.17178834209E+03 0.  0.
         24    2    5    5    0    0 -0.46372277667E+02 -0.33754953751E+02 -0.18168798466E+03  0.20628091629E+03  0.79066475929E+02 0.  0.
          5    1    5    5  501    0  0.48998925291E+02 -0.59604456050E+01 -0.35970471920E+03  0.36310604044E+03  0.47000000000E+01 0. -1.
        -11    1    6    6    0    0  0.92267704746E+01 -0.22909330029E+02 -0.12139641320E+02  0.27519839883E+02  0.00000000000E+00 0.  1.
         12    1    6    6    0    0 -0.55599048141E+02 -0.10845623722E+02 -0.16954834334E+03  0.17876107640E+03  0.00000000000E+00 0. -1.
         -5    1    3    3    0  503 -0.32890294334E+02  0.33418327019E+02 -0.14134358859E+02  0.49197826603E+02  0.47000000000E+01 0.  1.
         11    1    4    4    0    0  0.47445283203E+02  0.24736364470E+02 -0.13098524596E+03  0.14149232235E+03  0.00000000000E+00 0. -1.
        -12    1    4    4    0    0 -0.17181636493E+02 -0.18439292133E+02 -0.15679489148E+03  0.15880760096E+03  0.00000000000E+00 0.  1.
</event>
<event>
12    1  0.8563264E-002  0.1998794E+03  0.7818608E-02  0.1150037E+00
         21   -1    0    0  503  502  0.00000000000E+00  0.00000000000E+00  0.12209359571E+03  0.12209359571E+03  0.00000000000E+00 0.  1.
         21   -1    0    0  501  503 -0.00000000000E+00 -0.00000000000E+00 -0.33057028808E+03  0.33057028808E+03  0.00000000000E+00 0.  1.
          6    2    1    2  501    0  0.33599268418E+02  0.95879707979E+02 -0.13193411564E+03  0.23949607805E+03  0.17213346941E+03 0.  0.
         24    2    3    3    0    0  0.39295869150E+02  0.92743318310E+02 -0.16350292365E+03  0.20692357678E+03  0.77062780659E+02 0.  0.
         -6    2    1    2    0  502 -0.33599268418E+02 -0.95879707979E+02 -0.76542576726E+02  0.21316780573E+03  0.17105530716E+03 0.  0.
        -24    2    5    5    0    0 -0.17441359081E+02  0.19212393878E+02 -0.19995942862E+02  0.83835359124E+02  0.77170024124E+02 0.  0.
          5    1    3    3  501    0 -0.56966007313E+01  0.31363896690E+01  0.31568808007E+02  0.32572501271E+02  0.47000000000E+01 0. -1.
        -11    1    4    4    0    0  0.25380413653E+02  0.99917657906E+02 -0.10820637076E+03  0.14945341224E+03  0.00000000000E+00 0.  1.
         12    1    4    4    0    0  0.13915455497E+02 -0.71743395962E+01 -0.55296552893E+02  0.57470164539E+02  0.00000000000E+00 0. -1.
         -5    1    5    5    0  502 -0.16157909337E+02 -0.11509210186E+03 -0.56546633864E+02  0.12933244661E+03  0.47000000000E+01 0.  1.
         13    1    6    6    0    0 -0.22527181283E+02  0.18860815548E+02 -0.47505865508E+02  0.55857063272E+02  0.00000000000E+00 0. -1.
        -14    1    6    6    0    0  0.50858222020E+01  0.35157832992E+00  0.27509922646E+02  0.27978295852E+02  0.00000000000E+00 0.  1.
</event>
<event>
12    1  0.8563264E-002  0.1914189E+03  0.7818608E-02  0.1157287E+00
         21   -1    0    0  503  502  0.00000000000E+00  0.00000000000E+00  0.40522056414E+02  0.40522056414E+02  0.00000000000E+00 0. -1.
         21   -1    0    0  501  503 -0.00000000000E+00 -0.00000000000E+00 -0.13361546928E+04  0.13361546928E+04  0.00000000000E+00 0. -1.
          6    2    1    2  501    0 -0.17357548318E+02 -0.81131455365E+02 -0.10406345253E+04  0.10580932937E+04  0.17250392857E+03 0.  0.
         24    2    3    3    0    0  0.29020638061E+02  0.57689264324E+01 -0.32277703975E+03  0.33349404439E+03  0.78471538197E+02 0.  0.
         -6    2    1    2    0  502  0.17357548318E+02  0.81131455365E+02 -0.25499811102E+03  0.31858345546E+03  0.17201099946E+03 0.  0.
        -24    2    5    5    0    0 -0.14829640580E+02  0.87733319092E+02 -0.25872551507E+03  0.28518310704E+03  0.80457808043E+02 0.  0.
          5    1    3    3  501    0 -0.46378186379E+02 -0.86900381798E+02 -0.71785748559E+03  0.72459924934E+03  0.47000000000E+01 0. -1.
        -11    1    4    4    0    0 -0.18075290536E+02 -0.28714248278E+01 -0.20636979150E+02  0.27583439179E+02  0.00000000000E+00 0.  1.
         12    1    4    4    0    0  0.47095928597E+02  0.86403512602E+01 -0.30214006060E+03  0.30591060521E+03  0.00000000000E+00 0. -1.
         -5    1    5    5    0  502  0.32187188897E+02 -0.66018637268E+01  0.37274040448E+01  0.33400348422E+02  0.47000000000E+01 0.  1.
         11    1    6    6    0    0  0.26220221877E+01  0.98438030613E+02 -0.22682304127E+03  0.24727638974E+03  0.00000000000E+00 0. -1.
        -12    1    6    6    0    0 -0.17451662767E+02 -0.10704711521E+02 -0.31902473793E+02  0.37906717297E+02  0.00000000000E+00 0.  1.
</event>
<event>
12    1  0.8563264E-002  0.2533906E+03  0.7818608E-02  0.1112465E+00
         21   -1    0    0  501  502  0.00000000000E+00  0.00000000000E+00  0.10120866463E+03  0.10120866463E+03  0.00000000000E+00 0. -1.
         21   -1    0    0  502  503 -0.00000000000E+00 -0.00000000000E+00 -0.88977231291E+03  0.88977231291E+03  0.00000000000E+00 0. -1.
         -6    2    1    2    0  503 -0.12473024092E+03 -0.13493821961E+03 -0.11412883476E+03  0.27051645478E+03  0.16244323707E+03 0.  0.
        -24    2    3    3    0    0 -0.98927865095E+02 -0.15743786450E+03 -0.69447543258E+02  0.21403190442E+03  0.80083026746E+02 0.  0.
          6    2    1    2  501    0  0.12473024092E+03  0.13493821961E+03 -0.67443481352E+03  0.72046452276E+03  0.17447307746E+03 0.  0.
         24    2    5    5    0    0  0.14236870080E+03  0.13690481797E+03 -0.66817510464E+03  0.70106718451E+03  0.77623775876E+02 0.  0.
          5    1    5    5  501    0 -0.17638459880E+02 -0.19665983619E+01 -0.62597088802E+01  0.19397338254E+02  0.47000000000E+01 0. -1.
        -13    1    6    6    0    0  0.23501810358E+02  0.32825547344E+01 -0.29689849677E+02  0.38007860102E+02  0.00000000000E+00 0.  1.
         14    1    6    6    0    0  0.11886689045E+03  0.13362226323E+03 -0.63848525496E+03  0.66305932440E+03  0.00000000000E+00 0. -1.
         -5    1    3    3    0  503 -0.25802375828E+02  0.22499644895E+02 -0.44681291503E+02  0.56484550358E+02  0.47000000000E+01 0.  1.
         11    1    4    4    0    0 -0.94805491619E+02 -0.86912269883E+02 -0.62642017774E+02  0.14305889098E+03  0.00000000000E+00 0. -1.
        -12    1    4    4    0    0 -0.41223734759E+01 -0.70525594619E+02 -0.68055254843E+01  0.70973013438E+02  0.00000000000E+00 0.  1.
</event>
<event>
12    1  0.8563264E-002  0.2733349E+03  0.7818608E-02  0.1099414E+00
         21   -1    0    0  501  502  0.00000000000E+00  0.00000000000E+00  0.79990353379E+02  0.79990353379E+02  0.00000000000E+00 0. -1.
         21   -1    0    0  502  503 -0.00000000000E+00 -0.00000000000E+00 -0.10505389820E+04  0.10505389820E+04  0.00000000000E+00 0.  1.
         -6    2    1    2    0  503 -0.19209176861E+03 -0.89982644335E+02 -0.67392399824E+03  0.72717072919E+03  0.17206856234E+03 0.  0.
        -24    2    3    3    0    0 -0.16436691666E+03 -0.55950337351E+02 -0.34079680433E+03  0.39113102521E+03  0.81817440051E+02 0.  0.
          6    2    1    2  501    0  0.19209176861E+03  0.89982644335E+02 -0.29662463039E+03  0.40335860619E+03  0.17238291674E+03 0.  0.
         24    2    5    5    0    0  0.76347519918E+02  0.23287087560E+02 -0.22341405809E+03  0.25095484542E+03  0.81812351421E+02 0.  0.
          5    1    5    5  501    0  0.11574424870E+03  0.66695556775E+02 -0.73210572304E+02  0.15240376077E+03  0.47000000000E+01 0. -1.
        -13    1    6    6    0    0  0.84946778864E+02 -0.39246666176E+01 -0.15431321472E+03  0.17619286729E+03  0.00000000000E+00 0.  1.
         14    1    6    6    0    0 -0.85992589454E+01  0.27211754178E+02 -0.69100843369E+02  0.74761978132E+02  0.00000000000E+00 0. -1.
         -5    1    3    3    0  503 -0.27724851952E+02 -0.34032306984E+02 -0.33312719391E+03  0.33603970399E+03  0.47000000000E+01 0.  1.
         13    1    4    4    0    0 -0.97709301709E+02 -0.39515079248E+02 -0.11905883482E+03  0.15900803526E+03  0.00000000000E+00 0. -1.
        -14    1    4    4    0    0 -0.66657614953E+02 -0.16435258103E+02 -0.22173796951E+03  0.23212298995E+03  0.00000000000E+00 0.  1.
</event>
<event>
12    1  0.8563264E-002  0.1928006E+03  0.7818608E-02  0.1156163E+00
         21   -1    0    0  503  502  0.00000000000E+00  0.00000000000E+00  0.20052258982E+04  0.20052258982E+04  0.00000000000E+00 0.  1.
         21   -1    0    0  501  503 -0.00000000000E+00 -0.00000000000E+00 -0.27274373373E+02  0.27274373373E+02  0.00000000000E+00 0. -1.
          6    2    1    2  501    0 -0.85893790845E+02  0.99625832425E+01  0.41250339194E+03  0.45533626259E+03  0.17232256758E+03 0.  0.
         24    2    3    3    0    0 -0.24183019445E+02  0.20149081382E+02  0.77184259862E+02  0.11420140013E+03  0.78062448784E+02 0.  0.
         -6    2    1    2    0  502  0.85893790845E+02 -0.99625832425E+01  0.15654481329E+04  0.15771640090E+04  0.17129348529E+03 0.  0.
        -24    2    5    5    0    0  0.44233850511E+02  0.24098422767E+02  0.34325890575E+03  0.35378168947E+03  0.69263554048E+02 0.  0.
          5    1    3    3  501    0 -0.61710771400E+02 -0.10186498140E+02  0.33531913208E+03  0.34113486246E+03  0.47000000000E+01 0. -1.
        -13    1    4    4    0    0 -0.46239425850E+01 -0.14358713281E+01  0.84119479996E+02  0.84258705700E+02  0.00000000000E+00 0.  1.
         14    1    4    4    0    0 -0.19559076860E+02  0.21584952710E+02 -0.69352201337E+01  0.29942694425E+02  0.00000000000E+00 0. -1.
         -5    1    5    5    0  502  0.41659940335E+02 -0.34061006010E+02  0.12221892272E+04  0.12233823195E+04  0.47000000000E+01 0.  1.
         11    1    6    6    0    0  0.50234664421E+02  0.42121538592E+02  0.24013427152E+03  0.24892210405E+03  0.00000000000E+00 0. -1.
        -12    1    6    6    0    0 -0.60008139107E+01 -0.18023115825E+02  0.10312463423E+03  0.10485958543E+03  0.00000000000E+00 0.  1.
</event>
<event>
12    1  0.8563264E-002  0.1732355E+03  0.7818608E-02  0.1175494E+00
         21   -1    0    0  501  502  0.00000000000E+00  0.00000000000E+00  0.73008012706E+03  0.73008012706E+03  0.00000000000E+00 0. -1.
         21   -1    0    0  502  503 -0.00000000000E+00 -0.00000000000E+00 -0.40666825642E+02  0.40666825642E+02  0.00000000000E+00 0. -1.
         -6    2    1    2    0  503 -0.27756647686E+02 -0.12541598929E+01  0.30000920378E+03  0.34454735112E+03  0.16713871604E+03 0.  0.
        -24    2    3    3    0    0  0.35831331327E+02  0.21349377064E+02  0.22611216522E+03  0.24436145757E+03  0.82741346857E+02 0.  0.
          6    2    1    2  501    0  0.27756647686E+02  0.12541598929E+01  0.38940409764E+03  0.42619960158E+03  0.17099282069E+03 0.  0.
         24    2    5    5    0    0  0.60730182562E+02  0.23260942067E+02  0.35769767553E+03  0.37521980493E+03  0.92806510729E+02 0.  0.
          5    1    5    5  501    0 -0.32973534876E+02 -0.22006782174E+02  0.31706422104E+02  0.50979796651E+02  0.47000000000E+01 0. -1.
        -11    1    6    6    0    0  0.14827248810E+02  0.44896056076E+02  0.80031147515E+02  0.92954223847E+02  0.00000000000E+00 0.  1.
         12    1    6    6    0    0  0.45902933752E+02 -0.21635114009E+02  0.27766652802E+03  0.28226558109E+03  0.00000000000E+00 0. -1.
         -5    1    3    3    0  503 -0.63587979013E+02 -0.22603536957E+02  0.73897038563E+02  0.10018589355E+03  0.47000000000E+01 0.  1.
         11    1    4    4    0    0  0.20820511953E+02  0.30053841368E+02  0.29482075911E+02  0.46967221538E+02  0.00000000000E+00 0. -1.
        -12    1    4    4    0    0  0.15010819373E+02 -0.87044643042E+01  0.19663008931E+03  0.19739423603E+03  0.00000000000E+00 0.  1.
</event>
<event>
12    1  0.8563264E-002  0.1839094E+03  0.7818608E-02  0.1164513E+00
         21   -1    0    0  503  502  0.00000000000E+00  0.00000000000E+00  0.12454655424E+04  0.12454655424E+04  0.00000000000E+00 0. -1.
         21   -1    0    0  501  503 -0.00000000000E+00 -0.00000000000E+00 -0.29014799221E+02  0.29014799221E+02  0.00000000000E+00 0. -1.
          6    2    1    2  501    0  0.53059439315E+02 -0.38225594109E+02  0.43260631832E+03  0.46935007846E+03  0.16989634887E+03 0.  0.
         24    2    3    3    0    0  0.28435899146E+02 -0.97732474244E+02  0.23962707806E+03  0.26585446504E+03  0.53825859553E+02 0.  0.
         -6    2    1    2    0  502 -0.53059439315E+02  0.38225594109E+02  0.78384442484E+03  0.80513026314E+03  0.17188995935E+03 0.  0.
        -24    2    5    5    0    0 -0.91496822395E+01  0.38429120739E+01  0.69745756120E+03  0.70219816999E+03  0.80850081060E+02 0.  0.
          5    1    3    3  501    0  0.24623540169E+02  0.59506880135E+02  0.19297924026E+03  0.20349561343E+03  0.47000000000E+01 0. -1.
        -13    1    4    4    0    0  0.19868246069E+02 -0.34799590788E+02  0.15469402608E+03  0.15979987618E+03  0.00000000000E+00 0.  1.
         14    1    4    4    0    0  0.85676530769E+01 -0.62932883455E+02  0.84933051984E+02  0.10605458886E+03  0.00000000000E+00 0. -1.
         -5    1    5    5    0  502 -0.43909757076E+02  0.34382682035E+02  0.86386863647E+02  0.10293209315E+03  0.47000000000E+01 0.  1.
         13    1    6    6    0    0  0.25503889632E+02  0.25494800201E+02  0.44462079835E+03  0.44608080832E+03  0.00000000000E+00 0. -1.
        -14    1    6    6    0    0 -0.34653571872E+02 -0.21651888128E+02  0.25283676285E+03  0.25611736167E+03  0.00000000000E+00 0.  1.
</event>
<event>
12    1  0.8563264E-002  0.1965531E+03  0.7818608E-02  0.1155009E+00
         21   -1    0    0  503  502  0.00000000000E+00  0.00000000000E+00  0.71498545574E+02  0.71498545574E+02  0.00000000000E+00 0.  1.
         21   -1    0    0  501  503 -0.00000000000E+00 -0.00000000000E+00 -0.62933006007E+03  0.62933006007E+03  0.00000000000E+00 0.  1.
          6    2    1    2  501    0  0.62951234510E+02 -0.72998047152E+02 -0.42402081275E+03  0.46305053199E+03  0.15915581271E+03 0.  0.
         24    2    3    3    0    0  0.75616906378E+02 -0.59671896911E+01 -0.19212187436E+03  0.22128047032E+03  0.79376999525E+02 0.  0.
         -6    2    1    2    0  502 -0.62951234510E+02  0.72998047152E+02 -0.13381070174E+03  0.23777807365E+03  0.17129371148E+03 0.  0.
        -24    2    5    5    0    0  0.31942436108E+02  0.30400131238E+02 -0.46331675338E+02  0.10178520169E+03  0.79177749014E+02 0.  0.
          5    1    3    3  501    0 -0.12665671868E+02 -0.67030857461E+02 -0.23189893839E+03  0.24177006167E+03  0.47000000000E+01 0. -1.
        -13    1    4    4    0    0  0.84818347812E+01 -0.35183946552E+02 -0.55088405916E+02  0.65913459040E+02  0.00000000000E+00 0.  1.
         14    1    4    4    0    0  0.67135071597E+02  0.29216756861E+02 -0.13703346845E+03  0.15536701128E+03  0.00000000000E+00 0. -1.
         -5    1    5    5    0  502 -0.94893670618E+02  0.42597915914E+02 -0.87479026406E+02  0.13599287196E+03  0.47000000000E+01 0.  1.
         11    1    6    6    0    0 -0.22826568059E+02  0.17739323550E+02 -0.33268195407E+02  0.44073899703E+02  0.00000000000E+00 0. -1.
        -12    1    6    6    0    0  0.54769004167E+02  0.12660807688E+02 -0.13063479930E+02  0.57711301984E+02  0.00000000000E+00 0.  1.
</event>
<event>
12    1  0.8563264E-002  0.1875740E+03  0.7818608E-02  0.1160962E+00
         21   -1    0    0  501  502  0.00000000000E+00  0.00000000000E+00  0.32367355651E+02  0.32367355651E+02  0.00000000000E+00 0.  1.
         21   -1    0    0  502  503 -0.00000000000E+00 -0.00000000000E+00 -0.13176971803E+04  0.13176971803E+04  0.00000000000E+00 0.  1.
         -6    2    1    2    0  503  0.52902112928E+02  0.52119224080E+02 -0.92778665841E+03  0.94630580059E+03  0.17085531199E+03 0.  0.
        -24    2    3    3    0    0 -0.26696296065E+02  0.60477413021E+02 -0.57711487259E+03  0.58658569077E+03  0.81553582049E+02 0.  0.
          6    2    1    2  501    0 -0.52902112928E+02 -0.52119224080E+02 -0.35754316622E+03  0.40375873534E+03  0.17224678106E+03 0.  0.
         24    2    5    5    0    0 -0.77589227643E+02 -0.86934284513E+02 -0.22624378058E+03  0.26561692149E+03  0.76081815564E+02 0.  0.
          5    1    5    5  501    0  0.24687114715E+02  0.34815060433E+02 -0.13129938564E+03  0.13814181385E+03  0.47000000000E+01 0. -1.
        -11    1    6    6    0    0 -0.20877885037E+02 -0.70223486235E+02 -0.16478833050E+03  0.18033972933E+03  0.00000000000E+00 0.  1.
         12    1    6    6    0    0 -0.56711342605E+02 -0.16710798279E+02 -0.61455450077E+02  0.85277192164E+02  0.00000000000E+00 0. -1.
         -5    1    3    3    0  503  0.79598408993E+02 -0.83581889402E+01 -0.35067178582E+03  0.35972010982E+03  0.47000000000E+01 0.  1.
         13    1    4    4    0    0 -0.13015290814E+02  0.52676339031E+02 -0.15583117518E+03  0.16500772602E+03  0.00000000000E+00 0. -1.
        -14    1    4    4    0    0 -0.13681005251E+02  0.78010739894E+01 -0.42128369741E+03  0.42157796475E+03  0.00000000000E+00 0.  1.
</event>
<event>
12    1  0.8563264E-002  0.2033783E+03  0.7818608E-02  0.1147593E+00
         21   -1    0    0  501  502  0.00000000000E+00  0.00000000000E+00  0.25886084665E+03  0.25886084665E+03  0.00000000000E+00 0. -1.
         21   -1    0    0  502  503 -0.00000000000E+00 -0.00000000000E+00 -0.23696556636E+03  0.23696556636E+03  0.00000000000E+00 0.  1.
         -6    2    1    2    0  503  0.10579271306E+03 -0.27410349469E+02 -0.13289315687E+03  0.24024431020E+03  0.16767024795E+03 0.  0.
        -24    2    3    3    0    0 -0.75241525850E+01 -0.20723214189E+02 -0.29559093049E+02  0.86668763439E+02  0.78432583125E+02 0.  0.
          6    2    1    2  501    0 -0.10579271306E+03  0.27410349469E+02  0.15478843717E+03  0.25558210281E+03  0.17152062734E+03 0.  0.
         24    2    5    5    0    0 -0.66037187638E+02 -0.44227948009E+02  0.51579845587E+02  0.12372365278E+03  0.79561550081E+02 0.  0.
          5    1    5    5  501    0 -0.39755525418E+02  0.71638297479E+02  0.10320859158E+03  0.13185845003E+03  0.47000000000E+01 0. -1.
        -11    1    6    6    0    0 -0.57490837625E+00 -0.37272893155E+02 -0.41017242985E+01  0.37502309609E+02  0.00000000000E+00 0.  1.
         12    1    6    6    0    0 -0.65462279262E+02 -0.69550548547E+01  0.55681569885E+02  0.86221343176E+02  0.00000000000E+00 0. -1.
         -5    1    3    3    0  503  0.11331686564E+03 -0.66871352800E+01 -0.10333406382E+03  0.15357554676E+03  0.47000000000E+01 0.  1.
         11    1    4    4    0    0 -0.32495153274E+02  0.10086829139E+02 -0.32301332762E+02  0.46915404790E+02  0.00000000000E+00 0. -1.
        -12    1    4    4    0    0  0.24971000689E+02 -0.30810043328E+02  0.27422397130E+01  0.39753358649E+02  0.00000000000E+00 0.  1.
</event>
<event>
12    1  0.8563264E-002  0.2035283E+03  0.7818608E-02  0.1148771E+00
         21   -1    0    0  503  502  0.00000000000E+00  0.00000000000E+00  0.36012551761E+03  0.36012551761E+03  0.00000000000E+00 0. -1.
         21   -1    0    0  501  503 -0.00000000000E+00 -0.00000000000E+00 -0.91797844120E+03  0.91797844120E+03  0.00000000000E+00 0. -1.
          6    2    1    2  501    0 -0.91534298684E+02 -0.14144438501E+02 -0.87773698011E+03  0.89896073315E+03  0.17067395970E+03 0.  0.
         24    2    3    3    0    0  0.20687253130E+02 -0.11804420271E+02 -0.37175025315E+03  0.38065212794E+03  0.78297413805E+02 0.  0.
         -6    2    1    2    0  502  0.91534298684E+02  0.14144438501E+02  0.31988405651E+03  0.37914322566E+03  0.18123240047E+03 0.  0.
        -24    2    5    5    0    0  0.42350613184E+02 -0.54448302035E+02  0.10826792320E+03  0.15126721365E+03  0.80010216218E+02 0.  0.
          5    1    3    3  501    0 -0.11222155181E+03 -0.23400182299E+01 -0.50598672696E+03  0.51830860521E+03  0.47000000000E+01 0. -1.
        -13    1    4    4    0    0 -0.37946667328E+01  0.23109459045E+02 -0.41430192785E+02  0.47591043980E+02  0.00000000000E+00 0.  1.
         14    1    4    4    0    0  0.24481919863E+02 -0.34913879316E+02 -0.33032006036E+03  0.33306108396E+03  0.00000000000E+00 0. -1.
         -5    1    5    5    0  502  0.49183685500E+02  0.68592740536E+02  0.21161613332E+03  0.22787601202E+03  0.47000000000E+01 0.  1.
         13    1    6    6    0    0  0.54552322823E+01 -0.29110323169E+02  0.10182868434E+03  0.10604834478E+03  0.00000000000E+00 0. -1.
        -14    1    6    6    0    0  0.36895380902E+02 -0.25337978866E+02  0.64392388520E+01  0.45218868870E+02  0.00000000000E+00 0.  1.
</event>
<event>
12    1  0.8563264E-002  0.2053630E+03  0.7818608E-02  0.1145454E+00
         21   -1    0    0  501  502  0.00000000000E+00  0.00000000000E+00  0.18068114258E+02  0.18068114258E+02  0.00000000000E+00 0. -1.
         21   -1    0    0  502  503 -0.00000000000E+00 -0.00000000000E+00 -0.23713797129E+04  0.23713797129E+04  0.00000000000E+00 0.  1.
         -6    2    1    2    0  503  0.56129044372E+02  0.97164264864E+02 -0.13412682601E+04  0.13567786211E+04  0.17104478046E+03 0.  0.
        -24    2    3    3    0    0 -0.29717734867E+02  0.57656591665E+02 -0.54230289096E+03  0.55223012850E+03  0.81598179778E+02 0.  0.
          6    2    1    2  501    0 -0.56129044372E+02 -0.97164264864E+02 -0.10120433385E+04  0.10326692061E+04  0.17199594827E+03 0.  0.
         24    2    5    5    0    0 -0.67868116590E+01 -0.28404580625E+02 -0.79903569448E+03  0.80341629658E+03  0.78529125511E+02 0.  0.
          5    1    5    5  501    0 -0.49342232713E+02 -0.68759684240E+02 -0.21300764398E+03  0.22925290947E+03  0.47000000000E+01 0. -1.
        -13    1    6    6    0    0 -0.58423521456E+01 -0.53332797377E+02 -0.65863773050E+03  0.66081932508E+03  0.00000000000E+00 0.  1.
         14    1    6    6    0    0 -0.94445951338E+00  0.24928216753E+02 -0.14039796398E+03  0.14259697151E+03  0.00000000000E+00 0. -1.
         -5    1    3    3    0  503  0.85846779240E+02  0.39507673199E+02 -0.79896536918E+03  0.80454849257E+03  0.47000000000E+01 0.  1.
         11    1    4    4    0    0  0.97092341998E+01  0.63319216552E+02 -0.31204434665E+03  0.31855182732E+03  0.00000000000E+00 0. -1.
        -12    1    4    4    0    0 -0.39426969067E+02 -0.56626248870E+01 -0.23025854432E+03  0.23367830118E+03  0.00000000000E+00 0.  1.
</event>
<event>
12    1  0.8563264E-002  0.1815516E+03  0.7818608E-02  0.1166390E+00
         21   -1    0    0  501  502  0.00000000000E+00  0.00000000000E+00  0.72738626194E+02  0.72738626194E+02  0.00000000000E+00 0. -1.
         21   -1    0    0  502  503 -0.00000000000E+00 -0.00000000000E+00 -0.57351137887E+03  0.57351137887E+03  0.00000000000E+00 0. -1.
         -6    2    1    2    0  503  0.58710066340E+02  0.16182997907E+02 -0.39874960685E+03  0.43799605794E+03  0.17067670169E+03 0.  0.
        -24    2    3    3    0    0  0.10294851546E+03  0.26006699052E+02 -0.25746253957E+03  0.28954515406E+03  0.79212951738E+02 0.  0.
          6    2    1    2  501    0 -0.58710066340E+02 -0.16182997907E+02 -0.10202314583E+03  0.20825394712E+03  0.17103281234E+03 0.  0.
         24    2    5    5    0    0 -0.49267288097E+02  0.48200498308E+02 -0.95986644330E+02  0.14273349233E+03  0.80055357279E+02 0.  0.
          5    1    5    5  501    0 -0.94427782430E+01 -0.64383496215E+02 -0.60365014969E+01  0.65520454792E+02  0.47000000000E+01 0. -1.
        -13    1    6    6    0    0 -0.56174046210E+02  0.55924436076E+02 -0.45920830838E+02  0.91606706757E+02  0.00000000000E+00 0.  1.
         14    1    6    6    0    0  0.69067581131E+01 -0.77239377677E+01 -0.50065813492E+02  0.51126785572E+02  0.00000000000E+00 0. -1.
         -5    1    3    3    0  503 -0.44238449124E+02 -0.98237011447E+01 -0.14128706728E+03  0.14845090389E+03  0.47000000000E+01 0.  1.
         13    1    4    4    0    0 -0.77443189570E+01  0.19866784903E+02 -0.48947714924E+02  0.53390471199E+02  0.00000000000E+00 0. -1.
        -14    1    4    4    0    0  0.11069283442E+03  0.61399141487E+01 -0.20851482465E+03  0.23615468286E+03  0.00000000000E+00 0.  1.
</event>
<event>
12    1  0.8563264E-002  0.1729481E+03  0.7818608E-02  0.1178112E+00
         21   -1    0    0  503  502  0.00000000000E+00  0.00000000000E+00  0.48032535165E+03  0.48032535165E+03  0.00000000000E+00 0.  1.
         21   -1    0    0  501  503 -0.00000000000E+00 -0.00000000000E+00 -0.17930054706E+03  0.17930054706E+03  0.00000000000E+00 0.  1.
          6    2    1    2  501    0 -0.95555216881E+01 -0.50331730284E+01 -0.12266187483E+03  0.20200002449E+03  0.16012942744E+03 0.  0.
         24    2    3    3    0    0 -0.61701659081E+02 -0.39159289957E+01 -0.44314851064E+02  0.10776195356E+03  0.76330880890E+02 0.  0.
         -6    2    1    2    0  502  0.95555216881E+01  0.50331730284E+01  0.42368667942E+03  0.45762587422E+03  0.17261053737E+03 0.  0.
        -24    2    5    5    0    0  0.67675010461E+02 -0.44045924597E+01  0.32304462474E+03  0.34093028920E+03  0.85301377741E+02 0.  0.
          5    1    3    3  501    0  0.52146137393E+02 -0.11172440327E+01 -0.78347023765E+02  0.94238070927E+02  0.47000000000E+01 0. -1.
        -11    1    4    4    0    0 -0.16678991093E+02 -0.11389762027E+02 -0.56934384982E+02  0.60410591921E+02  0.00000000000E+00 0.  1.
         12    1    4    4    0    0 -0.45022667988E+02  0.74738330308E+01  0.12619533919E+02  0.47351361641E+02  0.00000000000E+00 0. -1.
         -5    1    5    5    0  502 -0.58119488773E+02  0.94377654881E+01  0.10064205468E+03  0.11669558502E+03  0.47000000000E+01 0.  1.
         13    1    6    6    0    0  0.39724271596E+02  0.38406370867E+02  0.13055341242E+03  0.14176480724E+03  0.00000000000E+00 0. -1.
        -14    1    6    6    0    0  0.27950738865E+02 -0.42810963327E+02  0.19249121232E+03  0.19916548196E+03  0.00000000000E+00 0.  1.
</event>
<event>
12    1  0.8563264E-002  0.1856229E+03  0.7818608E-02  0.1163400E+00
         21   -1    0    0  503  502  0.00000000000E+00  0.00000000000E+00  0.43125308677E+03  0.43125308677E+03  0.00000000000E+00 0. -1.
         21   -1    0    0  501  503 -0.00000000000E+00 -0.00000000000E+00 -0.18056173621E+03  0.18056173621E+03  0.00000000000E+00 0. -1.
          6    2    1    2  501    0 -0.47272138740E+02  0.52440766378E+02 -0.10555820736E+03  0.21010643889E+03  0.16738426282E+03 0.  0.
         24    2    3    3    0    0 -0.28651741402E+02  0.41009767875E+02  0.80955363476E+01  0.94276173484E+02  0.79496766170E+02 0.  0.
         -6    2    1    2    0  502  0.47272138740E+02 -0.52440766378E+02  0.35624955792E+03  0.40170838410E+03  0.17167174856E+03 0.  0.
        -24    2    5    5    0    0  0.73069538686E+02 -0.26455283478E+02  0.34680871598E+03  0.36360365129E+03  0.76761254851E+02 0.  0.
          5    1    3    3  501    0 -0.18620397339E+02  0.11430998504E+02 -0.11365374371E+03  0.11583026540E+03  0.47000000000E+01 0. -1.
        -13    1    4    4    0    0  0.17973178889E+02  0.83827195398E+01  0.27717069645E+02  0.34081389291E+02  0.00000000000E+00 0.  1.
         14    1    4    4    0    0 -0.46624920291E+02  0.32627048335E+02 -0.19621533298E+02  0.60194784193E+02  0.00000000000E+00 0. -1.
         -5    1    5    5    0  502 -0.25797399946E+02 -0.25985482900E+02  0.94408419422E+01  0.38104732804E+02  0.47000000000E+01 0.  1.
         13    1    6    6    0    0  0.23509518095E+02 -0.45065806189E+02  0.11346237898E+03  0.12432753425E+03  0.00000000000E+00 0. -1.
        -14    1    6    6    0    0  0.49560020591E+02  0.18610522710E+02  0.23334633700E+03  0.23927611705E+03  0.00000000000E+00 0.  1.
</event>
<event>
12    1  0.8563264E-002  0.1833720E+03  0.7818608E-02  0.1165120E+00
         21   -1    0    0  501  502  0.00000000000E+00  0.00000000000E+00  0.14090187825E+03  0.14090187825E+03  0.00000000000E+00 0. -1.
         21   -1    0    0  502  503 -0.00000000000E+00 -0.00000000000E+00 -0.33054551962E+03  0.33054551962E+03  0.00000000000E+00 0.  1.
         -6    2    1    2    0  503  0.66160539873E+01  0.63667716653E+02 -0.22151545826E+03  0.28756629796E+03  0.17183692026E+03 0.  0.
        -24    2    3    3    0    0 -0.66480995674E+01  0.10800204532E+03 -0.14177286266E+03  0.19524922468E+03  0.79461161147E+02 0.  0.
          6    2    1    2  501    0 -0.66160539873E+01 -0.63667716653E+02  0.31871816890E+02  0.18388109990E+03  0.16940807500E+03 0.  0.
         24    2    5    5    0    0 -0.59855256024E+02 -0.46222764035E+02  0.54040671401E+02  0.12344694469E+03  0.81237666139E+02 0.  0.
          5    1    5    5  501    0  0.53239202037E+02 -0.17444952618E+02 -0.22168854511E+02  0.60434155208E+02  0.47000000000E+01 0. -1.
        -13    1    6    6    0    0 -0.33564959406E+01  0.20656098970E+02  0.21615109548E+02  0.30085768237E+02  0.00000000000E+00 0.  1.
         14    1    6    6    0    0 -0.56498760083E+02 -0.66878863004E+02  0.32425561853E+02  0.93361176456E+02  0.00000000000E+00 0. -1.
         -5    1    3    3    0  503  0.13264153555E+02 -0.44334328663E+02 -0.79742595594E+02  0.92317073283E+02  0.47000000000E+01 0.  1.
         13    1    4    4    0    0 -0.37223555621E+02  0.50437451939E+02 -0.99368626724E+02  0.11748895109E+03  0.00000000000E+00 0. -1.
        -14    1    4    4    0    0  0.30575456053E+02  0.57564593377E+02 -0.42404235939E+02  0.77760273591E+02  0.00000000000E+00 0.  1.
</event>
<event>
12    1  0.8563264E-002  0.1958362E+03  0.7818608E-02  0.1156431E+00
         21   -1    0    0  501  502  0.00000000000E+00  0.00000000000E+00  0.29591317782E+03  0.29591317782E+03  0.00000000000E+00 0.  1.
         21   -1    0    0  502  503 -0.00000000000E+00 -0.00000000000E+00 -0.28133083317E+03  0.28133083317E+03  0.00000000000E+00 0.  1.
         -6    2    1    2    0  503  0.53615826470E+02  0.13611174897E+02 -0.21093339204E+03  0.27856496292E+03  0.17333672940E+03 0.  0.
        -24    2    3    3    0    0 -0.31169667969E+02  0.31199933465E+02 -0.75383617574E+02  0.11764953217E+03  0.78827270483E+02 0.  0.
          6    2    1    2  501    0 -0.53615826470E+02 -0.13611174897E+02  0.22551573669E+03  0.29867904807E+03  0.18786139925E+03 0.  0.
         24    2    5    5    0    0 -0.66385782351E+02  0.52523034032E+02  0.19625636821E+03  0.22509232367E+03  0.70599227384E+02 0.  0.
          5    1    5    5  501    0  0.12769955881E+02 -0.66134208930E+02  0.29259368477E+02  0.73586724398E+02  0.47000000000E+01 0. -1.
        -11    1    6    6    0    0 -0.21160803932E+02  0.60404550187E+02  0.10578477934E+03  0.12364023959E+03  0.00000000000E+00 0.  1.
         12    1    6    6    0    0 -0.45224978419E+02 -0.78815161546E+01  0.90471588878E+02  0.10145208408E+03  0.00000000000E+00 0. -1.
         -5    1    3    3    0  503  0.84785494439E+02 -0.17588758567E+02 -0.13554977447E+03  0.16091543075E+03  0.47000000000E+01 0.  1.
         13    1    4    4    0    0  0.18708332448E+02 -0.84696151385E+01 -0.39480673831E+02  0.44502356001E+02  0.00000000000E+00 0. -1.
        -14    1    4    4    0    0 -0.49878000417E+02  0.39669548603E+02 -0.35902943744E+02  0.73147176169E+02  0.00000000000E+00 0.  1.
</event>
<event>
12    1  0.8563264E-002  0.1817556E+03  0.7818608E-02  0.1166201E+00
         21   -1    0    0  503  502  0.00000000000E+00  0.00000000000E+00  0.80588808742E+03  0.80588808742E+03  0.00000000000E+00 0. -1.
         21   -1    0    0  501  503 -0.00000000000E+00 -0.00000000000E+00 -0.50407151886E+02  0.50407151886E+02  0.00000000000E+00 0. -1.
          6    2    1    2  501    0 -0.57870025341E+02 -0.15813814648E+02  0.19221266596E+03  0.26453883461E+03  0.17156943054E+03 0.  0.
         24    2    3    3    0    0  0.39685301012E+00 -0.40456406450E+02  0.17911694112E+03  0.19976326474E+03  0.78648617437E+02 0.  0.
         -6    2    1    2    0  502  0.57870025341E+02  0.15813814648E+02  0.56326826958E+03  0.59175640470E+03  0.17118844127E+03 0.  0.
        -24    2    5    5    0    0  0.89676997231E+02 -0.80174963198E+01  0.51357357123E+03  0.52794991688E+03  0.82867711419E+02 0.  0.
          5    1    3    3  501    0 -0.58266878351E+02  0.24642591802E+02  0.13095724834E+02  0.64775569874E+02  0.47000000000E+01 0. -1.
        -11    1    4    4    0    0  0.29319822382E+02  0.87010480024E+01  0.50027795060E+02  0.58635658941E+02  0.00000000000E+00 0.  1.
         12    1    4    4    0    0 -0.28922969372E+02 -0.49157454453E+02  0.12908914606E+03  0.14112760579E+03  0.00000000000E+00 0. -1.
         -5    1    5    5    0  502 -0.31806971890E+02  0.23831310968E+02  0.49694698355E+02  0.63806487819E+02  0.47000000000E+01 0.  1.
         13    1    6    6    0    0  0.33120385736E+02  0.33464491613E+02  0.28481339248E+03  0.28867888854E+03  0.00000000000E+00 0. -1.
        -14    1    6    6    0    0  0.56556611495E+02 -0.41481987933E+02  0.22876017875E+03  0.23927102835E+03  0.00000000000E+00 0.  1.
</event>
<event>
12    1  0.8563264E-002  0.2297045E+03  0.7818608E-02  0.1126986E+00
         21   -1    0    0  501  502  0.00000000000E+00  0.00000000000E+00  0.12952033766E+03  0.12952033766E+03  0.00000000000E+00 0. -1.
         21   -1    0    0  502  503 -0.00000000000E+00 -0.00000000000E+00 -0.65542783421E+03  0.65542783421E+03  0.00000000000E+00 0.  1.
         -6    2    1    2    0  503  0.12182145056E+03  0.89535257782E+02 -0.21116167948E+02  0.23067302238E+03  0.17293675868E+03 0.  0.
        -24    2    3    3    0    0  0.79971880683E+02  0.30640900310E+02  0.51117931676E+02  0.12839992235E+03  0.80864891327E+02 0.  0.
          6    2    1    2  501    0 -0.12182145056E+03 -0.89535257782E+02 -0.50479132860E+03  0.55427514949E+03  0.17190005148E+03 0.  0.
         24    2    5    5    0    0 -0.21450733261E+02  0.95217728436E+01 -0.19937917507E+03  0.21784499368E+03  0.84578884511E+02 0.  0.
          5    1    5    5  501    0 -0.10037071730E+03 -0.99057030626E+02 -0.30541215354E+03  0.33643015581E+03  0.47000000000E+01 0. -1.
        -13    1    6    6    0    0 -0.33551104205E+02 -0.27119557855E+02 -0.64832695184E+02  0.77874420553E+02  0.00000000000E+00 0.  1.
         14    1    6    6    0    0  0.12100370944E+02  0.36641330699E+02 -0.13454647988E+03  0.13997057312E+03  0.00000000000E+00 0. -1.
         -5    1    3    3    0  503  0.41849569875E+02  0.58894357472E+02 -0.72234099624E+02  0.10227310003E+03  0.47000000000E+01 0.  1.
         13    1    4    4    0    0  0.20393152149E+02  0.50076903618E+02  0.32227331088E+02  0.62945832266E+02  0.00000000000E+00 0. -1.
        -14    1    4    4    0    0  0.59578728535E+02 -0.19436003308E+02  0.18890600588E+02  0.65454090086E+02  0.00000000000E+00 0.  1.
</event>
<event>
12    1  0.8563264E-002  0.2760922E+03  0.7818608E-02  0.1100155E+00
         21   -1    0    0  503  502  0.00000000000E+00  0.00000000000E+00  0.14090516581E+03  0.14090516581E+03  0.00000000000E+00 0.  1.
         21   -1    0    0  501  503 -0.00000000000E+00 -0.00000000000E+00 -0.53321924882E+03  0.53321924882E+03  0.00000000000E+00 0.  1.
          6    2    1    2  501    0 -0.19910842731E+03  0.58618290251E+02 -0.12002638949E+03  0.28635193937E+03  0.15655934730E+03 0.  0.
         24    2    3    3    0    0 -0.18992314978E+03  0.89226602061E+02 -0.96052302696E+02  0.24612651317E+03  0.85557152223E+02 0.  0.
         -6    2    1    2    0  502  0.19910842731E+03 -0.58618290251E+02 -0.27228769353E+03  0.38777247526E+03  0.18206217275E+03 0.  0.
        -24    2    5    5    0    0  0.22345413139E+02 -0.39930581665E+02 -0.13159054651E+03  0.16102995431E+03  0.80751504083E+02 0.  0.
          5    1    3    3  501    0 -0.91852775351E+01 -0.30608311810E+02 -0.23974086789E+02  0.40225426196E+02  0.47000000000E+01 0. -1.
        -11    1    4    4    0    0 -0.13935599186E+03  0.19906205426E+02 -0.57558830184E+02  0.15208342584E+03  0.00000000000E+00 0.  1.
         12    1    4    4    0    0 -0.50567157913E+02  0.69320396635E+02 -0.38493472513E+02  0.94043087333E+02  0.00000000000E+00 0. -1.
         -5    1    5    5    0  502  0.17676301417E+03 -0.18687708586E+02 -0.14069714701E+03  0.22674252096E+03  0.47000000000E+01 0.  1.
         11    1    6    6    0    0 -0.12454642563E+02 -0.26635381602E+02 -0.59718269158E+01  0.30003739620E+02  0.00000000000E+00 0. -1.
        -12    1    6    6    0    0  0.34800055703E+02 -0.13295200063E+02 -0.12561871960E+03  0.13102621469E+03  0.00000000000E+00 0.  1.
</event>
<event>
12    1  0.8563264E-002  0.1735687E+03  0.7818608E-02  0.1174451E+00
         21   -1    0    0  501  502  0.00000000000E+00  0.00000000000E+00  0.88311777355E+02  0.88311777355E+02  0.00000000000E+00 0. -1.
         21   -1    0    0  502  503 -0.00000000000E+00 -0.00000000000E+00 -0.41019965651E+03  0.41019965651E+03  0.00000000000E+00 0. -1.
         -6    2    1    2    0  503 -0.13787366877E+02 -0.58471998876E+01 -0.26518903394E+03  0.31694055388E+03  0.17292139756E+03 0.  0.
        -24    2    3    3    0    0  0.39827564129E+02 -0.45823264766E+02 -0.14406625615E+03  0.17850116681E+03  0.86148557350E+02 0.  0.
          6    2    1    2  501    0  0.13787366877E+02  0.58471998876E+01 -0.56698845206E+02  0.18157087998E+03  0.17183987948E+03 0.  0.
         24    2    5    5    0    0 -0.35994617624E+02 -0.30990242351E+02  0.66789554972E+01  0.92834874025E+02  0.79483946617E+02 0.  0.
          5    1    5    5  501    0  0.49781984501E+02  0.36837442239E+02 -0.63377800703E+02  0.88736005959E+02  0.47000000000E+01 0. -1.
        -13    1    6    6    0    0 -0.34111664789E+02  0.18165648748E+02  0.17567146011E+02  0.42452339017E+02  0.00000000000E+00 0.  1.
         14    1    6    6    0    0 -0.18829528358E+01 -0.49155891100E+02 -0.10888190514E+02  0.50382535008E+02  0.00000000000E+00 0. -1.
         -5    1    3    3    0  503 -0.53614931006E+02  0.39976064879E+02 -0.12112277779E+03  0.13843938706E+03  0.47000000000E+01 0.  1.
         11    1    4    4    0    0  0.27495831795E+02  0.10392717499E+00 -0.12378651715E+03  0.12680352281E+03  0.00000000000E+00 0. -1.
        -12    1    4    4    0    0  0.12331732334E+02 -0.45927191941E+02 -0.20279738998E+02  0.51697644006E+02  0.00000000000E+00 0.  1.
</event>
<event>
12    1  0.8563264E-002  0.1934035E+03  0.7818608E-02  0.1156936E+00
         21   -1    0    0  503  502  0.00000000000E+00  0.00000000000E+00  0.36174042178E+03  0.36174042178E+03  0.00000000000E+00 0.  1.
         21   -1    0    0  501  503 -0.00000000000E+00 -0.00000000000E+00 -0.11201689347E+03  0.11201689347E+03  0.00000000000E+00 0. -1.
          6    2    1    2  501    0  0.47786063180E+02 -0.56520842133E+02  0.20491375767E+03  0.28177041083E+03  0.17868072897E+03 0.  0.
         24    2    3    3    0    0 -0.18349105726E+02 -0.86621835427E+02  0.11388255238E+03  0.16519982835E+03  0.80509101939E+02 0.  0.
         -6    2    1    2    0  502 -0.47786063180E+02  0.56520842133E+02  0.44809770631E+02  0.19198690442E+03  0.17138536255E+03 0.  0.
        -24    2    5    5    0    0 -0.63928514247E+02  0.32095483637E+02  0.87953649091E+02  0.13963558054E+03  0.81518562055E+02 0.  0.
          5    1    3    3  501    0  0.66135168906E+02  0.30100993294E+02  0.91031205292E+02  0.11657058248E+03  0.47000000000E+01 0. -1.
        -13    1    4    4    0    0 -0.27331848788E+02 -0.72797774845E+02  0.12362743529E+03  0.14604892584E+03  0.00000000000E+00 0.  1.
         14    1    4    4    0    0  0.89827430621E+01 -0.13824060582E+02 -0.97448829140E+01  0.19150902509E+02  0.00000000000E+00 0. -1.
         -5    1    5    5    0  502  0.16142451066E+02  0.24425358496E+02 -0.43143878459E+02  0.52351323886E+02  0.47000000000E+01 0.  1.
         13    1    6    6    0    0  0.42804354766E+01  0.30078211406E+02  0.27952415072E+01  0.30509577256E+02  0.00000000000E+00 0. -1.
        -14    1    6    6    0    0 -0.68208949723E+02  0.20172722309E+01  0.85158407583E+02  0.10912600328E+03  0.00000000000E+00 0.  1.
</event>
<event>
12    1  0.8563264E-002  0.1896317E+03  0.7818608E-02  0.1158870E+00
         21   -1    0    0  503  502  0.00000000000E+00  0.00000000000E+00  0.19692345959E+02  0.19692345959E+02  0.00000000000E+00 0.  1.
         21   -1    0    0  501  503 -0.00000000000E+00 -0.00000000000E+00 -0.24880488167E+04  0.24880488167E+04  0.00000000000E+00 0.  1.
          6    2    1    2  501    0 -0.17928390415E+01 -0.75607437900E+02 -0.58506189901E+03  0.61492352158E+03  0.17353331894E+03 0.  0.
         24    2    3    3    0    0 -0.37861224290E+02 -0.66766514384E+02 -0.20862798603E+03  0.23663306283E+03  0.81106905501E+02 0.  0.
         -6    2    1    2    0  502  0.17928390415E+01  0.75607437900E+02 -0.18832945717E+04  0.18928176410E+04  0.17389789973E+03 0.  0.
        -24    2    5    5    0    0  0.63275820863E+02  0.30285087223E+02 -0.14109469542E+04  0.14143109699E+04  0.67699306856E+02 0.  0.
          5    1    3    3  501    0  0.36068385249E+02 -0.88409235153E+01 -0.37643391298E+03  0.37829045875E+03  0.47000000000E+01 0. -1.
        -13    1    4    4    0    0 -0.41868811218E+02 -0.79459575272E+02 -0.20337274802E+03  0.22232250469E+03  0.00000000000E+00 0.  1.
         14    1    4    4    0    0  0.40075869271E+01  0.12693060887E+02 -0.52552380145E+01  0.14310558139E+02  0.00000000000E+00 0. -1.
         -5    1    5    5    0  502 -0.61482981822E+02  0.45322350677E+02 -0.47234761752E+03  0.47850667112E+03  0.47000000000E+01 0.  1.
         13    1    6    6    0    0  0.52658847421E+02  0.51144421935E+02 -0.11361606726E+04  0.11385296571E+04  0.00000000000E+00 0. -1.
        -14    1    6    6    0    0  0.10616973442E+02 -0.20859334712E+02 -0.27478628153E+03  0.27578131280E+03  0.00000000000E+00 0.  1.
</event>
<event>
12    1  0.8563264E-002  0.1877909E+03  0.7818608E-02  0.1161163E+00
         21   -1    0    0  501  502  0.00000000000E+00  0.00000000000E+00  0.22319368373E+03  0.22319368373E+03  0.00000000000E+00 0.  1.
         21   -1    0    0  502  503 -0.00000000000E+00 -0.00000000000E+00 -0.15969445092E+03  0.15969445092E+03  0.00000000000E+00 0.  1.
         -6    2    1    2    0  503 -0.59094225876E+02  0.39249969446E+02  0.41742230683E+00  0.18478529326E+03  0.17062456661E+03 0.  0.
        -24    2    3    3    0    0  0.32766850899E+02  0.24776202977E+02  0.12891124120E+02  0.90840465951E+02  0.79989264414E+02 0.  0.
          6    2    1    2  501    0  0.59094225876E+02 -0.39249969446E+02  0.63081810499E+02  0.19810284139E+03  0.17387562600E+03 0.  0.
         24    2    5    5    0    0 -0.21404003744E+02  0.11159654169E+02  0.58403960648E+02  0.10289219385E+03  0.81197978291E+02 0.  0.
          5    1    5    5  501    0  0.80498229620E+02 -0.50409623615E+02  0.46778498503E+01  0.95210647536E+02  0.47000000000E+01 0. -1.
        -13    1    6    6    0    0  0.14667804002E+02 -0.27905263080E+02  0.20876404552E+02  0.37811009624E+02  0.00000000000E+00 0.  1.
         14    1    6    6    0    0 -0.36071807747E+02  0.39064917249E+02  0.37527556097E+02  0.65081184227E+02  0.00000000000E+00 0. -1.
         -5    1    3    3    0  503 -0.91861076774E+02  0.14473766469E+02 -0.12473701813E+02  0.93944827313E+02  0.47000000000E+01 0.  1.
         11    1    4    4    0    0  0.41497213123E+02  0.30629287594E+02 -0.20750896634E+02  0.55594708980E+02  0.00000000000E+00 0. -1.
        -12    1    4    4    0    0 -0.87303622242E+01 -0.58530846170E+01  0.33642020754E+02  0.35245756971E+02  0.00000000000E+00 0.  1.
</event>
<event>
12    1  0.8563264E-002  0.2174057E+03  0.7818608E-02  0.1136013E+00
         21   -1    0    0  503  502  0.00000000000E+00  0.00000000000E+00  0.64417386953E+03  0.64417386953E+03  0.00000000000E+00 0.  1.
         21   -1    0    0  501  503 -0.00000000000E+00 -0.00000000000E+00 -0.10166121245E+03  0.10166121245E+03  0.00000000000E+00 0.  1.
          6    2    1    2  501    0  0.11023635953E+03 -0.71671835463E+02  0.73856891867E+02  0.22960852895E+03  0.17313673535E+03 0.  0.
         24    2    3    3    0    0  0.76003619930E+01 -0.31280987511E+02 -0.15738401380E+02  0.87429152239E+02  0.79748941693E+02 0.  0.
         -6    2    1    2    0  502 -0.11023635953E+03  0.71671835463E+02  0.46865576522E+03  0.51622655304E+03  0.17193813082E+03 0.  0.
        -24    2    5    5    0    0 -0.10091241200E+01  0.50866337457E+02  0.13849983520E+03  0.16781804880E+03  0.79951801315E+02 0.  0.
          5    1    3    3  501    0  0.10263599754E+03 -0.40390847952E+02  0.89595293247E+02  0.14217937671E+03  0.47000000000E+01 0. -1.
        -13    1    4    4    0    0 -0.78028808552E+00 -0.53319842710E+02 -0.28662895800E+02  0.60540697648E+02  0.00000000000E+00 0.  1.
         14    1    4    4    0    0  0.83806500785E+01  0.22038855199E+02  0.12924494420E+02  0.26888454590E+02  0.00000000000E+00 0. -1.
         -5    1    5    5    0  502 -0.10922723541E+03  0.20805498006E+02  0.33015593002E+03  0.34840850424E+03  0.47000000000E+01 0.  1.
         13    1    6    6    0    0 -0.30318189880E+02 -0.14388910648E+01  0.24476232221E+02  0.38991652810E+02  0.00000000000E+00 0. -1.
        -14    1    6    6    0    0  0.29309065760E+02  0.52305228522E+02  0.11402360298E+03  0.12882639599E+03  0.00000000000E+00 0.  1.
</event>
<event>
12    1  0.8563264E-002  0.1944653E+03  0.7818608E-02  0.1154781E+00
         21   -1    0    0  501  502  0.00000000000E+00  0.00000000000E+00  0.14899025446E+03  0.14899025446E+03  0.00000000000E+00 0. -1.
         21   -1    0    0  502  503 -0.00000000000E+00 -0.00000000000E+00 -0.25265740206E+03  0.25265740206E+03  0.00000000000E+00 0. -1.
         -6    2    1    2    0  503 -0.39926403064E+02  0.74864585719E+02 -0.42720898450E+02  0.19910252185E+03  0.17497975651E+03 0.  0.
        -24    2    3    3    0    0 -0.24573042840E+02  0.17583704102E+02  0.40519409428E+02  0.96789942349E+02  0.82543620681E+02 0.  0.
          6    2    1    2  501    0  0.39926403064E+02 -0.74864585719E+02 -0.60946249154E+02  0.20254513467E+03  0.17352597050E+03 0.  0.
         24    2    5    5    0    0 -0.31286041329E+02 -0.17905921457E+02  0.99463909089E+01  0.86945142951E+02  0.78492603380E+02 0.  0.
          5    1    5    5  501    0  0.71212444393E+02 -0.56958664262E+02 -0.70892640063E+02  0.11559999172E+03  0.47000000000E+01 0. -1.
        -11    1    6    6    0    0 -0.56444116516E+02 -0.27961480555E+01  0.11024271441E+02  0.57578566273E+02  0.00000000000E+00 0.  1.
         12    1    6    6    0    0  0.25158075187E+02 -0.15109773401E+02 -0.10778805326E+01  0.29366576678E+02  0.00000000000E+00 0. -1.
         -5    1    3    3    0  503 -0.15353360224E+02  0.57280881616E+02 -0.83240307878E+02  0.10231257950E+03  0.47000000000E+01 0.  1.
         13    1    4    4    0    0 -0.42417004123E+02 -0.19230061741E+02  0.26259689208E+02  0.53465585105E+02  0.00000000000E+00 0. -1.
        -14    1    4    4    0    0  0.17843961283E+02  0.36813765844E+02  0.14259720220E+02  0.43324357244E+02  0.00000000000E+00 0.  1.
</event>
<event>
12    1  0.8563264E-002  0.2117689E+03  0.7818608E-02  0.1140392E+00
         21   -1    0    0  501  502  0.00000000000E+00  0.00000000000E+00  0.51330150403E+03  0.51330150403E+03  0.00000000000E+00 0. -1.
         21   -1    0    0  502  503 -0.00000000000E+00 -0.00000000000E+00 -0.15758288767E+03  0.15758288767E+03  0.00000000000E+00 0. -1.
         -6    2    1    2    0  503  0.68107230564E+02 -0.10121660487E+03 -0.47042118634E+02  0.21584341009E+03  0.17173241044E+03 0.  0.
        -24    2    3    3    0    0  0.97926429745E+02 -0.25995953203E+02 -0.20920300865E+02  0.13068608251E+03  0.79848719136E+02 0.  0.
          6    2    1    2  501    0 -0.68107230564E+02  0.10121660487E+03  0.40276073499E+03  0.45504098161E+03  0.17309734063E+03 0.  0.
         24    2    5    5    0    0 -0.53743461477E+02  0.14013509114E+03  0.32690343544E+03  0.36845353256E+03  0.79786879472E+02 0.  0.
          5    1    5    5  501    0 -0.14363769087E+02 -0.38918486273E+02  0.75857299556E+02  0.86587449045E+02  0.47000000000E+01 0. -1.
        -11    1    6    6    0    0 -0.38812418048E+02  0.30064688418E+02  0.49869654188E+02  0.69980509381E+02  0.00000000000E+00 0.  1.
         12    1    6    6    0    0 -0.14931043429E+02  0.11007040272E+03  0.27703378125E+03  0.29847302318E+03  0.00000000000E+00 0. -1.
         -5    1    3    3    0  503 -0.29819199181E+02 -0.75220651666E+02 -0.26121817769E+02  0.85157327579E+02  0.47000000000E+01 0.  1.
         11    1    4    4    0    0  0.88295851401E+01 -0.21517390408E+02 -0.33303686907E+02  0.40621364149E+02  0.00000000000E+00 0. -1.
        -12    1    4    4    0    0  0.89096844605E+02 -0.44785627947E+01  0.12383386043E+02  0.90064718359E+02  0.00000000000E+00 0.  1.
</event>
<event>
12    1  0.8563264E-002  0.2061111E+03  0.7818608E-02  0.1145126E+00
         21   -1    0    0  501  502  0.00000000000E+00  0.00000000000E+00  0.50043688439E+02  0.50043688439E+02  0.00000000000E+00 0. -1.
         21   -1    0    0  502  503 -0.00000000000E+00 -0.00000000000E+00 -0.87953556476E+03  0.87953556476E+03  0.00000000000E+00 0. -1.
         -6    2    1    2    0  503 -0.53889765157E+02  0.99170569283E+02 -0.51122339835E+03  0.55040038571E+03  0.16985968614E+03 0.  0.
        -24    2    3    3    0    0 -0.45367237120E+02  0.14962849797E+02 -0.12707279929E+03  0.15700828328E+03  0.78879855599E+02 0.  0.
          6    2    1    2  501    0  0.53889765157E+02 -0.99170569283E+02 -0.31826847797E+03  0.37917886749E+03  0.17246124456E+03 0.  0.
         24    2    5    5    0    0  0.51343391967E+02 -0.18041904815E+02 -0.26527856854E+03  0.28213060776E+03  0.79141055590E+02 0.  0.
          5    1    5    5  501    0  0.25463731905E+01 -0.81128664468E+02 -0.52989909437E+02  0.97048259732E+02  0.47000000000E+01 0. -1.
        -11    1    6    6    0    0  0.29019696258E+02  0.29716483788E+02 -0.14442817630E+03  0.15028210235E+03  0.00000000000E+00 0.  1.
         12    1    6    6    0    0  0.22323695709E+02 -0.47758388604E+02 -0.12085039224E+03  0.13184850540E+03  0.00000000000E+00 0. -1.
         -5    1    3    3    0  503 -0.85225280375E+01  0.84207719486E+02 -0.38415059905E+03  0.39339210244E+03  0.47000000000E+01 0.  1.
         11    1    4    4    0    0 -0.34289971477E+02  0.22499730469E+02 -0.14287685710E+02  0.43430150564E+02  0.00000000000E+00 0. -1.
        -12    1    4    4    0    0 -0.11077265643E+02 -0.75368806720E+01 -0.11278511359E+03  0.11357813271E+03  0.00000000000E+00 0.  1.
</event>
<event>
12    1  0.8563264E-002  0.2417488E+03  0.7818608E-02  0.1118715E+00
         21   -1    0    0  503  502  0.00000000000E+00  0.00000000000E+00  0.58701372243E+03  0.58701372243E+03  0.00000000000E+00 0.  1.
         21   -1    0    0  501  503 -0.00000000000E+00 -0.00000000000E+00 -0.18544338524E+03  0.18544338524E+03  0.00000000000E+00 0. -1.
          6    2    1    2  501    0 -0.62075588107E+02 -0.15872857214E+03 -0.62481010776E+02  0.24921132028E+03  0.17074620697E+03 0.  0.
         24    2    3    3    0    0  0.20004893897E+02 -0.29486506901E+02 -0.40896434041E+02  0.94522274427E+02  0.77409897148E+02 0.  0.
         -6    2    1    2    0  502  0.62075588107E+02  0.15872857214E+03  0.46405134797E+03  0.52324578739E+03  0.17144784108E+03 0.  0.
        -24    2    5    5    0    0 -0.19664596401E+02  0.12990048320E+03  0.28561298648E+03  0.32481480360E+03  0.81664231489E+02 0.  0.
          5    1    3    3  501    0 -0.82080482003E+02 -0.12924206524E+03 -0.21584576734E+02  0.15468904585E+03  0.47000000000E+01 0. -1.
        -13    1    4    4    0    0  0.12646841827E+02 -0.22210271081E+02  0.20186553739E+02  0.32568937679E+02  0.00000000000E+00 0.  1.
         14    1    4    4    0    0  0.73580520697E+01 -0.72762358201E+01 -0.61082987781E+02  0.61953336748E+02  0.00000000000E+00 0. -1.
         -5    1    5    5    0  502  0.81740184508E+02  0.28828088945E+02  0.17843836149E+03  0.19843098379E+03  0.47000000000E+01 0.  1.
         11    1    6    6    0    0  0.80094303368E+00  0.10392748766E+03  0.13369476313E+03  0.16933946347E+03  0.00000000000E+00 0. -1.
        -12    1    6    6    0    0 -0.20465539435E+02  0.25972995539E+02  0.15191822335E+03  0.15547534013E+03  0.00000000000E+00 0.  1.
</event>
<event>
12    1  0.8563264E-002  0.1831148E+03  0.7818608E-02  0.1165489E+00
         21   -1    0    0  503  502  0.00000000000E+00  0.00000000000E+00  0.15179507443E+03  0.15179507443E+03  0.00000000000E+00 0.  1.
         21   -1    0    0  501  503 -0.00000000000E+00 -0.00000000000E+00 -0.24553322427E+03  0.24553322427E+03  0.00000000000E+00 0.  1.
          6    2    1    2  501    0 -0.26744008094E+02  0.51664496899E+02 -0.11363132713E+03  0.21313607794E+03  0.17067643951E+03 0.  0.
         24    2    3    3    0    0  0.45247416952E+02  0.12401456781E+02 -0.31118201985E+02  0.96710748129E+02  0.78635242975E+02 0.  0.
         -6    2    1    2    0  502  0.26744008094E+02 -0.51664496899E+02  0.19893177290E+02  0.18419222076E+03  0.17362768637E+03 0.  0.
        -24    2    5    5    0    0  0.50089158850E+02 -0.50095403584E+02 -0.44614678318E+02  0.11541132550E+03  0.79440740409E+02 0.  0.
          5    1    3    3  501    0 -0.71991425047E+02  0.39263040118E+02 -0.82513125145E+02  0.11642532981E+03  0.47000000000E+01 0. -1.
        -13    1    4    4    0    0 -0.85950321880E+01  0.25931574354E+02 -0.30831643253E+02  0.41193583875E+02  0.00000000000E+00 0.  1.
         14    1    4    4    0    0  0.53842449140E+02 -0.13530117573E+02 -0.28655873243E+00  0.55517164255E+02  0.00000000000E+00 0. -1.
         -5    1    5    5    0  502 -0.23345150756E+02 -0.15690933148E+01  0.64507855608E+02  0.68780895260E+02  0.47000000000E+01 0.  1.
         13    1    6    6    0    0 -0.75753486682E+01  0.16360267561E+02 -0.38255946202E+01  0.18430394362E+02  0.00000000000E+00 0. -1.
        -14    1    6    6    0    0  0.57664507518E+02 -0.66455671145E+02 -0.40789083697E+02  0.96980931134E+02  0.00000000000E+00 0.  1.
</event>
<event>
12    1  0.8563264E-002  0.1792531E+03  0.7818608E-02  0.1168752E+00
         21   -1    0    0  503  502  0.00000000000E+00  0.00000000000E+00  0.18490825902E+02  0.18490825902E+02  0.00000000000E+00 0.  1.
         21   -1    0    0  501  503 -0.00000000000E+00 -0.00000000000E+00 -0.17555975864E+04  0.17555975864E+04  0.00000000000E+00 0.  1.
          6    2    1    2  501    0  0.40754406654E+02 -0.32495502330E+02 -0.97592118273E+03  0.99208128529E+03  0.17054689207E+03 0.  0.
         24    2    3    3    0    0  0.36738606006E+02  0.19981850362E+02 -0.86245477753E+03  0.86691453928E+03  0.77224190519E+02 0.  0.
         -6    2    1    2    0  502 -0.40754406654E+02  0.32495502330E+02 -0.76118557781E+03  0.78200712705E+03  0.17150738631E+03 0.  0.
        -24    2    5    5    0    0 -0.53722289446E+01  0.29205827192E+01 -0.15975728906E+03  0.17879518182E+03  0.80049578289E+02 0.  0.
          5    1    3    3  501    0  0.40158006482E+01 -0.52477352693E+02 -0.11346640519E+03  0.12516674602E+03  0.47000000000E+01 0. -1.
        -13    1    4    4    0    0  0.19406708142E+02 -0.28237750642E+01 -0.76709345092E+03  0.76734409262E+03  0.00000000000E+00 0.  1.
         14    1    4    4    0    0  0.17331897864E+02  0.22805625427E+02 -0.95361326613E+02  0.99570446660E+02  0.00000000000E+00 0. -1.
         -5    1    5    5    0  502 -0.35382177710E+02  0.29574919611E+02 -0.60142828875E+03  0.60321194524E+03  0.47000000000E+01 0.  1.
         13    1    6    6    0    0 -0.30310268978E+02  0.63314488038E+01 -0.14765460295E+03  0.15086643571E+03  0.00000000000E+00 0. -1.
        -14    1    6    6    0    0  0.24938040033E+02 -0.34108660846E+01 -0.12102686111E+02  0.27928746109E+02  0.00000000000E+00 0.  1.
</event>
<event>
12    1  0.8563264E-002  0.2533092E+03  0.7818608E-02  0.1113042E+00
         21   -1    0    0  501  502  0.00000000000E+00  0.00000000000E+00  0.13827475924E+03  0.13827475924E+03  0.00000000000E+00 0.  1.
         21   -1    0    0  502  503 -0.00000000000E+00 -0.00000000000E+00 -0.44453334758E+03  0.44453334758E+03  0.00000000000E+00 0. -1.
         -6    2    1    2    0  503 -0.12421231669E+03 -0.11294280930E+03 -0.17108300066E+03  0.30567129776E+03  0.18968598095E+03 0.  0.
        -24    2    3    3    0    0 -0.63552020720E+02  0.88397409322E+01 -0.12699570886E+03  0.16257538466E+03  0.78650144751E+02 0.  0.
          6    2    1    2  501    0  0.12421231669E+03  0.11294280930E+03 -0.13517558769E+03  0.27713680907E+03  0.17420560738E+03 0.  0.
         24    2    5    5    0    0  0.36841344580E+02  0.11191216198E+03 -0.12457974980E+03  0.18899424964E+03  0.79480158959E+02 0.  0.
          5    1    5    5  501    0  0.87370972108E+02  0.10306473188E+01 -0.10595837888E+02  0.88142559423E+02  0.47000000000E+01 0. -1.
        -11    1    6    6    0    0  0.52170702512E+02  0.61204305707E+02 -0.41594233135E+02  0.90541865829E+02  0.00000000000E+00 0.  1.
         12    1    6    6    0    0 -0.15329357932E+02  0.50707856273E+02 -0.82985516664E+02  0.98452383813E+02  0.00000000000E+00 0. -1.
         -5    1    3    3    0  503 -0.60660295968E+02 -0.12178255023E+03 -0.44087291799E+02  0.14309591310E+03  0.47000000000E+01 0.  1.
         11    1    4    4    0    0 -0.64537288921E+02 -0.83194710489E+01 -0.45782230866E+02  0.79563106544E+02  0.00000000000E+00 0. -1.
        -12    1    4    4    0    0  0.98526820105E+00  0.17159211981E+02 -0.81213477995E+02  0.83012278112E+02  0.00000000000E+00 0.  1.
</event>
<event>
12    1  0.8563264E-002  0.1928253E+03  0.7818608E-02  0.1156265E+00
         21   -1    0    0  501  502  0.00000000000E+00  0.00000000000E+00  0.16069747336E+03  0.16069747336E+03  0.00000000000E+00 0.  1.
         21   -1    0    0  502  503 -0.00000000000E+00 -0.00000000000E+00 -0.22961758708E+03  0.22961758708E+03  0.00000000000E+00 0.  1.
         -6    2    1    2    0  503  0.35438227710E+02  0.79698221826E+02 -0.35383914782E+02  0.19459516585E+03  0.17031612549E+03 0.  0.
        -24    2    3    3    0    0 -0.46316835822E+02  0.19199929634E+02  0.88207981151E+01  0.83599308205E+02  0.66311019254E+02 0.  0.
          6    2    1    2  501    0 -0.35438227710E+02 -0.79698221826E+02 -0.33536198935E+02  0.19571989459E+03  0.17197071249E+03 0.  0.
         24    2    5    5    0    0 -0.30135309607E+01 -0.11499419558E+03 -0.64888765218E+01  0.14048571702E+03  0.80382739325E+02 0.  0.
          5    1    5    5  501    0 -0.32424696750E+02  0.35295973755E+02 -0.27047322413E+02  0.55234177574E+02  0.47000000000E+01 0. -1.
        -11    1    6    6    0    0 -0.41094031357E+02 -0.71997773881E+02 -0.36450620287E+01  0.82980029731E+02  0.00000000000E+00 0.  1.
         12    1    6    6    0    0  0.38080500396E+02 -0.42996421699E+02 -0.28438144931E+01  0.57505687286E+02  0.00000000000E+00 0. -1.
         -5    1    3    3    0  503  0.81755063533E+02  0.60498292192E+02 -0.44204712897E+02  0.11099585764E+03  0.47000000000E+01 0.  1.
         13    1    4    4    0    0 -0.26734326295E+02 -0.73671943874E+01 -0.24278377690E+02  0.36857012614E+02  0.00000000000E+00 0. -1.
        -14    1    4    4    0    0 -0.19582509527E+02  0.26567124021E+02  0.33099175805E+02  0.46742295591E+02  0.00000000000E+00 0.  1.
</event>
<event>
12    1  0.8563264E-002  0.1782099E+03  0.7818608E-02  0.1169636E+00
         21   -1    0    0  501  502  0.00000000000E+00  0.00000000000E+00  0.40003208056E+03  0.40003208056E+03  0.00000000000E+00 0. -1.
         21   -1    0    0  502  503 -0.00000000000E+00 -0.00000000000E+00 -0.79282612405E+02  0.79282612405E+02  0.00000000000E+00 0.  1.
         -6    2    1    2    0  503 -0.14208525601E+02 -0.47184457701E+02  0.15391876526E+03  0.23520148311E+03  0.17088152654E+03 0.  0.
        -24    2    3    3    0    0 -0.17725293695E+02  0.31883817261E+02  0.12107272552E+03  0.14938125188E+03  0.79532318636E+02 0.  0.
          6    2    1    2  501    0  0.14208525601E+02  0.47184457701E+02  0.16683070290E+03  0.24411320985E+03  0.17126155595E+03 0.  0.
         24    2    5    5    0    0 -0.38232851336E+02 -0.20834871365E+02  0.99395219721E+02  0.13481379754E+03  0.79996921918E+02 0.  0.
          5    1    5    5  501    0  0.52441376937E+02  0.68019329065E+02  0.67435483176E+02  0.10929941232E+03  0.47000000000E+01 0. -1.
        -13    1    6    6    0    0 -0.43008577338E+02 -0.47394421154E+02  0.67083023366E+02  0.92715160061E+02  0.00000000000E+00 0.  1.
         14    1    6    6    0    0  0.47757260023E+01  0.26559549790E+02  0.32312196355E+02  0.42098637474E+02  0.00000000000E+00 0. -1.
         -5    1    3    3    0  503  0.35167680942E+01 -0.79068274961E+02  0.32846039739E+02  0.85820231238E+02  0.47000000000E+01 0.  1.
         13    1    4    4    0    0 -0.19819617844E+02 -0.24214702187E+02  0.40492930238E+02  0.51174666122E+02  0.00000000000E+00 0. -1.
        -14    1    4    4    0    0  0.20943241484E+01  0.56098519447E+02  0.80579795281E+02  0.98206585753E+02  0.00000000000E+00 0.  1.
</event>
<event>
12    1  0.8563264E-002  0.2260936E+03  0.7818608E-02  0.1129430E+00
         21   -1    0    0  501  502  0.00000000000E+00  0.00000000000E+00  0.31225968453E+03  0.31225968453E+03  0.00000000000E+00 0. -1.
         21   -1    0    0  502  503 -0.00000000000E+00 -0.00000000000E+00 -0.17646268181E+03  0.17646268181E+03  0.00000000000E+00 0. -1.
         -6    2    1    2    0  503  0.13987839583E+03 -0.42129241925E+02  0.20939585674E+01  0.22610327625E+03  0.17256149113E+03 0.  0.
        -24    2    3    3    0    0  0.10701735750E+03  0.27404527111E+02  0.37048545079E+02  0.14149413966E+03  0.80276235293E+02 0.  0.
          6    2    1    2  501    0 -0.13987839583E+03  0.42129241925E+02  0.13370304415E+03  0.26261909009E+03  0.17248606848E+03 0.  0.
         24    2    5    5    0    0 -0.11667964343E+03  0.92331891287E+02  0.11383304818E+03  0.20366661045E+03  0.79892477844E+02 0.  0.
          5    1    5    5  501    0 -0.23198752406E+02 -0.50202649362E+02  0.19869995974E+02  0.58952479644E+02  0.47000000000E+01 0. -1.
        -11    1    6    6    0    0 -0.79760368692E+02  0.93548192418E+02  0.56106619054E+02  0.13513302121E+03  0.00000000000E+00 0.  1.
         12    1    6    6    0    0 -0.36919274734E+02 -0.12163011306E+01  0.57726429124E+02  0.68533589245E+02  0.00000000000E+00 0. -1.
         -5    1    3    3    0  503  0.32861038335E+02 -0.69533769037E+02 -0.34954586512E+02  0.84609136593E+02  0.47000000000E+01 0.  1.
         11    1    4    4    0    0  0.73990898995E+02 -0.15971628661E+02  0.20780589432E+00  0.75695371322E+02  0.00000000000E+00 0. -1.
        -12    1    4    4    0    0  0.33026458502E+02  0.43376155772E+02  0.36840739185E+02  0.65798768335E+02  0.00000000000E+00 0.  1.
</event>
<event>
12    1  0.8563264E-002  0.2077036E+03  0.7818608E-02  0.1145803E+00
         21   -1    0    0  501  502  0.00000000000E+00  0.00000000000E+00  0.26636986610E+03  0.26636986610E+03  0.00000000000E+00 0. -1.
         21   -1    0    0  502  503 -0.00000000000E+00 -0.00000000000E+00 -0.15526291249E+03  0.15526291249E+03  0.00000000000E+00 0.  1.
         -6    2    1    2    0  503  0.85931610499E+02  0.28784323616E+02  0.79271676829E+02  0.21150362664E+03  0.17388791323E+03 0.  0.
        -24    2    3    3    0    0  0.92870773488E+02  0.62524858847E+02  0.13580789069E+02  0.13718028956E+03  0.78100291095E+02 0.  0.
          6    2    1    2  501    0 -0.85931610499E+02 -0.28784323616E+02  0.31835276777E+02  0.21012915194E+03  0.18689033330E+03 0.  0.
         24    2    5    5    0    0 -0.50677160572E+02 -0.93730804135E+02  0.25732831666E+02  0.13583075756E+03  0.80213326986E+02 0.  0.
          5    1    5    5  501    0 -0.35254449927E+02  0.64946480519E+02  0.61024451111E+01  0.74298394382E+02  0.47000000000E+01 0. -1.
        -11    1    6    6    0    0 -0.16757288850E+02  0.12150683706E+02 -0.32023741776E+01  0.20945191441E+02  0.00000000000E+00 0.  1.
         12    1    6    6    0    0 -0.33919871722E+02 -0.10588148784E+03  0.28935205844E+02  0.11488556612E+03  0.00000000000E+00 0. -1.
         -5    1    3    3    0  503 -0.69391629891E+01 -0.33740535232E+02  0.65690887760E+02  0.74323337085E+02  0.47000000000E+01 0.  1.
         11    1    4    4    0    0 -0.59020304617E+01  0.29368381525E+01  0.20582931420E+02  0.21612867643E+02  0.00000000000E+00 0. -1.
        -12    1    4    4    0    0  0.98772803950E+02  0.59588020695E+02 -0.70021423510E+01  0.11556742191E+03  0.00000000000E+00 0.  1.
</event>
<event>
12    1  0.8563264E-002  0.1955851E+03  0.7818608E-02  0.1153936E+00
         21   -1    0    0  501  502  0.00000000000E+00  0.00000000000E+00  0.53539222975E+03  0.53539222975E+03  0.00000000000E+00 0.  1.
         21   -1    0    0  502  503 -0.00000000000E+00 -0.00000000000E+00 -0.70795023675E+02  0.70795023675E+02  0.00000000000E+00 0. -1.
         -6    2    1    2    0  503  0.90928791546E+02 -0.10434639822E+02  0.22370048860E+03  0.29588941431E+03  0.17068013962E+03 0.  0.
        -24    2    3    3    0    0  0.85016369161E+02 -0.67031714758E+02  0.13989109534E+03  0.19447792567E+03  0.80815290691E+02 0.  0.
          6    2    1    2  501    0 -0.90928791546E+02  0.10434639822E+02  0.24089671748E+03  0.31029783912E+03  0.17284847013E+03 0.  0.
         24    2    5    5    0    0 -0.94812960542E+02  0.67742653051E+01  0.75252356500E+02  0.14450088669E+03  0.78626973345E+02 0.  0.
          5    1    5    5  501    0  0.38841689963E+01  0.36603745170E+01  0.16564436098E+03  0.16579695243E+03  0.47000000000E+01 0. -1.
        -11    1    6    6    0    0 -0.67540100677E+01  0.26440285065E+02  0.38234353657E+02  0.46974153807E+02  0.00000000000E+00 0.  1.
         12    1    6    6    0    0 -0.88058950474E+02 -0.19666019760E+02  0.37018002843E+02  0.97526732880E+02  0.00000000000E+00 0. -1.
         -5    1    3    3    0  503  0.59124223851E+01  0.56597074936E+02  0.83809393251E+02  0.10141148863E+03  0.47000000000E+01 0.  1.
         13    1    4    4    0    0  0.98874030824E+02 -0.69662242836E+02  0.12370141609E+03  0.17300561376E+03  0.00000000000E+00 0. -1.
        -14    1    4    4    0    0 -0.13857661664E+02  0.26305280785E+01  0.16189679254E+02  0.21472311918E+02  0.00000000000E+00 0.  1.
</event>
<event>
12    1  0.8563264E-002  0.2602642E+03  0.7818608E-02  0.1107024E+00
         21   -1    0    0  503  502  0.00000000000E+00  0.00000000000E+00  0.55427381739E+03  0.55427381739E+03  0.00000000000E+00 0.  1.
         21   -1    0    0  501  503 -0.00000000000E+00 -0.00000000000E+00 -0.12208779296E+03  0.12208779296E+03  0.00000000000E+00 0.  1.
          6    2    1    2  501    0 -0.16581509057E+03 -0.10150432867E+03  0.21647367536E+03  0.33852369032E+03  0.17303081743E+03 0.  0.
         24    2    3    3    0    0 -0.87055896443E+02  0.14117286384E+02  0.12359138752E+03  0.17053387538E+03  0.77646279385E+02 0.  0.
         -6    2    1    2    0  502  0.16581509057E+03  0.10150432867E+03  0.21571234907E+03  0.33783792003E+03  0.17264086905E+03 0.  0.
        -24    2    5    5    0    0  0.17337379084E+03  0.36643052499E+02  0.16465230985E+03  0.25481179943E+03  0.80109208854E+02 0.  0.
          5    1    3    3  501    0 -0.78759194131E+02 -0.11562161506E+03  0.92882287833E+02  0.16798981493E+03  0.47000000000E+01 0. -1.
        -11    1    4    4    0    0 -0.84036184196E+02 -0.69345902494E+01  0.12316264376E+03  0.14926220424E+03  0.00000000000E+00 0.  1.
         12    1    4    4    0    0 -0.30197122464E+01  0.21051876634E+02  0.42874375930E+00  0.21271671139E+02  0.00000000000E+00 0. -1.
         -5    1    5    5    0  502 -0.75587002644E+01  0.64861276175E+02  0.51060039224E+02  0.83026120602E+02  0.47000000000E+01 0.  1.
         11    1    6    6    0    0  0.38443781388E+02 -0.25275860743E+02  0.38389785160E+02  0.59921357363E+02  0.00000000000E+00 0. -1.
        -12    1    6    6    0    0  0.13493000945E+03  0.61918913241E+02  0.12626252469E+03  0.19489044206E+03  0.00000000000E+00 0.  1.
</event>
<event>
12    1  0.8563264E-002  0.1736551E+03  0.7818608E-02  0.1174090E+00
         21   -1    0    0  503  502  0.00000000000E+00  0.00000000000E+00  0.51550706431E+03  0.51550706431E+03  0.00000000000E+00 0.  1.
         21   -1    0    0  501  503 -0.00000000000E+00 -0.00000000000E+00 -0.61349195387E+02  0.61349195387E+02  0.00000000000E+00 0.  1.
          6    2    1    2  501    0 -0.29961595865E+02  0.22982581666E+01  0.16487813813E+03  0.23945612086E+03  0.17103056501E+03 0.  0.
         24    2    3    3    0    0  0.26039945749E+02  0.50678328287E+02  0.69112063820E+02  0.11833620162E+03  0.77334387670E+02 0.  0.
         -6    2    1    2    0  502  0.29961595865E+02 -0.22982581666E+01  0.28927973079E+03  0.33740013883E+03  0.17103541101E+03 0.  0.
        -24    2    5    5    0    0 -0.79072664339E+01  0.58989329760E+02  0.18053435817E+03  0.20687096496E+03  0.81612963280E+02 0.  0.
          5    1    3    3  501    0 -0.56001541614E+02 -0.48380070120E+02  0.95766074310E+02  0.12111991924E+03  0.47000000000E+01 0. -1.
        -13    1    4    4    0    0  0.17533773789E+02 -0.93843645753E+01  0.51443080272E+02  0.55153331991E+02  0.00000000000E+00 0.  1.
         14    1    4    4    0    0  0.85061719599E+01  0.60062692862E+02  0.17668983548E+02  0.63182869631E+02  0.00000000000E+00 0. -1.
         -5    1    5    5    0  502  0.37868862299E+02 -0.61287587926E+02  0.10874537262E+03  0.13052917387E+03  0.47000000000E+01 0.  1.
         13    1    6    6    0    0  0.24489583135E+02  0.34966068166E+02  0.33096490585E+02  0.54016139201E+02  0.00000000000E+00 0. -1.
        -14    1    6    6    0    0 -0.32396849569E+02  0.24023261593E+02  0.14743786759E+03  0.15285482576E+03  0.00000000000E+00 0.  1.
</event>
<event>
12    1  0.8563264E-002  0.2219072E+03  0.7818608E-02  0.1132639E+00
         21   -1    0    0  503  502  0.00000000000E+00  0.00000000000E+00  0.65803894686E+02  0.65803894686E+02  0.00000000000E+00 0.  1.
         21   -1    0    0  501  503 -0.00000000000E+00 -0.00000000000E+00 -0.25499546713E+04  0.25499546713E+04  0.00000000000E+00 0.  1.
          6    2    1    2  501    0  0.64998554643E+02 -0.12112221250E+03 -0.23431178899E+04  0.23536023967E+04  0.17420503175E+03 0.  0.
         24    2    3    3    0    0 -0.73969070567E+00 -0.12815046882E+03 -0.18258902394E+04  0.18321453555E+04  0.80363845539E+02 0.  0.
         -6    2    1    2    0  502 -0.64998554643E+02  0.12112221250E+03 -0.14103288665E+03  0.26215616927E+03  0.17303230768E+03 0.  0.
        -24    2    5    5    0    0  0.16902878013E+02  0.83250935773E+02 -0.32959512332E+02  0.12128735615E+03  0.80049158130E+02 0.  0.
          5    1    3    3  501    0  0.65738245348E+02  0.70282563203E+01 -0.51722765057E+03  0.52145704118E+03  0.47000000000E+01 0. -1.
        -13    1    4    4    0    0  0.39537024508E+02 -0.72344019177E+02 -0.99295894574E+03  0.99637558247E+03  0.00000000000E+00 0.  1.
         14    1    4    4    0    0 -0.40276715214E+02 -0.55806449645E+02 -0.83293129362E+03  0.83576977303E+03  0.00000000000E+00 0. -1.
         -5    1    5    5    0  502 -0.81901432656E+02  0.37871276728E+02 -0.10807337431E+03  0.14086881311E+03  0.47000000000E+01 0.  1.
         11    1    6    6    0    0 -0.67699569211E+01  0.72207568680E+01 -0.40132044734E+02  0.41334642383E+02  0.00000000000E+00 0. -1.
        -12    1    6    6    0    0  0.23672834935E+02  0.76030178905E+02  0.71725324016E+01  0.79952713770E+02  0.00000000000E+00 0.  1.
</event>
<event>
12    1  0.8563264E-002  0.1809339E+03  0.7818608E-02  0.1166980E+00
         21   -1    0    0  501  502  0.00000000000E+00  0.00000000000E+00  0.15519434491E+03  0.15519434491E+03  0.00000000000E+00 0. -1.
         21   -1    0    0  502  503 -0.00000000000E+00 -0.00000000000E+00 -0.21075970576E+03  0.21075970576E+03  0.00000000000E+00 0. -1.
         -6    2    1    2    0  503 -0.23506372696E+02  0.52689351262E+02 -0.22200082556E+02  0.18196945077E+03  0.17114707141E+03 0.  0.
        -24    2    3    3    0    0 -0.23659922776E+02  0.16212153234E+02  0.52655779609E+02  0.98566215495E+02  0.78230696357E+02 0.  0.
          6    2    1    2  501    0  0.23506372696E+02 -0.52689351262E+02 -0.33365278295E+02  0.18398459990E+03  0.17148869907E+03 0.  0.
         24    2    5    5    0    0  0.47892851658E+02 -0.72332806804E+00  0.31053834119E+02  0.97572332441E+02  0.79131352832E+02 0.  0.
          5    1    5    5  501    0 -0.24386478962E+02 -0.51966023194E+02 -0.64419112414E+02  0.86412267456E+02  0.47000000000E+01 0. -1.
        -11    1    6    6    0    0  0.69481631118E+02  0.62360840829E+01  0.21976191348E+02  0.73140541382E+02  0.00000000000E+00 0.  1.
         12    1    6    6    0    0 -0.21588779460E+02 -0.69594121509E+01  0.90776427711E+01  0.24431791059E+02  0.00000000000E+00 0. -1.
         -5    1    3    3    0  503  0.15355007994E+00  0.36477198028E+02 -0.74855862165E+02  0.83403235274E+02  0.47000000000E+01 0.  1.
         13    1    4    4    0    0 -0.92881574269E+01  0.43414571348E+02  0.92293728479E+01  0.45346181723E+02  0.00000000000E+00 0. -1.
        -14    1    4    4    0    0 -0.14371765349E+02 -0.27202418114E+02  0.43426406761E+02  0.53220033772E+02  0.00000000000E+00 0.  1.
</event>
<event>
12    1  0.8563264E-002  0.1990367E+03  0.7818608E-02  0.1151028E+00
         21   -1    0    0  501  502  0.00000000000E+00  0.00000000000E+00  0.28935802233E+03  0.28935802233E+03  0.00000000000E+00 0. -1.
         21   -1    0    0  502  503 -0.00000000000E+00 -0.00000000000E+00 -0.21278349603E+03  0.21278349603E+03  0.00000000000E+00 0.  1.
         -6    2    1    2    0  503  0.81034590313E+02 -0.49971348563E+02 -0.11299771533E+03  0.22887575432E+03  0.17479098015E+03 0.  0.
        -24    2    3    3    0    0  0.42512545952E+02 -0.59437276620E+02  0.88293963288E+00  0.10819251078E+03  0.79779279213E+02 0.  0.
          6    2    1    2  501    0 -0.81034590313E+02  0.49971348563E+02  0.18957224163E+03  0.27326576404E+03  0.17225795336E+03 0.  0.
         24    2    5    5    0    0 -0.97993161719E+02  0.33899462172E+01  0.18492477874E+03  0.22325467427E+03  0.77661601276E+02 0.  0.
          5    1    5    5  501    0  0.16958571406E+02  0.46581402345E+02  0.46474628916E+01  0.50011089769E+02  0.47000000000E+01 0. -1.
        -13    1    6    6    0    0 -0.54055535286E+01 -0.25089029091E+02  0.22468066384E+02  0.34110019008E+02  0.00000000000E+00 0.  1.
         14    1    6    6    0    0 -0.92587608190E+02  0.28478975309E+02  0.16245671236E+03  0.18914465526E+03  0.00000000000E+00 0. -1.
         -5    1    3    3    0  503  0.38522044361E+02  0.94659280571E+01 -0.11388065496E+03  0.12068324353E+03  0.47000000000E+01 0.  1.
         13    1    4    4    0    0  0.16042043094E+02 -0.59801942252E+02 -0.28913598430E+02  0.68334585810E+02  0.00000000000E+00 0. -1.
        -14    1    4    4    0    0  0.26470502858E+02  0.36466563226E+00  0.29796538063E+02  0.39857924972E+02  0.00000000000E+00 0.  1.
</event>
<event>
12    1  0.8563264E-002  0.3151103E+03  0.7818608E-02  0.1077973E+00
         21   -1    0    0  501  502  0.00000000000E+00  0.00000000000E+00  0.70604517662E+03  0.70604517662E+03  0.00000000000E+00 0.  1.
         21   -1    0    0  502  503 -0.00000000000E+00 -0.00000000000E+00 -0.19236036043E+03  0.19236036043E+03  0.00000000000E+00 0. -1.
         -6    2    1    2    0  503  0.54438094085E+02  0.25760975374E+03  0.23342700908E+02  0.31554199754E+03  0.17232405293E+03 0.  0.
        -24    2    3    3    0    0  0.45723961820E+02  0.14817077741E+03 -0.52772860227E+02  0.18186891016E+03  0.79032055177E+02 0.  0.
          6    2    1    2  501    0 -0.54438094085E+02 -0.25760975374E+03  0.49034211528E+03  0.58286353950E+03  0.17311332807E+03 0.  0.
         24    2    5    5    0    0 -0.97787748318E+02 -0.21919208184E+03  0.35453673485E+03  0.43514657572E+03  0.77772961479E+02 0.  0.
          5    1    5    5  501    0  0.43349654233E+02 -0.38417671899E+02  0.13580538043E+03  0.14771696379E+03  0.47000000000E+01 0. -1.
        -13    1    6    6    0    0 -0.76501395245E+02 -0.95768232713E+02  0.21625551415E+03  0.24857688000E+03  0.00000000000E+00 0.  1.
         14    1    6    6    0    0 -0.21286353073E+02 -0.12342384913E+03  0.13828122070E+03  0.18656969572E+03  0.00000000000E+00 0. -1.
         -5    1    3    3    0  503  0.87141322643E+01  0.10943897633E+03  0.76115561136E+02  0.13367308738E+03  0.47000000000E+01 0.  1.
         11    1    4    4    0    0  0.55005189680E+02  0.14971580082E+03 -0.37370178236E+02  0.16381978552E+03  0.00000000000E+00 0. -1.
        -12    1    4    4    0    0 -0.92812278592E+01 -0.15450234104E+01 -0.15402681991E+02  0.18049124644E+02  0.00000000000E+00 0.  1.
</event>
<event>
12    1  0.8563264E-002  0.2144437E+03  0.7818608E-02  0.1138334E+00
         21   -1    0    0  501  502  0.00000000000E+00  0.00000000000E+00  0.15472491956E+04  0.15472491956E+04  0.00000000000E+00 0. -1.
         21   -1    0    0  502  503 -0.00000000000E+00 -0.00000000000E+00 -0.29887823365E+02  0.29887823365E+02  0.00000000000E+00 0.  1.
         -6    2    1    2    0  503 -0.39596976765E+02  0.12310632486E+03  0.67262595041E+03  0.70560731210E+03  0.16950788165E+03 0.  0.
        -24    2    3    3    0    0 -0.32827381635E+02  0.13184278788E+03  0.67529593631E+03  0.69330397804E+03  0.78648882131E+02 0.  0.
          6    2    1    2  501    0  0.39596976765E+02 -0.12310632486E+03  0.84473542187E+03  0.87152970691E+03  0.17106434247E+03 0.  0.
         24    2    5    5    0    0  0.50953857971E+02 -0.15783773528E+03  0.74969307727E+03  0.76959645970E+03  0.52248965028E+02 0.  0.
          5    1    5    5  501    0 -0.11356881206E+02  0.34731410414E+02  0.95042344597E+02  0.10193324721E+03  0.47000000000E+01 0. -1.
        -13    1    6    6    0    0  0.25808370264E+02 -0.92721068782E+02  0.31633248279E+03  0.33065012965E+03  0.00000000000E+00 0.  1.
         14    1    6    6    0    0  0.25145487707E+02 -0.65116666495E+02  0.43336059448E+03  0.43894633004E+03  0.00000000000E+00 0. -1.
         -5    1    3    3    0  503 -0.67695951295E+01 -0.87364630197E+01 -0.26699859073E+01  0.12303334063E+02  0.47000000000E+01 0.  1.
         11    1    4    4    0    0  0.77377144012E+01  0.10949082627E+03  0.50741532233E+03  0.51915163738E+03  0.00000000000E+00 0. -1.
        -12    1    4    4    0    0 -0.40565096037E+02  0.22351961610E+02  0.16788061399E+03  0.17415234066E+03  0.00000000000E+00 0.  1.
</event>
<event>
12    1  0.8563264E-002  0.2159508E+03  0.7818608E-02  0.1138169E+00
         21   -1    0    0  503  502  0.00000000000E+00  0.00000000000E+00  0.41575963831E+02  0.41575963831E+02  0.00000000000E+00 0.  1.
         21   -1    0    0  501  503 -0.00000000000E+00 -0.00000000000E+00 -0.16740588215E+04  0.16740588215E+04  0.00000000000E+00 0.  1.
          6    2    1    2  501    0  0.68629113863E+02 -0.99110810353E+02 -0.13312482223E+04  0.13486499099E+04  0.17916986949E+03 0.  0.
         24    2    3    3    0    0 -0.31956823343E+02 -0.63301382989E+02 -0.73988611585E+03  0.74770808511E+03  0.81287222030E+02 0.  0.
         -6    2    1    2    0  502 -0.68629113863E+02  0.99110810353E+02 -0.30123463538E+03  0.36698487542E+03  0.17147211214E+03 0.  0.
        -24    2    5    5    0    0 -0.15289324516E+02 -0.17107485300E+02 -0.96068582428E+02  0.12518532072E+03  0.76913994157E+02 0.  0.
          5    1    3    3  501    0  0.10058593721E+03 -0.35809427364E+02 -0.59136210645E+03  0.60094182480E+03  0.47000000000E+01 0. -1.
        -13    1    4    4    0    0 -0.20671146691E+02 -0.58256466875E+02 -0.72779731349E+03  0.73041771731E+03  0.00000000000E+00 0.  1.
         14    1    4    4    0    0 -0.11285676653E+02 -0.50449161142E+01 -0.12088802356E+02  0.17290367796E+02  0.00000000000E+00 0. -1.
         -5    1    5    5    0  502 -0.53339789347E+02  0.11621829565E+03 -0.20516605295E+03  0.24179955470E+03  0.47000000000E+01 0.  1.
         11    1    6    6    0    0  0.16521404355E+02 -0.53966432458E+01  0.54034380303E+01  0.18201035760E+02  0.00000000000E+00 0. -1.
        -12    1    6    6    0    0 -0.31810728871E+02 -0.11710842054E+02 -0.10147202046E+03  0.10698428496E+03  0.00000000000E+00 0.  1.
</event>
<event>
12    1  0.8563264E-002  0.1826803E+03  0.7818608E-02  0.1165786E+00
         21   -1    0    0  503  502  0.00000000000E+00  0.00000000000E+00  0.22691421068E+02  0.22691421068E+02  0.00000000000E+00 0. -1.
         21   -1    0    0  501  503 -0.00000000000E+00 -0.00000000000E+00 -0.16217553613E+04  0.16217553613E+04  0.00000000000E+00 0. -1.
          6    2    1    2  501    0 -0.53700526616E+02  0.29458151797E+02 -0.10608675082E+04  0.10760917165E+04  0.16965253636E+03 0.  0.
         24    2    3    3    0    0 -0.10707715256E+02  0.43769373294E+02 -0.97117231569E+03  0.97549096875E+03  0.79853303875E+02 0.  0.
         -6    2    1    2    0  502  0.53700526616E+02 -0.29458151797E+02 -0.53819643202E+03  0.56835506586E+03  0.17210622355E+03 0.  0.
        -24    2    5    5    0    0  0.60710812895E+02  0.23357371044E+01 -0.51513699845E+03  0.52818265043E+03  0.99596820069E+02 0.  0.
          5    1    3    3  501    0 -0.42992811360E+02 -0.14311221497E+02 -0.89695192559E+02  0.10060074780E+03  0.47000000000E+01 0. -1.
        -13    1    4    4    0    0  0.25645886266E+02 -0.77658940066E+01 -0.20835533179E+03  0.21007133283E+03  0.00000000000E+00 0.  1.
         14    1    4    4    0    0 -0.36353601523E+02  0.51535267300E+02 -0.76281698390E+03  0.76541963592E+03  0.00000000000E+00 0. -1.
         -5    1    5    5    0  502 -0.70102862791E+01 -0.31793888902E+02 -0.23059433567E+02  0.40172415432E+02  0.47000000000E+01 0.  1.
         11    1    6    6    0    0  0.87133837842E+02  0.13122437185E+02 -0.38628593908E+03  0.39620869600E+03  0.00000000000E+00 0. -1.
        -12    1    6    6    0    0 -0.26423024947E+02 -0.10786700080E+02 -0.12885105937E+03  0.13197395443E+03  0.00000000000E+00 0.  1.
</event>
<event>
12    1  0.8563264E-002  0.1957605E+03  0.7818608E-02  0.1153452E+00
         21   -1    0    0  503  502  0.00000000000E+00  0.00000000000E+00  0.57464474925E+03  0.57464474925E+03  0.00000000000E+00 0.  1.
         21   -1    0    0  501  503 -0.00000000000E+00 -0.00000000000E+00 -0.15257056652E+03  0.15257056652E+03  0.00000000000E+00 0.  1.
          6    2    1    2  501    0 -0.83402296365E+02  0.44007257756E+02 -0.61886031888E+02  0.20530963231E+03  0.17155052434E+03 0.  0.
         24    2    3    3    0    0 -0.81945692328E+02 -0.32277692128E+02 -0.44494797020E+02  0.12691281908E+03  0.79813099078E+02 0.  0.
         -6    2    1    2    0  502  0.83402296365E+02 -0.44007257756E+02  0.48396021462E+03  0.52190568346E+03  0.17110076363E+03 0.  0.
        -24    2    5    5    0    0  0.67683742328E+02  0.48520115625E+02  0.29432383720E+03  0.31026345373E+03  0.51976908109E+02 0.  0.
          5    1    3    3  501    0 -0.14566040373E+01  0.76284949884E+02 -0.17391234868E+02  0.78396813228E+02  0.47000000000E+01 0. -1.
        -13    1    4    4    0    0  0.12816437777E+02  0.56641407842E+01  0.29981234019E+01  0.14329421204E+02  0.00000000000E+00 0.  1.
         14    1    4    4    0    0 -0.94762130105E+02 -0.37941832913E+02 -0.47492920422E+02  0.11258339787E+03  0.00000000000E+00 0. -1.
         -5    1    5    5    0  502  0.15718554037E+02 -0.92527373380E+02  0.18963637742E+03  0.21164222973E+03  0.47000000000E+01 0.  1.
         13    1    6    6    0    0  0.54346092947E+02  0.74796424432E+01  0.15600380076E+03  0.16536816115E+03  0.00000000000E+00 0. -1.
        -14    1    6    6    0    0  0.13337649381E+02  0.41040473181E+02  0.13832003644E+03  0.14489529258E+03  0.00000000000E+00 0.  1.
</event>
<event>
12    1  0.8563264E-002  0.1804159E+03  0.7818608E-02  0.1167555E+00
         21   -1    0    0  501  502  0.00000000000E+00  0.00000000000E+00  0.59304201867E+02  0.59304201867E+02  0.00000000000E+00 0.  1.
         21   -1    0    0  502  503 -0.00000000000E+00 -0.00000000000E+00 -0.54976754454E+03  0.54976754454E+03  0.00000000000E+00 0.  1.
         -6    2    1    2    0  503 -0.17727138118E+02  0.50336166849E+02 -0.26667342329E+03  0.32161425365E+03  0.17167711653E+03 0.  0.
        -24    2    3    3    0    0 -0.55330997116E+02 -0.42002415336E+01 -0.22166482450E+03  0.24138873392E+03  0.77807873446E+02 0.  0.
          6    2    1    2  501    0  0.17727138118E+02 -0.50336166849E+02 -0.22378991938E+03  0.28745749276E+03  0.17234239469E+03 0.  0.
         24    2    5    5    0    0  0.37461510587E+02 -0.34122358443E+02 -0.23930074761E+03  0.25720837985E+03  0.79521083597E+02 0.  0.
          5    1    5    5  501    0 -0.19734372469E+02 -0.16213808406E+02  0.15510828227E+02  0.30249112914E+02  0.47000000000E+01 0. -1.
        -11    1    6    6    0    0 -0.10577413357E+01 -0.47292868354E+02 -0.81426347787E+02  0.94169975724E+02  0.00000000000E+00 0.  1.
         12    1    6    6    0    0  0.38519251922E+02  0.13170509911E+02 -0.15787439982E+03  0.16303840412E+03  0.00000000000E+00 0. -1.
         -5    1    3    3    0  503  0.37603858998E+02  0.54536408382E+02 -0.45008598789E+02  0.80225519729E+02  0.47000000000E+01 0.  1.
         11    1    4    4    0    0 -0.81081525982E+00  0.13232999218E+01  0.65271350165E+01  0.67091009526E+01  0.00000000000E+00 0. -1.
        -12    1    4    4    0    0 -0.54520181856E+02 -0.55235414554E+01 -0.22819195952E+03  0.23467963297E+03  0.00000000000E+00 0.  1.
</event>
<event>
12    1  0.8563264E-002  0.1818440E+03  0.7818608E-02  0.1166084E+00
         21   -1    0    0  503  502  0.00000000000E+00  0.00000000000E+00  0.55227980219E+02  0.55227980219E+02  0.00000000000E+00 0. -1.
         21   -1    0    0  501  503 -0.00000000000E+00 -0.00000000000E+00 -0.66585965055E+03  0.66585965055E+03  0.00000000000E+00 0. -1.
          6    2    1    2  501    0  0.60181716089E+02 -0.77905712284E+01 -0.42058256391E+03  0.45821057086E+03  0.17141966699E+03 0.  0.
         24    2    3    3    0    0 -0.69283408475E+01 -0.11545176318E+02 -0.35506123504E+03  0.36422657574E+03  0.80070124563E+02 0.  0.
         -6    2    1    2    0  502 -0.60181716089E+02  0.77905712284E+01 -0.19004910641E+03  0.26287705990E+03  0.17118163985E+03 0.  0.
        -24    2    5    5    0    0 -0.35727784223E+02  0.72059814261E+02 -0.10929674755E+03  0.15670943844E+03  0.78377150217E+02 0.  0.
          5    1    3    3  501    0  0.67110056936E+02  0.37546050895E+01 -0.65521328878E+02  0.93983995123E+02  0.47000000000E+01 0. -1.
        -11    1    4    4    0    0 -0.26409746352E+02  0.96872689687E+01 -0.46671757619E+02  0.54493768833E+02  0.00000000000E+00 0.  1.
         12    1    4    4    0    0  0.19481405504E+02 -0.21232445287E+02 -0.30838947742E+03  0.30973280691E+03  0.00000000000E+00 0. -1.
         -5    1    5    5    0  502 -0.24453931866E+02 -0.64269243032E+02 -0.80752358868E+02  0.10616762146E+03  0.47000000000E+01 0.  1.
         13    1    6    6    0    0 -0.45130090723E+02  0.76953190020E+01 -0.32928989647E+02  0.56393806241E+02  0.00000000000E+00 0. -1.
        -14    1    6    6    0    0  0.94023064999E+01  0.64364495259E+02 -0.76367757900E+02  0.10031563220E+03  0.00000000000E+00 0.  1.
</event>
<event>
12    1  0.8563264E-002  0.2352315E+03  0.7818608E-02  0.1123095E+00
         21   -1    0    0  501  502  0.00000000000E+00  0.00000000000E+00  0.26590629241E+03  0.26590629241E+03  0.00000000000E+00 0. -1.
         21   -1    0    0  502  503 -0.00000000000E+00 -0.00000000000E+00 -0.75135214921E+03  0.75135214921E+03  0.00000000000E+00 0.  1.
         -6    2    1    2    0  503  0.13564312765E+03  0.84674311707E+02 -0.67546165231E+03  0.71524982145E+03  0.17252555230E+03 0.  0.
        -24    2    3    3    0    0  0.15584541416E+03  0.10510317560E+03 -0.55343238555E+03  0.58979583464E+03  0.78976265716E+02 0.  0.
          6    2    1    2  501    0 -0.13564312765E+03 -0.84674311707E+02  0.19001579551E+03  0.30200862018E+03  0.17185577377E+03 0.  0.
         24    2    5    5    0    0 -0.23562559380E+01 -0.11581214989E+02  0.47736960697E+02  0.93745930786E+02  0.79811062138E+02 0.  0.
          5    1    5    5  501    0 -0.13328687171E+03 -0.73093096717E+02  0.14227883481E+03  0.20826268939E+03  0.47000000000E+01 0. -1.
        -13    1    6    6    0    0 -0.10659923205E+02  0.25803836868E+02  0.47907901009E+02  0.55449426858E+02  0.00000000000E+00 0.  1.
         14    1    6    6    0    0  0.83036672670E+01 -0.37385051857E+02 -0.17094031137E+00  0.38296503927E+02  0.00000000000E+00 0. -1.
         -5    1    3    3    0  503 -0.20202286508E+02 -0.20428863891E+02 -0.12202926676E+03  0.12545398680E+03  0.47000000000E+01 0.  1.
         11    1    4    4    0    0  0.14652914440E+03  0.71475139643E+02 -0.50061071358E+03  0.52648890995E+03  0.00000000000E+00 0. -1.
        -12    1    4    4    0    0  0.93162697627E+01  0.33628035954E+02 -0.52821671972E+02  0.63306924695E+02  0.00000000000E+00 0.  1.
</event>
<event>
12    1  0.8563264E-002  0.2396222E+03  0.7818608E-02  0.1120323E+00
         21   -1    0    0  503  502  0.00000000000E+00  0.00000000000E+00  0.31528165725E+03  0.31528165725E+03  0.00000000000E+00 0. -1.
         21   -1    0    0  501  503 -0.00000000000E+00 -0.00000000000E+00 -0.18264799777E+03  0.18264799777E+03  0.00000000000E+00 0. -1.
          6    2    1    2  501    0  0.14181633184E+03 -0.87466136985E+02  0.41890612464E+02  0.24325632478E+03  0.17221097247E+03 0.  0.
         24    2    3    3    0    0  0.97586079458E+01 -0.60684881395E+02 -0.19558345018E+01  0.10147805070E+03  0.80722265984E+02 0.  0.
         -6    2    1    2    0  502 -0.14181633184E+03  0.87466136985E+02  0.90743047018E+02  0.25467333025E+03  0.16988822050E+03 0.  0.
        -24    2    5    5    0    0 -0.55609451229E+02  0.10746527669E+03  0.80283135518E+02  0.16543717389E+03  0.79264619453E+02 0.  0.
          5    1    3    3  501    0  0.13205772389E+03 -0.26781255590E+02  0.43846446966E+02  0.14177827408E+03  0.47000000000E+01 0. -1.
        -11    1    4    4    0    0 -0.12837140836E+02  0.13678384836E+02  0.12340201016E+02  0.22453751528E+02  0.00000000000E+00 0.  1.
         12    1    4    4    0    0  0.22595748782E+02 -0.74363266231E+02 -0.14296035518E+02  0.79024299168E+02  0.00000000000E+00 0. -1.
         -5    1    5    5    0  502 -0.86206880608E+02 -0.19999139702E+02  0.10459911499E+02  0.89236156358E+02  0.47000000000E+01 0.  1.
         11    1    6    6    0    0 -0.39096171107E+02  0.13538318692E+02  0.51006729668E+02  0.65677112754E+02  0.00000000000E+00 0. -1.
        -12    1    6    6    0    0 -0.16513280121E+02  0.93926957994E+02  0.29276405850E+02  0.99760061136E+02  0.00000000000E+00 0.  1.
</event>
<event>
12    1  0.8563264E-002  0.1923463E+03  0.7818608E-02  0.1157191E+00
         21   -1    0    0  503  502  0.00000000000E+00  0.00000000000E+00  0.20529183524E+04  0.20529183524E+04  0.00000000000E+00 0.  1.
         21   -1    0    0  501  503 -0.00000000000E+00 -0.00000000000E+00 -0.67180773131E+02  0.67180773131E+02  0.00000000000E+00 0.  1.
          6    2    1    2  501    0  0.77540824578E+02  0.50313349958E+01  0.80384290173E+02  0.20506172019E+03  0.17190340651E+03 0.  0.
         24    2    3    3    0    0  0.10459239107E+03  0.26056920100E+02  0.98119132566E+02  0.16619686314E+03  0.79846739359E+02 0.  0.
         -6    2    1    2    0  502 -0.77540824578E+02 -0.50313349958E+01  0.19053532891E+04  0.19150374053E+04  0.17595230546E+03 0.  0.
        -24    2    5    5    0    0 -0.69733923091E+02  0.12822986524E+02  0.58878943012E+03  0.59832095551E+03  0.79295168628E+02 0.  0.
          5    1    3    3  501    0 -0.27051566493E+02 -0.21025585104E+02 -0.17734842393E+02  0.38864857048E+02  0.47000000000E+01 0. -1.
        -13    1    4    4    0    0  0.28311064013E+02 -0.23379319944E+02  0.67862160032E+01  0.37338474450E+02  0.00000000000E+00 0.  1.
         14    1    4    4    0    0  0.76281327057E+02  0.49436240044E+02  0.91332916563E+02  0.12885838869E+03  0.00000000000E+00 0. -1.
         -5    1    5    5    0  502 -0.78069014868E+01 -0.17854321520E+02  0.13165638589E+04  0.13167164498E+04  0.47000000000E+01 0.  1.
         11    1    6    6    0    0  0.34403799995E+01  0.81129542180E-01  0.30355266650E+03  0.30357217286E+03  0.00000000000E+00 0. -1.
        -12    1    6    6    0    0 -0.73174303091E+02  0.12741856982E+02  0.28523676362E+03  0.29474878264E+03  0.00000000000E+00 0.  1.
</event>
<event>
12    1  0.8563264E-002  0.2589767E+03  0.7818608E-02  0.1107934E+00
         21   -1    0    0  503  502  0.00000000000E+00  0.00000000000E+00  0.72665031887E+02  0.72665031887E+02  0.00000000000E+00 0.  1.
         21   -1    0    0  501  503 -0.00000000000E+00 -0.00000000000E+00 -0.10713684363E+04  0.10713684363E+04  0.00000000000E+00 0.  1.
          6    2    1    2  501    0 -0.19229594081E+03 -0.16135731775E+02 -0.71419087824E+03  0.75930461819E+03  0.17098772457E+03 0.  0.
         24    2    3    3    0    0 -0.17939495013E+03 -0.11581465139E+01 -0.41335548747E+03  0.45778382959E+03  0.80742715926E+02 0.  0.
         -6    2    1    2    0  502  0.19229594081E+03  0.16135731775E+02 -0.28451252618E+03  0.38472885000E+03  0.17271600904E+03 0.  0.
        -24    2    5    5    0    0  0.82468289237E+02  0.48685390435E+02 -0.22060339604E+03  0.25347314443E+03  0.80071784260E+02 0.  0.
          5    1    3    3  501    0 -0.12900990680E+02 -0.14977585261E+02 -0.30083539077E+03  0.30152078861E+03  0.47000000000E+01 0. -1.
        -13    1    4    4    0    0 -0.91554903326E+02  0.38943027389E+02 -0.19076699487E+03  0.21515321526E+03  0.00000000000E+00 0.  1.
         14    1    4    4    0    0 -0.87840046803E+02 -0.40101173903E+02 -0.22258849259E+03  0.24263061432E+03  0.00000000000E+00 0. -1.
         -5    1    5    5    0  502  0.10982765157E+03 -0.32549658660E+02 -0.63909130143E+02  0.13125570557E+03  0.47000000000E+01 0.  1.
         11    1    6    6    0    0 -0.78847336378E+01  0.18900116080E+02 -0.10900798737E+02  0.23199371230E+02  0.00000000000E+00 0. -1.
        -12    1    6    6    0    0  0.90353022875E+02  0.29785274355E+02 -0.20970259730E+03  0.23027377320E+03  0.00000000000E+00 0.  1.
</event>
<event>
12    1  0.8563264E-002  0.1775352E+03  0.7818608E-02  0.1170470E+00
         21   -1    0    0  503  502  0.00000000000E+00  0.00000000000E+00  0.50107783371E+02  0.50107783371E+02  0.00000000000E+00 0.  1.
         21   -1    0    0  501  503 -0.00000000000E+00 -0.00000000000E+00 -0.64274248937E+03  0.64274248937E+03  0.00000000000E+00 0.  1.
          6    2    1    2  501    0  0.37565385012E+02  0.14738510557E+02 -0.35252826591E+03  0.39423704450E+03  0.17180886806E+03 0.  0.
         24    2    3    3    0    0  0.17561233538E+01  0.61983990428E+02 -0.13474392612E+03  0.16847932648E+03  0.79901556837E+02 0.  0.
         -6    2    1    2    0  502 -0.37565385012E+02 -0.14738510557E+02 -0.24010644009E+03  0.29861322824E+03  0.17288833293E+03 0.  0.
        -24    2    5    5    0    0 -0.89524155059E+02  0.75601498748E+01 -0.16424220909E+03  0.20387983610E+03  0.80744994371E+02 0.  0.
          5    1    3    3  501    0  0.35809261658E+02 -0.47245479871E+02 -0.21778433979E+03  0.22575771802E+03  0.47000000000E+01 0. -1.
        -13    1    4    4    0    0  0.47016043968E+01  0.76317704051E+02 -0.13343188466E+03  0.15378740157E+03  0.00000000000E+00 0.  1.
         14    1    4    4    0    0 -0.29454810431E+01 -0.14333713623E+02 -0.13120414579E+01  0.14691924911E+02  0.00000000000E+00 0. -1.
         -5    1    5    5    0  502  0.51958770047E+02 -0.22298660432E+02 -0.75864230993E+02  0.94733392138E+02  0.47000000000E+01 0.  1.
         13    1    6    6    0    0 -0.20023900719E+02 -0.31202070772E+02 -0.29443365398E+02  0.47343823107E+02  0.00000000000E+00 0. -1.
        -14    1    6    6    0    0 -0.69500254340E+02  0.38762220646E+02 -0.13479884370E+03  0.15653601300E+03  0.00000000000E+00 0.  1.
</event>
<event>
12    1  0.8563264E-002  0.1880699E+03  0.7818608E-02  0.1160575E+00
         21   -1    0    0  503  502  0.00000000000E+00  0.00000000000E+00  0.42073886602E+03  0.42073886602E+03  0.00000000000E+00 0. -1.
         21   -1    0    0  501  503 -0.00000000000E+00 -0.00000000000E+00 -0.83892552534E+02  0.83892552534E+02  0.00000000000E+00 0.  1.
          6    2    1    2  501    0 -0.54737305040E+01 -0.75397933719E+02  0.14912949833E+03  0.24002060228E+03  0.17220764243E+03 0.  0.
         24    2    3    3    0    0  0.35973529779E+02 -0.75183049066E+02  0.41023624476E+02  0.12414613779E+03  0.82357392203E+02 0.  0.
         -6    2    1    2    0  502  0.54737305040E+01  0.75397933719E+02  0.18771681516E+03  0.26461081628E+03  0.17048891830E+03 0.  0.
        -24    2    5    5    0    0 -0.36560482204E+02 -0.10452195841E+02  0.11490643276E+03  0.14435874116E+03  0.78676811093E+02 0.  0.
          5    1    3    3  501    0 -0.41447260283E+02 -0.21488465288E+00  0.10810587385E+03  0.11587446449E+03  0.47000000000E+01 0. -1.
        -13    1    4    4    0    0 -0.16915925327E+02  0.77038642617E+01  0.96187309621E+01  0.20928880513E+02  0.00000000000E+00 0.  1.
         14    1    4    4    0    0  0.52889455105E+02 -0.82886913328E+02  0.31404893514E+02  0.10321725727E+03  0.00000000000E+00 0. -1.
         -5    1    5    5    0  502  0.42034212708E+02  0.85850129560E+02  0.72810382399E+02  0.12025207511E+03  0.47000000000E+01 0.  1.
         11    1    6    6    0    0  0.14968363463E+02 -0.24072806718E+02  0.17471275563E+02  0.33298609548E+02  0.00000000000E+00 0. -1.
        -12    1    6    6    0    0 -0.51528845667E+02  0.13620610877E+02  0.97435157198E+02  0.11106013162E+03  0.00000000000E+00 0.  1.
</event>
<event>
12    1  0.8563264E-002  0.2248442E+03  0.7818608E-02  0.1130723E+00
         21   -1    0    0  503  502  0.00000000000E+00  0.00000000000E+00  0.21311460889E+04  0.21311460889E+04  0.00000000000E+00 0.  1.
         21   -1    0    0  501  503 -0.00000000000E+00 -0.00000000000E+00 -0.25076593400E+02  0.25076593400E+02  0.00000000000E+00 0. -1.
          6    2    1    2  501    0  0.13873014333E+03 -0.34783423800E+02  0.13193393538E+04  0.13379933466E+04  0.17062803341E+03 0.  0.
         24    2    3    3    0    0  0.50465261432E+02 -0.68620827487E+02  0.92524180282E+03  0.93269021441E+03  0.81136192850E+02 0.  0.
         -6    2    1    2    0  502 -0.13873014333E+03  0.34783423800E+02  0.78673014170E+03  0.81822933571E+03  0.17349060701E+03 0.  0.
        -24    2    5    5    0    0 -0.79661447421E+01  0.49301852724E+02  0.36014741395E+03  0.37179353773E+03  0.77653993966E+02 0.  0.
          5    1    3    3  501    0  0.88264881902E+02  0.33837403687E+02  0.39409755095E+03  0.40530313215E+03  0.47000000000E+01 0. -1.
        -11    1    4    4    0    0 -0.17862775545E+01 -0.24063179552E+02  0.59177983951E+02  0.63908224684E+02  0.00000000000E+00 0.  1.
         12    1    4    4    0    0  0.52251538987E+02 -0.44557647935E+02  0.86606381887E+03  0.86878198973E+03  0.00000000000E+00 0. -1.
         -5    1    5    5    0  502 -0.13076399859E+03 -0.14518428924E+02  0.42658272775E+03  0.44643579798E+03  0.47000000000E+01 0.  1.
         13    1    6    6    0    0 -0.19655703088E+02 -0.80229002609E+01  0.31545047491E+02  0.38023724353E+02  0.00000000000E+00 0. -1.
        -14    1    6    6    0    0  0.11689558346E+02  0.57324752985E+02  0.32860236646E+03  0.33376981338E+03  0.00000000000E+00 0.  1.
</event>
<event>
12    1  0.8563264E-002  0.2834639E+03  0.7818608E-02  0.1093897E+00
         21   -1    0    0  503  502  0.00000000000E+00  0.00000000000E+00  0.25045226334E+03  0.25045226334E+03  0.00000000000E+00 0. -1.
         21   -1    0    0  501  503 -0.00000000000E+00 -0.00000000000E+00 -0.32834464090E+03  0.32834464090E+03  0.00000000000E+00 0.  1.
          6    2    1    2  501    0  0.16106080744E+03 -0.15645026636E+03  0.68427434977E+01  0.28354645344E+03  0.17301589113E+03 0.  0.
         24    2    3    3    0    0  0.60502626778E+02 -0.94410836084E+01 -0.20794401372E+02  0.10324240665E+03  0.80479099749E+02 0.  0.
         -6    2    1    2    0  502 -0.16106080744E+03  0.15645026636E+03 -0.84735121059E+02  0.29525045080E+03  0.17197534248E+03 0.  0.
        -24    2    5    5    0    0 -0.33379365841E+02  0.34487430064E+02 -0.74173785766E+02  0.11830097844E+03  0.78675320833E+02 0.  0.
          5    1    3    3  501    0  0.10055818067E+03 -0.14700918275E+03  0.27637144869E+02  0.18030404679E+03  0.47000000000E+01 0. -1.
        -13    1    4    4    0    0  0.36101034835E+01 -0.35840387206E+02 -0.18468393923E+02  0.40480214628E+02  0.00000000000E+00 0.  1.
         14    1    4    4    0    0  0.56892523294E+02  0.26399303597E+02 -0.23260074488E+01  0.62762192026E+02  0.00000000000E+00 0. -1.
         -5    1    5    5    0  502 -0.12768144160E+03  0.12196283629E+03 -0.10561335293E+02  0.17694947236E+03  0.47000000000E+01 0.  1.
         11    1    6    6    0    0  0.11488906537E+02  0.36839611986E+02 -0.98282884795E+01  0.39821441952E+02  0.00000000000E+00 0. -1.
        -12    1    6    6    0    0 -0.44868272378E+02 -0.23521819218E+01 -0.64345497287E+02  0.78479536486E+02  0.00000000000E+00 0.  1.
</event>
<event>
12    1  0.8563264E-002  0.1839620E+03  0.7818608E-02  0.1164044E+00
         21   -1    0    0  503  502  0.00000000000E+00  0.00000000000E+00  0.41524589457E+03  0.41524589457E+03  0.00000000000E+00 0.  1.
         21   -1    0    0  501  503 -0.00000000000E+00 -0.00000000000E+00 -0.12285946664E+03  0.12285946664E+03  0.00000000000E+00 0.  1.
          6    2    1    2  501    0  0.49879967586E+02  0.40841060647E+02 -0.99664078500E+01  0.18423175081E+03  0.17229627193E+03 0.  0.
         24    2    3    3    0    0  0.87784443966E+01  0.89957928730E+02 -0.12518020226E+02  0.11996354200E+03  0.77878498641E+02 0.  0.
         -6    2    1    2    0  502 -0.49879967586E+02 -0.40841060647E+02  0.30235283578E+03  0.35387361039E+03  0.17220131075E+03 0.  0.
        -24    2    5    5    0    0 -0.46038723002E+02 -0.18727381579E+02  0.31425174588E+03  0.32803867235E+03  0.79905769068E+02 0.  0.
          5    1    3    3  501    0  0.41101523189E+02 -0.49116868083E+02  0.25516123760E+01  0.64268208817E+02  0.47000000000E+01 0. -1.
        -11    1    4    4    0    0  0.78228604610E+01  0.18181984433E+00 -0.27809518313E+02  0.28889436011E+02  0.00000000000E+00 0.  1.
         12    1    4    4    0    0  0.95558393566E+00  0.89776108886E+02  0.15291498087E+02  0.91074105986E+02  0.00000000000E+00 0. -1.
         -5    1    5    5    0  502 -0.38412445842E+01 -0.22113679069E+02 -0.11898910100E+02  0.25834938039E+02  0.47000000000E+01 0.  1.
         13    1    6    6    0    0 -0.27142369256E+02  0.26198499019E+02  0.20452210794E+03  0.20797202263E+03  0.00000000000E+00 0. -1.
        -14    1    6    6    0    0 -0.18896353746E+02 -0.44925880598E+02  0.10972963794E+03  0.12006664972E+03  0.00000000000E+00 0.  1.
</event>
<event>
12    1  0.8563264E-002  0.2065638E+03  0.7818608E-02  0.1144357E+00
         21   -1    0    0  503  502  0.00000000000E+00  0.00000000000E+00  0.48330799188E+03  0.48330799188E+03  0.00000000000E+00 0. -1.
         21   -1    0    0  501  503 -0.00000000000E+00 -0.00000000000E+00 -0.88373916267E+02  0.88373916267E+02  0.00000000000E+00 0. -1.
          6    2    1    2  501    0 -0.26758941351E+02 -0.11027136913E+03  0.21012945648E+03  0.29451529119E+03  0.17236314129E+03 0.  0.
         24    2    3    3    0    0  0.51227095178E+02 -0.69722945478E+02  0.13256841788E+03  0.17719606318E+03  0.79615042419E+02 0.  0.
         -6    2    1    2    0  502  0.26758941351E+02  0.11027136913E+03  0.18480461913E+03  0.27716661695E+03  0.17260582409E+03 0.  0.
        -24    2    5    5    0    0 -0.35550525677E+02  0.84756426713E+02  0.62170089602E+02  0.13718519033E+03  0.80666998574E+02 0.  0.
          5    1    3    3  501    0 -0.77986036529E+02 -0.40548423647E+02  0.77561038602E+02  0.11731922802E+03  0.47000000000E+01 0. -1.
        -11    1    4    4    0    0  0.24836290192E+02 -0.22446965523E+02 -0.55691130444E+00  0.33481602738E+02  0.00000000000E+00 0.  1.
         12    1    4    4    0    0  0.26390804986E+02 -0.47275979955E+02  0.13312532919E+03  0.14371446044E+03  0.00000000000E+00 0. -1.
         -5    1    5    5    0  502  0.62309467027E+02  0.25514942412E+02  0.12263452953E+03  0.13998142663E+03  0.47000000000E+01 0.  1.
         11    1    6    6    0    0  0.18013921734E+02  0.27808301421E+02 -0.57420740452E+01  0.33626989436E+02  0.00000000000E+00 0. -1.
        -12    1    6    6    0    0 -0.53564447410E+02  0.56948125292E+02  0.67912163647E+02  0.10355820089E+03  0.00000000000E+00 0.  1.
</event>
<event>
12    1  0.8563264E-002  0.1797705E+03  0.7818608E-02  0.1168252E+00
         21   -1    0    0  503  502  0.00000000000E+00  0.00000000000E+00  0.62412847517E+03  0.62412847517E+03  0.00000000000E+00 0.  1.
         21   -1    0    0  501  503 -0.00000000000E+00 -0.00000000000E+00 -0.82068848898E+02  0.82068848898E+02  0.00000000000E+00 0.  1.
          6    2    1    2  501    0  0.49346351515E+02 -0.12834652516E+02  0.55130242644E+02  0.18714275367E+03  0.17141550655E+03 0.  0.
         24    2    3    3    0    0  0.61074901824E+02 -0.50853463084E+02  0.83047605452E+02  0.13831184138E+03  0.76922313753E+02 0.  0.
         -6    2    1    2    0  502 -0.49346351515E+02  0.12834652516E+02  0.48692938363E+03  0.51905457040E+03  0.17238802655E+03 0.  0.
        -24    2    5    5    0    0 -0.25573735453E+02 -0.22591216049E+02  0.10987049406E+03  0.13956066315E+03  0.79001735711E+02 0.  0.
          5    1    3    3  501    0 -0.11728550308E+02  0.38018810567E+02 -0.27917362808E+02  0.48830912294E+02  0.47000000000E+01 0. -1.
        -13    1    4    4    0    0  0.39509220121E+02 -0.13085183452E+02 -0.31757344494E+01  0.41740697045E+02  0.00000000000E+00 0.  1.
         14    1    4    4    0    0  0.21565681703E+02 -0.37768279631E+02  0.86223339901E+02  0.96571144331E+02  0.00000000000E+00 0. -1.
         -5    1    5    5    0  502 -0.23772616062E+02  0.35425868566E+02  0.37705888957E+03  0.37949390725E+03  0.47000000000E+01 0.  1.
         11    1    6    6    0    0  0.18609632738E+02 -0.14696476053E+02  0.85003792863E+02  0.88249360565E+02  0.00000000000E+00 0. -1.
        -12    1    6    6    0    0 -0.44183368191E+02 -0.78947399966E+01  0.24866701198E+02  0.51311302583E+02  0.00000000000E+00 0.  1.
</event>
<event>
12    1  0.8563264E-002  0.1722467E+03  0.7818608E-02  0.1175644E+00
         21   -1    0    0  501  502  0.00000000000E+00  0.00000000000E+00  0.22733038051E+02  0.22733038051E+02  0.00000000000E+00 0.  1.
         21   -1    0    0  502  503 -0.00000000000E+00 -0.00000000000E+00 -0.21958513392E+04  0.21958513392E+04  0.00000000000E+00 0.  1.
         -6    2    1    2    0  503 -0.55984085669E+01 -0.20431842310E+01 -0.17953358740E+04  0.18035797257E+04  0.17214357279E+03 0.  0.
        -24    2    3    3    0    0 -0.52717537431E+02  0.24396424410E+02 -0.76215145529E+03  0.76897284466E+03  0.84083712695E+02 0.  0.
          6    2    1    2  501    0  0.55984085669E+01  0.20431842310E+01 -0.37778242708E+03  0.41500465149E+03  0.17167929920E+03 0.  0.
         24    2    5    5    0    0 -0.26765459629E+02  0.47178361843E+02 -0.32194964252E+03  0.33611235748E+03  0.79860859500E+02 0.  0.
          5    1    5    5  501    0  0.32363868196E+02 -0.45135177612E+02 -0.55832784561E+02  0.78892294012E+02  0.47000000000E+01 0. -1.
        -13    1    6    6    0    0 -0.89646355711E+01  0.52119270452E+02 -0.97630273655E+02  0.11103356870E+03  0.00000000000E+00 0.  1.
         14    1    6    6    0    0 -0.17800824058E+02 -0.49409086090E+01 -0.22431936886E+03  0.22507878879E+03  0.00000000000E+00 0. -1.
         -5    1    3    3    0  503  0.47119128864E+02 -0.26439608641E+02 -0.10331844187E+04  0.10346068811E+04  0.47000000000E+01 0.  1.
         11    1    4    4    0    0 -0.65080502092E+02 -0.86369147665E+01 -0.55076601668E+03  0.55466500988E+03  0.00000000000E+00 0. -1.
        -12    1    4    4    0    0  0.12362964661E+02  0.33033339177E+02 -0.21138543861E+03  0.21430783478E+03  0.00000000000E+00 0.  1.
</event>
<event>
12    1  0.8563264E-002  0.1796318E+03  0.7818608E-02  0.1168249E+00
         21   -1    0    0  503  502  0.00000000000E+00  0.00000000000E+00  0.17212708103E+03  0.17212708103E+03  0.00000000000E+00 0. -1.
         21   -1    0    0  501  503 -0.00000000000E+00 -0.00000000000E+00 -0.72989385058E+03  0.72989385058E+03  0.00000000000E+00 0. -1.
          6    2    1    2  501    0 -0.26398850016E+02  0.43195714035E+02 -0.66789462624E+03  0.69162909891E+03  0.17235083318E+03 0.  0.
         24    2    3    3    0    0 -0.52829948349E+02  0.50313016994E+02 -0.24702753891E+03  0.26984662635E+03  0.80449944983E+02 0.  0.
         -6    2    1    2    0  502  0.26398850016E+02 -0.43195714035E+02  0.11012785669E+03  0.21039183269E+03  0.17197037376E+03 0.  0.
        -24    2    5    5    0    0  0.86914671548E+01 -0.87553152017E+02  0.11234402333E+03  0.16234877798E+03  0.77426417345E+02 0.  0.
          5    1    3    3  501    0  0.26431098333E+02 -0.71173029589E+01 -0.42086708733E+03  0.42178247256E+03  0.47000000000E+01 0. -1.
        -13    1    4    4    0    0 -0.64325978815E+02  0.85636770665E+01 -0.15940280067E+03  0.17210584236E+03  0.00000000000E+00 0.  1.
         14    1    4    4    0    0  0.11496030467E+02  0.41749339927E+02 -0.87624738247E+02  0.97740783984E+02  0.00000000000E+00 0. -1.
         -5    1    5    5    0  502  0.17707382861E+02  0.44357437982E+02 -0.22161666357E+01  0.48043054719E+02  0.47000000000E+01 0.  1.
         13    1    6    6    0    0  0.14238708621E+02 -0.19531879427E+02  0.85769575874E+02  0.89110354520E+02  0.00000000000E+00 0. -1.
        -14    1    6    6    0    0 -0.55472414658E+01 -0.68021272590E+02  0.26574447455E+02  0.73238423455E+02  0.00000000000E+00 0.  1.
</event>
<event>
12    1  0.8563264E-002  0.1950699E+03  0.7818608E-02  0.1154037E+00
         21   -1    0    0  503  502  0.00000000000E+00  0.00000000000E+00  0.95945200804E+03  0.95945200804E+03  0.00000000000E+00 0.  1.
         21   -1    0    0  501  503 -0.00000000000E+00 -0.00000000000E+00 -0.42819326014E+02  0.42819326014E+02  0.00000000000E+00 0.  1.
          6    2    1    2  501    0 -0.51823732694E+02 -0.75640727891E+02  0.32114773228E+03  0.37575011790E+03  0.17217742641E+03 0.  0.
         24    2    3    3    0    0 -0.50953015561E+02 -0.10612353137E+03  0.31383936662E+03  0.34404110238E+03  0.77528822921E+02 0.  0.
         -6    2    1    2    0  502  0.51823732694E+02  0.75640727891E+02  0.59548494975E+03  0.62652121616E+03  0.17181178637E+03 0.  0.
        -24    2    5    5    0    0  0.78701638898E+02  0.51144289071E+02  0.56707697600E+03  0.58013587010E+03  0.78559816677E+02 0.  0.
          5    1    3    3  501    0 -0.87071713326E+00  0.30482803479E+02  0.73083656622E+01  0.31709015514E+02  0.47000000000E+01 0. -1.
        -13    1    4    4    0    0 -0.70567716807E+02 -0.75543523692E+02  0.25101563445E+03  0.27146910573E+03  0.00000000000E+00 0.  1.
         14    1    4    4    0    0  0.19614701246E+02 -0.30580007678E+02  0.62823732168E+02  0.72571996652E+02  0.00000000000E+00 0. -1.
         -5    1    5    5    0  502 -0.26877906204E+02  0.24496438820E+02  0.28407973748E+02  0.46385346062E+02  0.47000000000E+01 0.  1.
         13    1    6    6    0    0  0.19676421747E+02 -0.88239783038E+01  0.28400788067E+03  0.28482538589E+03  0.00000000000E+00 0. -1.
        -14    1    6    6    0    0  0.59025217151E+02  0.59968267375E+02  0.28306909534E+03  0.29531048421E+03  0.00000000000E+00 0.  1.
</event>
<event>
12    1  0.8563264E-002  0.2638730E+03  0.7818608E-02  0.1105024E+00
         21   -1    0    0  503  502  0.00000000000E+00  0.00000000000E+00  0.37482369208E+02  0.37482369208E+02  0.00000000000E+00 0. -1.
         21   -1    0    0  501  503 -0.00000000000E+00 -0.00000000000E+00 -0.19044445583E+04  0.19044445583E+04  0.00000000000E+00 0. -1.
          6    2    1    2  501    0  0.15157540727E+02 -0.19939970793E+03 -0.11015733175E+04  0.11327368340E+04  0.17215971338E+03 0.  0.
         24    2    3    3    0    0 -0.13535517332E+02 -0.90397670999E+02 -0.82783518825E+03  0.83666355086E+03  0.79623170498E+02 0.  0.
         -6    2    1    2    0  502 -0.15157540727E+02  0.19939970793E+03 -0.76538887161E+03  0.80919009344E+03  0.17023069044E+03 0.  0.
        -24    2    5    5    0    0 -0.30165547728E+02  0.59886058810E+02 -0.48031196813E+03  0.49141622814E+03  0.79334874080E+02 0.  0.
          5    1    3    3  501    0  0.28693058059E+02 -0.10900203693E+03 -0.27373812921E+03  0.29607328319E+03  0.47000000000E+01 0. -1.
        -13    1    4    4    0    0  0.33609039822E+02 -0.37995298971E+02 -0.34205383646E+03  0.34579479079E+03  0.00000000000E+00 0.  1.
         14    1    4    4    0    0 -0.47144557154E+02 -0.52402372027E+02 -0.48578135179E+03  0.49086876007E+03  0.00000000000E+00 0. -1.
         -5    1    5    5    0  502  0.15008007000E+02  0.13951364912E+03 -0.28507690348E+03  0.31777386529E+03  0.47000000000E+01 0.  1.
         11    1    6    6    0    0 -0.10913694885E+01  0.69128459834E+02 -0.26138905745E+03  0.27037783638E+03  0.00000000000E+00 0. -1.
        -12    1    6    6    0    0 -0.29074178239E+02 -0.92424010242E+01 -0.21892291068E+03  0.22103839177E+03  0.00000000000E+00 0.  1.
</event>
<event>
12    1  0.8563264E-002  0.2380641E+03  0.7818608E-02  0.1121184E+00
         21   -1    0    0  503  502  0.00000000000E+00  0.00000000000E+00  0.89868833365E+02  0.89868833365E+02  0.00000000000E+00 0. -1.
         21   -1    0    0  501  503 -0.00000000000E+00 -0.00000000000E+00 -0.67763786632E+03  0.67763786632E+03  0.00000000000E+00 0.  1.
          6    2    1    2  501    0 -0.14722752159E+03 -0.73552107043E+02 -0.19089585952E+03  0.30470777769E+03  0.17123009385E+03 0.  0.
         24    2    3    3    0    0 -0.76078123884E+02 -0.10207747257E+03 -0.16634607033E+03  0.22408076348E+03  0.79583177264E+02 0.  0.
         -6    2    1    2    0  502  0.14722752159E+03  0.73552107043E+02 -0.39687317343E+03  0.46279892199E+03  0.17201357750E+03 0.  0.
        -24    2    5    5    0    0  0.16345325275E+03  0.51395928287E+02 -0.25049262108E+03  0.31379044332E+03  0.79745732326E+02 0.  0.
          5    1    3    3  501    0 -0.71149397702E+02  0.28525365532E+02 -0.24549789185E+02  0.80627014214E+02  0.47000000000E+01 0. -1.
        -11    1    4    4    0    0 -0.50055489380E+01 -0.52883598360E+02 -0.10630132291E+03  0.11883476658E+03  0.00000000000E+00 0.  1.
         12    1    4    4    0    0 -0.71072574946E+02 -0.49193874214E+02 -0.60044747429E+02  0.10524599690E+03  0.00000000000E+00 0. -1.
         -5    1    5    5    0  502 -0.16225731164E+02  0.22156178756E+02 -0.14638055236E+03  0.14900847868E+03  0.47000000000E+01 0.  1.
         11    1    6    6    0    0  0.22516109545E+02  0.41887097338E+02 -0.57280051055E+02  0.74448024562E+02  0.00000000000E+00 0. -1.
        -12    1    6    6    0    0  0.14093714321E+03  0.95088309493E+01 -0.19321257002E+03  0.23934241876E+03  0.00000000000E+00 0.  1.
</event>
<event>
12    1  0.8563264E-002  0.2441066E+03  0.7818608E-02  0.1117130E+00
         21   -1    0    0  503  502  0.00000000000E+00  0.00000000000E+00  0.11495816713E+03  0.11495816713E+03  0.00000000000E+00 0.  1.
         21   -1    0    0  501  503 -0.00000000000E+00 -0.00000000000E+00 -0.10360218816E+04  0.10360218816E+04  0.00000000000E+00 0. -1.
          6    2    1    2  501    0  0.78776338103E+02 -0.15372626218E+03 -0.86742982922E+03  0.90105083352E+03  0.17210642297E+03 0.  0.
         24    2    3    3    0    0  0.12004466650E+03 -0.11496434303E+03 -0.70124014269E+03  0.72541865192E+03  0.82867126789E+02 0.  0.
         -6    2    1    2    0  502 -0.78776338103E+02  0.15372626218E+03 -0.53633885208E+02  0.24992921518E+03  0.17248345957E+03 0.  0.
        -24    2    5    5    0    0  0.11970206517E+02  0.38787790563E+02  0.13571127647E+02  0.88732467778E+02  0.77727066017E+02 0.  0.
          5    1    3    3  501    0 -0.41268328394E+02 -0.38761919158E+02 -0.16618968653E+03  0.17563218160E+03  0.47000000000E+01 0. -1.
        -13    1    4    4    0    0  0.21315953887E+02  0.16007628788E+01 -0.28917116750E+02  0.35960144230E+02  0.00000000000E+00 0.  1.
         14    1    4    4    0    0  0.98728712611E+02 -0.11656510590E+03 -0.67232302594E+03  0.68945850769E+03  0.00000000000E+00 0. -1.
         -5    1    5    5    0  502 -0.90746544621E+02  0.11493847162E+03 -0.67205012855E+02  0.16119674740E+03  0.47000000000E+01 0.  1.
         11    1    6    6    0    0  0.10815966491E+02  0.23518334554E+02 -0.31708728288E+02  0.40933368307E+02  0.00000000000E+00 0. -1.
        -12    1    6    6    0    0  0.11542400268E+01  0.15269456009E+02  0.45279855934E+02  0.47799099472E+02  0.00000000000E+00 0.  1.
</event>
<event>
12    1  0.8563264E-002  0.2044191E+03  0.7818608E-02  0.1146065E+00
         21   -1    0    0  503  502  0.00000000000E+00  0.00000000000E+00  0.41387227793E+03  0.41387227793E+03  0.00000000000E+00 0. -1.
         21   -1    0    0  501  503 -0.00000000000E+00 -0.00000000000E+00 -0.11639415706E+03  0.11639415706E+03  0.00000000000E+00 0. -1.
          6    2    1    2  501    0 -0.11009196407E+03 -0.11344415308E+02  0.52199571307E+02  0.21097862137E+03  0.17186694597E+03 0.  0.
         24    2    3    3    0    0 -0.10848369590E+02  0.49617169406E+01  0.75016499470E+02  0.10774159698E+03  0.76409886591E+02 0.  0.
         -6    2    1    2    0  502  0.11009196407E+03  0.11344415308E+02  0.24527854957E+03  0.31928781362E+03  0.17185518537E+03 0.  0.
        -24    2    5    5    0    0  0.14235490012E+03  0.98014534118E+01  0.23222226660E+03  0.28413337864E+03  0.80272097721E+02 0.  0.
          5    1    3    3  501    0 -0.99243594479E+02 -0.16306132248E+02 -0.22816928163E+02  0.10323702439E+03  0.47000000000E+01 0. -1.
        -13    1    4    4    0    0 -0.63495689981E+01  0.38747249356E+02  0.56928095659E+02  0.69155436767E+02  0.00000000000E+00 0.  1.
         14    1    4    4    0    0 -0.44988005919E+01 -0.33785532415E+02  0.18088403811E+02  0.38586160210E+02  0.00000000000E+00 0. -1.
         -5    1    5    5    0  502 -0.32262936053E+02  0.15429618961E+01  0.13056282965E+02  0.35154434984E+02  0.47000000000E+01 0.  1.
         13    1    6    6    0    0  0.73562542151E+02  0.21664667412E+02  0.18385428233E+03  0.19920643200E+03  0.00000000000E+00 0. -1.
        -14    1    6    6    0    0  0.68792357972E+02 -0.11863214000E+02  0.48367984275E+02  0.84926946634E+02  0.00000000000E+00 0.  1.
</event>
<event>
12    1  0.8563264E-002  0.1840119E+03  0.7818608E-02  0.1164078E+00
         21   -1    0    0  501  502  0.00000000000E+00  0.00000000000E+00  0.76193444354E+03  0.76193444354E+03  0.00000000000E+00 0.  1.
         21   -1    0    0  502  503 -0.00000000000E+00 -0.00000000000E+00 -0.20032682080E+03  0.20032682080E+03  0.00000000000E+00 0.  1.
         -6    2    1    2    0  503 -0.64605519054E+02  0.26173082580E+02 -0.14368777039E+03  0.23346637237E+03  0.17029817474E+03 0.  0.
        -24    2    3    3    0    0 -0.10263798874E+03  0.44880596662E+01 -0.13741183436E+03  0.18898956558E+03  0.79248623090E+02 0.  0.
          6    2    1    2  501    0  0.64605519054E+02 -0.26173082580E+02  0.70529539313E+03  0.72879489197E+03  0.16982785300E+03 0.  0.
         24    2    5    5    0    0  0.35970231181E+02 -0.73630711581E+02  0.32775317689E+03  0.34717673032E+03  0.79963728615E+02 0.  0.
          5    1    5    5  501    0  0.28635287873E+02  0.47457629002E+02  0.37754221623E+03  0.38161816165E+03  0.47000000000E+01 0. -1.
        -11    1    6    6    0    0  0.61317744685E+02 -0.59435623761E+02  0.24892295913E+03  0.26316363496E+03  0.00000000000E+00 0.  1.
         12    1    6    6    0    0 -0.25347513504E+02 -0.14195087821E+02  0.78830217763E+02  0.84013095358E+02  0.00000000000E+00 0. -1.
         -5    1    3    3    0  503  0.38032469685E+02  0.21685022914E+02 -0.62759360299E+01  0.44476806789E+02  0.47000000000E+01 0.  1.
         11    1    4    4    0    0 -0.41783637849E+02 -0.36334265055E+02 -0.47145310754E+02  0.72723665578E+02  0.00000000000E+00 0. -1.
        -12    1    4    4    0    0 -0.60854350890E+02  0.40822324722E+02 -0.90266523610E+02  0.11626590000E+03  0.00000000000E+00 0.  1.
</event>
<event>
12    1  0.8563264E-002  0.1934682E+03  0.7818608E-02  0.1155550E+00
         21   -1    0    0  503  502  0.00000000000E+00  0.00000000000E+00  0.26869502860E+03  0.26869502860E+03  0.00000000000E+00 0. -1.
         21   -1    0    0  501  503 -0.00000000000E+00 -0.00000000000E+00 -0.31331516014E+03  0.31331516014E+03  0.00000000000E+00 0. -1.
          6    2    1    2  501    0  0.24624588050E+02  0.84482828994E+02 -0.23956559759E+03  0.30793120798E+03  0.17229693719E+03 0.  0.
         24    2    3    3    0    0  0.69590461586E+01  0.34266033817E+00 -0.37707449701E+02  0.88476335120E+02  0.79734963308E+02 0.  0.
         -6    2    1    2    0  502 -0.24624588050E+02 -0.84482828994E+02  0.19494546605E+03  0.27407898076E+03  0.17138212925E+03 0.  0.
        -24    2    5    5    0    0  0.29597863171E+02 -0.90238510249E+02  0.82172232283E+02  0.14872709869E+03  0.79677172949E+02 0.  0.
          5    1    3    3  501    0  0.17665541892E+02  0.84140168656E+02 -0.20185814789E+03  0.21945487286E+03  0.47000000000E+01 0. -1.
        -11    1    4    4    0    0  0.24359793068E+01 -0.30000074343E+02  0.10034538747E+02  0.31727439601E+02  0.00000000000E+00 0.  1.
         12    1    4    4    0    0  0.45230668518E+01  0.30342734681E+02 -0.47741988448E+02  0.56748895519E+02  0.00000000000E+00 0. -1.
         -5    1    5    5    0  502 -0.54222451221E+02  0.57556812554E+01  0.11277323377E+03  0.12535188207E+03  0.47000000000E+01 0.  1.
         13    1    6    6    0    0  0.41839932912E+02 -0.55957393817E+02  0.87461517934E+02  0.11194340994E+03  0.00000000000E+00 0. -1.
        -14    1    6    6    0    0 -0.12242069742E+02 -0.34281116432E+02 -0.52892856509E+01  0.36783688750E+02  0.00000000000E+00 0.  1.
</event>
<event>
12    1  0.8563264E-002  0.1813663E+03  0.7818608E-02  0.1166520E+00
         21   -1    0    0  503  502  0.00000000000E+00  0.00000000000E+00  0.22729491922E+03  0.22729491922E+03  0.00000000000E+00 0.  1.
         21   -1    0    0  501  503 -0.00000000000E+00 -0.00000000000E+00 -0.15062101040E+03  0.15062101040E+03  0.00000000000E+00 0. -1.
          6    2    1    2  501    0  0.57130509083E+02 -0.48113813434E+01  0.57215573544E+00  0.18123039121E+03  0.17192173474E+03 0.  0.
         24    2    3    3    0    0 -0.13684324423E+02 -0.31185478487E+01  0.49133603463E+02  0.95219284163E+02  0.80346841952E+02 0.  0.
         -6    2    1    2    0  502 -0.57130509083E+02  0.48113813434E+01  0.76101753086E+02  0.19668553842E+03  0.17206591685E+03 0.  0.
        -24    2    5    5    0    0 -0.89807750854E+02 -0.33248439660E+02  0.74764633210E+02  0.14628484404E+03  0.81477692425E+02 0.  0.
          5    1    3    3  501    0  0.70814833506E+02 -0.16928334947E+01 -0.48561447728E+02  0.86011107045E+02  0.47000000000E+01 0. -1.
        -11    1    4    4    0    0 -0.41851886734E+02 -0.22267626378E+02  0.30862759436E+02  0.56567990310E+02  0.00000000000E+00 0.  1.
         12    1    4    4    0    0  0.28167562311E+02  0.19149078529E+02  0.18270844027E+02  0.38651293853E+02  0.00000000000E+00 0. -1.
         -5    1    5    5    0  502  0.32677241771E+02  0.38059821003E+02  0.13371198755E+01  0.50400694381E+02  0.47000000000E+01 0.  1.
         11    1    6    6    0    0 -0.62395960731E+02 -0.14063144285E+01  0.22198855147E+01  0.62451273225E+02  0.00000000000E+00 0. -1.
        -12    1    6    6    0    0 -0.27411790123E+02 -0.31842125231E+02  0.72544747695E+02  0.83833570813E+02  0.00000000000E+00 0.  1.
</event>
<event>
12    1  0.8563264E-002  0.1982677E+03  0.7818608E-02  0.1151242E+00
         21   -1    0    0  501  502  0.00000000000E+00  0.00000000000E+00  0.25983233221E+03  0.25983233221E+03  0.00000000000E+00 0.  1.
         21   -1    0    0  502  503 -0.00000000000E+00 -0.00000000000E+00 -0.22097968954E+03  0.22097968954E+03  0.00000000000E+00 0.  1.
         -6    2    1    2    0  503 -0.96859960779E+02  0.11986235614E+02 -0.11568826846E+03  0.22955143057E+03  0.17258204417E+03 0.  0.
        -24    2    3    3    0    0  0.14653643566E+02  0.12281102707E+02 -0.28642029936E+02  0.88008120792E+02  0.80990793878E+02 0.  0.
          6    2    1    2  501    0  0.96859960779E+02 -0.11986235614E+02  0.15454091114E+03  0.25126059119E+03  0.17240495823E+03 0.  0.
         24    2    5    5    0    0  0.10993900144E+03  0.43188464134E+02  0.10983371013E+03  0.17889946475E+03  0.77393456680E+02 0.  0.
          5    1    5    5  501    0 -0.13079040658E+02 -0.55174699748E+02  0.44707201011E+02  0.72361126436E+02  0.47000000000E+01 0. -1.
        -11    1    6    6    0    0  0.23593918125E+02 -0.13178356139E+01  0.70049089032E+02  0.73927562773E+02  0.00000000000E+00 0.  1.
         12    1    6    6    0    0  0.86345083311E+02  0.44506299748E+02  0.39784621093E+02  0.10497190198E+03  0.00000000000E+00 0. -1.
         -5    1    3    3    0  503 -0.11151360435E+03 -0.29486709223E+00 -0.87046238527E+02  0.14154330978E+03  0.47000000000E+01 0.  1.
         13    1    4    4    0    0 -0.91575262586E+01 -0.20678534553E+02  0.15940021512E+02  0.27668508529E+02  0.00000000000E+00 0. -1.
        -14    1    4    4    0    0  0.23811169825E+02  0.32959637259E+02 -0.44582051448E+02  0.60339612262E+02  0.00000000000E+00 0.  1.
</event>
<event>
12    1  0.8563264E-002  0.2377085E+03  0.7818608E-02  0.1121581E+00
         21   -1    0    0  503  502  0.00000000000E+00  0.00000000000E+00  0.80447466472E+03  0.80447466472E+03  0.00000000000E+00 0. -1.
         21   -1    0    0  501  503 -0.00000000000E+00 -0.00000000000E+00 -0.21051279939E+03  0.21051279939E+03  0.00000000000E+00 0. -1.
          6    2    1    2  501    0 -0.71825108366E+01 -0.16343410885E+03 -0.11762374143E+03  0.26521814369E+03  0.17246165602E+03 0.  0.
         24    2    3    3    0    0 -0.22580182094E+02 -0.16396130503E+03 -0.14147732254E+03  0.23643534419E+03  0.92155656463E+02 0.  0.
         -6    2    1    2    0  502  0.71825108366E+01  0.16343410885E+03  0.71158560676E+03  0.74976932041E+03  0.17040440630E+03 0.  0.
        -24    2    5    5    0    0 -0.17280435441E+02 -0.54639046212E+01  0.25925694696E+03  0.26629410784E+03  0.58051008778E+02 0.  0.
          5    1    3    3  501    0  0.15397671257E+02  0.52719618145E+00  0.23853581103E+02  0.28782799506E+02  0.47000000000E+01 0. -1.
        -13    1    4    4    0    0 -0.64821360726E+01 -0.26065483055E+02 -0.80389044028E+02  0.84757453328E+02  0.00000000000E+00 0.  1.
         14    1    4    4    0    0 -0.16098046021E+02 -0.13789582198E+03 -0.61088278507E+02  0.15167789086E+03  0.00000000000E+00 0. -1.
         -5    1    5    5    0  502  0.24462946277E+02  0.16889801347E+03  0.45232865979E+03  0.48347521257E+03  0.47000000000E+01 0.  1.
         13    1    6    6    0    0 -0.14398963485E+02  0.24719817165E+02  0.15897637306E+03  0.16152983223E+03  0.00000000000E+00 0. -1.
        -14    1    6    6    0    0 -0.28814719561E+01 -0.30183721786E+02  0.10028057391E+03  0.10476427561E+03  0.00000000000E+00 0.  1.
</event>
<event>
12    1  0.8563264E-002  0.1833807E+03  0.7818608E-02  0.1164988E+00
         21   -1    0    0  503  502  0.00000000000E+00  0.00000000000E+00  0.68929023612E+02  0.68929023612E+02  0.00000000000E+00 0. -1.
         21   -1    0    0  501  503 -0.00000000000E+00 -0.00000000000E+00 -0.54099436439E+03  0.54099436439E+03  0.00000000000E+00 0. -1.
          6    2    1    2  501    0  0.44144294526E+02  0.38326577526E+02 -0.33672092967E+03  0.38341813843E+03  0.17381265521E+03 0.  0.
         24    2    3    3    0    0  0.77107521248E+02 -0.14522755754E+02 -0.26552274728E+03  0.28870331635E+03  0.81797281639E+02 0.  0.
         -6    2    1    2    0  502 -0.44144294526E+02 -0.38326577526E+02 -0.13534441110E+03  0.22650524957E+03  0.17195602107E+03 0.  0.
        -24    2    5    5    0    0 -0.52175933567E+02 -0.17130772566E+02 -0.16270194727E+03  0.19066819949E+03  0.82865235396E+02 0.  0.
          5    1    3    3  501    0 -0.32963226722E+02  0.52849333280E+02 -0.71198182392E+02  0.94714822071E+02  0.47000000000E+01 0. -1.
        -13    1    4    4    0    0  0.38653940093E+02 -0.22743105431E+02 -0.23413006304E+03  0.23838679147E+03  0.00000000000E+00 0.  1.
         14    1    4    4    0    0  0.38453581155E+02  0.82203496776E+01 -0.31392684240E+02  0.50316524882E+02  0.00000000000E+00 0. -1.
         -5    1    5    5    0  502  0.80316390412E+01 -0.21195804960E+02  0.27357536170E+02  0.35837050086E+02  0.47000000000E+01 0.  1.
         11    1    6    6    0    0  0.88688063283E+01  0.19824176387E+02 -0.72326782713E+02  0.75516999363E+02  0.00000000000E+00 0. -1.
        -12    1    6    6    0    0 -0.61044739895E+02 -0.36954948953E+02 -0.90375164559E+02  0.11515120012E+03  0.00000000000E+00 0.  1.
</event>
<event>
12    1  0.8563264E-002  0.1864914E+03  0.7818608E-02  0.1161862E+00
         21   -1    0    0  503  502  0.00000000000E+00  0.00000000000E+00  0.44417913696E+03  0.44417913696E+03  0.00000000000E+00 0.  1.
         21   -1    0    0  501  503 -0.00000000000E+00 -0.00000000000E+00 -0.19633278127E+03  0.19633278127E+03  0.00000000000E+00 0.  1.
          6    2    1    2  501    0 -0.71013594960E+02 -0.69446346336E+01 -0.12487941421E+03  0.22373435276E+03  0.17137979429E+03 0.  0.
         24    2    3    3    0    0 -0.11771554110E+01  0.51211683404E+02 -0.78799248469E+02  0.12173064061E+03  0.77362814666E+02 0.  0.
         -6    2    1    2    0  502  0.71013594960E+02  0.69446346336E+01  0.37272576990E+03  0.41677756547E+03  0.17230171478E+03 0.  0.
        -24    2    5    5    0    0  0.20995700749E+01 -0.93542397961E+00  0.31554669417E+03  0.32676215096E+03  0.84843997320E+02 0.  0.
          5    1    3    3  501    0 -0.69836439549E+02 -0.58156318037E+02 -0.46080165738E+02  0.10200371214E+03  0.47000000000E+01 0. -1.
        -13    1    4    4    0    0 -0.17831606610E+02  0.35255095622E+02 -0.88338735974E+02  0.96770967935E+02  0.00000000000E+00 0.  1.
         14    1    4    4    0    0  0.16654451199E+02  0.15956587782E+02  0.95394875050E+01  0.24959672679E+02  0.00000000000E+00 0. -1.
         -5    1    5    5    0  502  0.68914024885E+02  0.78800586132E+01  0.57179075724E+02  0.90015414515E+02  0.47000000000E+01 0.  1.
         13    1    6    6    0    0 -0.34338916750E+02 -0.19509677792E+01  0.24452297348E+03  0.24693005496E+03  0.00000000000E+00 0. -1.
        -14    1    6    6    0    0  0.36438486825E+02  0.10155437995E+01  0.71023720691E+02  0.79832096003E+02  0.00000000000E+00 0.  1.
</event>
<event>
12    1  0.8563264E-002  0.1788075E+03  0.7818608E-02  0.1169221E+00
         21   -1    0    0  503  502  0.00000000000E+00  0.00000000000E+00  0.93783980158E+02  0.93783980158E+02  0.00000000000E+00 0. -1.
         21   -1    0    0  501  503 -0.00000000000E+00 -0.00000000000E+00 -0.37491920046E+03  0.37491920046E+03  0.00000000000E+00 0. -1.
          6    2    1    2  501    0  0.43301075351E+02  0.27156336998E+01 -0.21282764499E+03  0.27729248109E+03  0.17237504403E+03 0.  0.
         24    2    3    3    0    0  0.13278480711E+02  0.46981456662E+02 -0.20237360602E+03  0.22259151033E+03  0.78792948515E+02 0.  0.
         -6    2    1    2    0  502 -0.43301075351E+02 -0.27156336998E+01 -0.68307575311E+02  0.19141069953E+03  0.17346404024E+03 0.  0.
        -24    2    5    5    0    0 -0.23417409899E+02  0.66979054786E+02 -0.45683095532E+02  0.11534055532E+03  0.78625247963E+02 0.  0.
          5    1    3    3  501    0  0.30022594639E+02 -0.44265822962E+02 -0.10454038969E+02  0.54700970761E+02  0.47000000000E+01 0. -1.
        -11    1    4    4    0    0 -0.20026213827E+02  0.16489237872E+01 -0.10560063105E+02  0.22699848517E+02  0.00000000000E+00 0.  1.
         12    1    4    4    0    0  0.33304694539E+02  0.45332532875E+02 -0.19181354291E+03  0.19989166181E+03  0.00000000000E+00 0. -1.
         -5    1    5    5    0  502 -0.19883665452E+02 -0.69694688486E+02 -0.22624479779E+02  0.76070144211E+02  0.47000000000E+01 0.  1.
         13    1    6    6    0    0 -0.82224748581E+01  0.13561175500E+02 -0.56566158433E+02  0.58747296564E+02  0.00000000000E+00 0. -1.
        -14    1    6    6    0    0 -0.15194935041E+02  0.53417879286E+02  0.10883062901E+02  0.56593258755E+02  0.00000000000E+00 0.  1.
</event>
<event>
12    1  0.8563264E-002  0.1984317E+03  0.7818608E-02  0.1152058E+00
         21   -1    0    0  503  502  0.00000000000E+00  0.00000000000E+00  0.34562880833E+02  0.34562880833E+02  0.00000000000E+00 0. -1.
         21   -1    0    0  501  503 -0.00000000000E+00 -0.00000000000E+00 -0.13247872534E+04  0.13247872534E+04  0.00000000000E+00 0. -1.
          6    2    1    2  501    0 -0.87183904351E+02 -0.44767722125E+02 -0.36708489401E+03  0.41512470857E+03  0.16724838455E+03 0.  0.
         24    2    3    3    0    0 -0.44604130277E+02  0.32842296776E+02 -0.13210491859E+03  0.16397927054E+03  0.79808187277E+02 0.  0.
         -6    2    1    2    0  502  0.87183904351E+02  0.44767722125E+02 -0.92313947853E+03  0.94422542564E+03  0.17253977940E+03 0.  0.
        -24    2    5    5    0    0  0.12598772126E+03  0.16457308340E+02 -0.74455874630E+03  0.75923790266E+03  0.77011150026E+02 0.  0.
          5    1    3    3  501    0 -0.42579774073E+02 -0.77610018902E+02 -0.23497997543E+03  0.25114543803E+03  0.47000000000E+01 0. -1.
        -13    1    4    4    0    0  0.46953153407E+00 -0.11760565004E+02  0.51016672573E+01  0.12828030164E+02  0.00000000000E+00 0.  1.
         14    1    4    4    0    0 -0.45073661812E+02  0.44602861780E+02 -0.13720658584E+03  0.15115124037E+03  0.00000000000E+00 0. -1.
         -5    1    5    5    0  502 -0.38803816908E+02  0.28310413785E+02 -0.17858073223E+03  0.18498752298E+03  0.47000000000E+01 0.  1.
         13    1    6    6    0    0  0.37458723898E+02  0.23495008578E+02 -0.11096403167E+03  0.11944951967E+03  0.00000000000E+00 0. -1.
        -14    1    6    6    0    0  0.88528997361E+02 -0.70377002377E+01 -0.63359471463E+03  0.63978838299E+03  0.00000000000E+00 0.  1.
</event>
<event>
12    1  0.8563264E-002  0.2921268E+03  0.7818608E-02  0.1089542E+00
         21   -1    0    0  503  502  0.00000000000E+00  0.00000000000E+00  0.81366931198E+03  0.81366931198E+03  0.00000000000E+00 0. -1.
         21   -1    0    0  501  503 -0.00000000000E+00 -0.00000000000E+00 -0.10418283929E+03  0.10418283929E+03  0.00000000000E+00 0.  1.
          6    2    1    2  501    0 -0.15194634907E+03  0.17718725777E+03  0.36921734681E+03  0.46938680939E+03  0.17181242775E+03 0.  0.
         24    2    3    3    0    0 -0.18026042750E+03  0.13904255772E+03  0.29653237669E+03  0.38242762321E+03  0.80577800874E+02 0.  0.
         -6    2    1    2    0  502  0.15194634907E+03 -0.17718725777E+03  0.34026912588E+03  0.44846534188E+03  0.17565610587E+03 0.  0.
        -24    2    5    5    0    0  0.30009061077E+02 -0.11539282217E+03  0.19831239501E+03  0.25133325948E+03  0.98104812056E+02 0.  0.
          5    1    3    3  501    0  0.28314078424E+02  0.38144700042E+02  0.72684970122E+02  0.86959186173E+02  0.47000000000E+01 0. -1.
        -13    1    4    4    0    0 -0.10738861053E+02 -0.83247025308E+01  0.35745919947E+02  0.38241268308E+02  0.00000000000E+00 0.  1.
         14    1    4    4    0    0 -0.16952156644E+03  0.14736726026E+03  0.26078645674E+03  0.34418635491E+03  0.00000000000E+00 0. -1.
         -5    1    5    5    0  502  0.12193728800E+03 -0.61794435591E+02  0.14195673087E+03  0.19713208240E+03  0.47000000000E+01 0.  1.
         13    1    6    6    0    0  0.64558612421E+01 -0.16087217890E+02  0.12369822390E+03  0.12490687459E+03  0.00000000000E+00 0. -1.
        -14    1    6    6    0    0  0.23553199834E+02 -0.99305604285E+02  0.74614171106E+02  0.12642638488E+03  0.00000000000E+00 0.  1.
</event>
<event>
12    1  0.8563264E-002  0.4599316E+03  0.7818608E-02  0.1025020E+00
         21   -1    0    0  503  502  0.00000000000E+00  0.00000000000E+00  0.18767931756E+04  0.18767931756E+04  0.00000000000E+00 0. -1.
         21   -1    0    0  501  503 -0.00000000000E+00 -0.00000000000E+00 -0.11643462731E+03  0.11643462731E+03  0.00000000000E+00 0.  1.
          6    2    1    2  501    0  0.35809464549E+03  0.22801430195E+03  0.68790376374E+03  0.82749539639E+03  0.17695972947E+03 0.  0.
         24    2    3    3    0    0  0.16979503739E+03  0.38948695387E+02  0.32031022009E+03  0.37323814622E+03  0.79754129088E+02 0.  0.
         -6    2    1    2    0  502 -0.35809464549E+03 -0.22801430195E+03  0.10724547845E+04  0.11657324065E+04  0.16896887781E+03 0.  0.
        -24    2    5    5    0    0 -0.20098441924E+03 -0.10817729073E+03  0.44332947243E+03  0.50628924687E+03  0.87696735195E+02 0.  0.
          5    1    3    3  501    0  0.18829960810E+03  0.18906560657E+03  0.36759354366E+03  0.45425725017E+03  0.47000000000E+01 0. -1.
        -13    1    4    4    0    0  0.37765762886E+02 -0.23634213394E+02  0.60089204868E+02  0.74803351735E+02  0.00000000000E+00 0.  1.
         14    1    4    4    0    0  0.13202927450E+03  0.62582908781E+02  0.26022101522E+03  0.29843479448E+03  0.00000000000E+00 0. -1.
         -5    1    5    5    0  502 -0.15711022625E+03 -0.11983701122E+03  0.62912531210E+03  0.65944315963E+03  0.47000000000E+01 0.  1.
         11    1    6    6    0    0 -0.85002187584E+01  0.44704611773E+01  0.75647281027E+02  0.76254507203E+02  0.00000000000E+00 0. -1.
        -12    1    6    6    0    0 -0.19248420048E+03 -0.11264775191E+03  0.36768219140E+03  0.43003473966E+03  0.00000000000E+00 0.  1.
</event>
<event>
12    1  0.8563264E-002  0.2193672E+03  0.7818608E-02  0.1134673E+00
         21   -1    0    0  503  502  0.00000000000E+00  0.00000000000E+00  0.48458322800E+03  0.48458322800E+03  0.00000000000E+00 0. -1.
         21   -1    0    0  501  503 -0.00000000000E+00 -0.00000000000E+00 -0.98555329149E+02  0.98555329149E+02  0.00000000000E+00 0.  1.
          6    2    1    2  501    0 -0.96196540592E+02 -0.92166655034E+02  0.19041979016E+03  0.29048519510E+03  0.17427990522E+03 0.  0.
         24    2    3    3    0    0 -0.48841742031E+02 -0.10127895040E+03  0.58244200749E+02  0.14970882169E+03  0.79858642686E+02 0.  0.
         -6    2    1    2    0  502  0.96196540592E+02  0.92166655034E+02  0.19560810869E+03  0.29265336205E+03  0.17214816703E+03 0.  0.
        -24    2    5    5    0    0  0.10389836318E+03  0.11976946176E+03  0.19471707074E+03  0.26359967108E+03  0.80190118565E+02 0.  0.
          5    1    3    3  501    0 -0.47354798560E+02  0.91122953678E+01  0.13217558941E+03  0.14077637341E+03  0.47000000000E+01 0. -1.
        -11    1    4    4    0    0 -0.78396865872E+01 -0.95325054843E+02  0.48064579832E+02  0.10704452625E+03  0.00000000000E+00 0.  1.
         12    1    4    4    0    0 -0.41002055444E+02 -0.59538955586E+01  0.10179620917E+02  0.42664295435E+02  0.00000000000E+00 0. -1.
         -5    1    5    5    0  502 -0.77018225890E+01 -0.27602806724E+02  0.89103794740E+00  0.29053690967E+02  0.47000000000E+01 0.  1.
         11    1    6    6    0    0  0.21491272146E+02  0.38325727829E+02  0.11460079517E+03  0.12273580751E+03  0.00000000000E+00 0. -1.
        -12    1    6    6    0    0  0.82407091034E+02  0.81443733929E+02  0.80116275576E+02  0.14086386357E+03  0.00000000000E+00 0.  1.
</event>
<event>
12    1  0.8563264E-002  0.1841776E+03  0.7818608E-02  0.1164260E+00
         21   -1    0    0  503  502  0.00000000000E+00  0.00000000000E+00  0.12748592233E+03  0.12748592233E+03  0.00000000000E+00 0. -1.
         21   -1    0    0  501  503 -0.00000000000E+00 -0.00000000000E+00 -0.51079473752E+03  0.51079473752E+03  0.00000000000E+00 0. -1.
          6    2    1    2  501    0 -0.29940419103E+02  0.54040767243E+02 -0.41426029771E+03  0.45335744760E+03  0.17350662184E+03 0.  0.
         24    2    3    3    0    0 -0.45431736654E+02  0.98532127131E+02 -0.33373926931E+03  0.35994873261E+03  0.80053528652E+02 0.  0.
         -6    2    1    2    0  502  0.29940419103E+02 -0.54040767243E+02  0.30951482513E+02  0.18492321225E+03  0.17152774393E+03 0.  0.
        -24    2    5    5    0    0  0.54360336111E+02 -0.80305877835E+02  0.57743722278E+02  0.13991096399E+03  0.82684098991E+02 0.  0.
          5    1    3    3  501    0  0.15491317551E+02 -0.44491359888E+02 -0.80521028391E+02  0.93408714996E+02  0.47000000000E+01 0. -1.
        -11    1    4    4    0    0 -0.12581721417E+02  0.24555549175E+02 -0.15645970742E+02  0.31718624018E+02  0.00000000000E+00 0.  1.
         12    1    4    4    0    0 -0.32850015237E+02  0.73976577956E+02 -0.31809329857E+03  0.32823010859E+03  0.00000000000E+00 0. -1.
         -5    1    5    5    0  502 -0.24419917008E+02  0.26265110592E+02 -0.26792239766E+02  0.45012248253E+02  0.47000000000E+01 0.  1.
         13    1    6    6    0    0  0.10307855735E+02 -0.77655955354E+02  0.17683015884E+02  0.80308083918E+02  0.00000000000E+00 0. -1.
        -14    1    6    6    0    0  0.44052480376E+02 -0.26499224808E+01  0.40060706394E+02  0.59602880075E+02  0.00000000000E+00 0.  1.
</event>
<event>
12    1  0.8563264E-002  0.2142444E+03  0.7818608E-02  0.1138550E+00
         21   -1    0    0  501  502  0.00000000000E+00  0.00000000000E+00  0.19488345228E+03  0.19488345228E+03  0.00000000000E+00 0. -1.
         21   -1    0    0  502  503 -0.00000000000E+00 -0.00000000000E+00 -0.35608685174E+03  0.35608685174E+03  0.00000000000E+00 0.  1.
         -6    2    1    2    0  503 -0.64711240242E+02  0.10726812731E+03 -0.24183543341E+03  0.32205506431E+03  0.17187522174E+03 0.  0.
        -24    2    3    3    0    0 -0.19088788808E+02 -0.12021598267E+02 -0.70157716592E+02  0.10802989020E+03  0.78990197468E+02 0.  0.
          6    2    1    2  501    0  0.64711240242E+02 -0.10726812731E+03  0.80632033946E+02  0.22891523970E+03  0.17380065109E+03 0.  0.
         24    2    5    5    0    0  0.27217827454E+02 -0.61018628338E+02 -0.26862867497E+02  0.10594363325E+03  0.77706863534E+02 0.  0.
          5    1    5    5  501    0  0.37493412788E+02 -0.46249498970E+02  0.10749490144E+03  0.12297160645E+03  0.47000000000E+01 0. -1.
        -13    1    6    6    0    0  0.29603105390E+02  0.53527051251E+01 -0.25625599504E+02  0.39517928220E+02  0.00000000000E+00 0.  1.
         14    1    6    6    0    0 -0.23852779360E+01 -0.66371333463E+02 -0.12372679933E+01  0.66425705029E+02  0.00000000000E+00 0. -1.
         -5    1    3    3    0  503 -0.45622451434E+02  0.11928972557E+03 -0.17167771682E+03  0.21402517411E+03  0.47000000000E+01 0.  1.
         11    1    4    4    0    0 -0.23922568030E+02  0.30458102862E+02 -0.26524258836E+02  0.46941682947E+02  0.00000000000E+00 0. -1.
        -12    1    4    4    0    0  0.48337792221E+01 -0.42479701129E+02 -0.43633457757E+02  0.61088207253E+02  0.00000000000E+00 0.  1.
</event>
<event>
12    1  0.8563264E-002  0.2388597E+03  0.7818608E-02  0.1120672E+00
         21   -1    0    0  503  502  0.00000000000E+00  0.00000000000E+00  0.88709665889E+03  0.88709665889E+03  0.00000000000E+00 0. -1.
         21   -1    0    0  501  503 -0.00000000000E+00 -0.00000000000E+00 -0.84129103267E+02  0.84129103267E+02  0.00000000000E+00 0.  1.
          6    2    1    2  501    0  0.51677744370E+02 -0.15742016166E+03  0.16514668198E+03  0.29039176569E+03  0.17205305709E+03 0.  0.
         24    2    3    3    0    0  0.41586225173E+02 -0.17713600416E+03  0.17619401404E+03  0.26519877558E+03  0.78609680647E+02 0.  0.
         -6    2    1    2    0  502 -0.51677744370E+02  0.15742016166E+03  0.63782087364E+03  0.68083399647E+03  0.17107824913E+03 0.  0.
        -24    2    5    5    0    0  0.30517717541E+02  0.69485522433E+02  0.39308564399E+03  0.40805933238E+03  0.78971680476E+02 0.  0.
          5    1    3    3  501    0  0.10091519197E+02  0.19715842500E+02 -0.11047332060E+02  0.25192990113E+02  0.47000000000E+01 0. -1.
        -11    1    4    4    0    0  0.39221146510E+02 -0.44324532695E+02  0.25862856813E+02  0.64589859070E+02  0.00000000000E+00 0.  1.
         12    1    4    4    0    0  0.23650786626E+01 -0.13281147147E+03  0.15033115723E+03  0.20060891651E+03  0.00000000000E+00 0. -1.
         -5    1    5    5    0  502 -0.82195461910E+02  0.87934639229E+02  0.24473522965E+03  0.27277466409E+03  0.47000000000E+01 0.  1.
         11    1    6    6    0    0  0.36212920453E+02  0.34144930948E+02  0.34245175599E+03  0.34604978991E+03  0.00000000000E+00 0. -1.
        -12    1    6    6    0    0 -0.56952029124E+01  0.35340591485E+02  0.50633887999E+02  0.62009542464E+02  0.00000000000E+00 0.  1.
</event>
<event>
12    1  0.8563264E-002  0.1911717E+03  0.7818608E-02  0.1157830E+00
         21   -1    0    0  503  502  0.00000000000E+00  0.00000000000E+00  0.31707187121E+03  0.31707187121E+03  0.00000000000E+00 0.  1.
         21   -1    0    0  501  503 -0.00000000000E+00 -0.00000000000E+00 -0.11667056775E+03  0.11667056775E+03  0.00000000000E+00 0.  1.
          6    2    1    2  501    0 -0.75624877223E+02  0.31943839839E+02  0.67746377923E+02  0.20105390930E+03  0.17056837856E+03 0.  0.
         24    2    3    3    0    0 -0.37132952131E+02  0.68880813045E+02  0.89673962973E+02  0.14318442449E+03  0.79604882013E+02 0.  0.
         -6    2    1    2    0  502  0.75624877223E+02 -0.31943839839E+02  0.13265492554E+03  0.23268852966E+03  0.17264730408E+03 0.  0.
        -24    2    5    5    0    0  0.67569622378E+02 -0.83258731275E+02  0.68284582925E+02  0.14984086088E+03  0.79321050936E+02 0.  0.
          5    1    3    3  501    0 -0.38491925092E+02 -0.36936973205E+02 -0.21927585050E+02  0.57869484817E+02  0.47000000000E+01 0. -1.
        -13    1    4    4    0    0  0.87551904616E+01  0.26451967427E+02 -0.63836484381E+01  0.28585151883E+02  0.00000000000E+00 0.  1.
         14    1    4    4    0    0 -0.45888142593E+02  0.42428845617E+02  0.96057611412E+02  0.11459927260E+03  0.00000000000E+00 0. -1.
         -5    1    5    5    0  502  0.80552548448E+01  0.51314891435E+02  0.64370342617E+02  0.82847668779E+02  0.47000000000E+01 0.  1.
         13    1    6    6    0    0  0.39271547068E+01  0.29313258869E+01 -0.13945881258E+02  0.14781840874E+02  0.00000000000E+00 0. -1.
        -14    1    6    6    0    0  0.63642467672E+02 -0.86190057161E+02  0.82230464183E+02  0.13505902000E+03  0.00000000000E+00 0.  1.
</event>
<event>
12    1  0.8563264E-002  0.1936880E+03  0.7818608E-02  0.1158690E+00
         21   -1    0    0  501  502  0.00000000000E+00  0.00000000000E+00  0.13055339731E+03  0.13055339731E+03  0.00000000000E+00 0. -1.
         21   -1    0    0  502  503 -0.00000000000E+00 -0.00000000000E+00 -0.31598470864E+03  0.31598470864E+03  0.00000000000E+00 0. -1.
         -6    2    1    2    0  503  0.33524403288E+02 -0.39780378054E+02 -0.18542814575E+03  0.26813918390E+03  0.18657079249E+03 0.  0.
        -24    2    3    3    0    0 -0.14685960347E+02 -0.90426672227E+02 -0.13660733800E+03  0.18272930423E+03  0.79597571245E+02 0.  0.
          6    2    1    2  501    0 -0.33524403288E+02  0.39780378054E+02 -0.31655746661E-02  0.17839892205E+03  0.17064527912E+03 0.  0.
         24    2    5    5    0    0 -0.36034799729E+02 -0.37709988318E+02  0.18491227980E+02  0.98554125332E+02  0.81550230516E+02 0.  0.
          5    1    5    5  501    0  0.25103964406E+01  0.77490366372E+02 -0.18494393555E+02  0.79844796722E+02  0.47000000000E+01 0. -1.
        -13    1    6    6    0    0 -0.78102461041E+01 -0.10836133716E+02 -0.32055856936E+02  0.34727506418E+02  0.00000000000E+00 0.  1.
         14    1    6    6    0    0 -0.28224553625E+02 -0.26873854602E+02  0.50547084916E+02  0.63826618914E+02  0.00000000000E+00 0. -1.
         -5    1    3    3    0  503  0.48210363635E+02  0.50646294173E+02 -0.48820807753E+02  0.85409879668E+02  0.47000000000E+01 0.  1.
         13    1    4    4    0    0 -0.67788383161E+01 -0.80288260723E+02 -0.49256019334E+02  0.94436819618E+02  0.00000000000E+00 0. -1.
        -14    1    4    4    0    0 -0.79071220312E+01 -0.10138411504E+02 -0.87351318665E+02  0.88292484613E+02  0.00000000000E+00 0.  1.
</event>
<event>
12    1  0.8563264E-002  0.2156049E+03  0.7818608E-02  0.1138320E+00
         21   -1    0    0  501  502  0.00000000000E+00  0.00000000000E+00  0.22688902462E+03  0.22688902462E+03  0.00000000000E+00 0. -1.
         21   -1    0    0  502  503 -0.00000000000E+00 -0.00000000000E+00 -0.30027102873E+03  0.30027102873E+03  0.00000000000E+00 0. -1.
         -6    2    1    2    0  503  0.11607744927E+03 -0.35710411678E+02 -0.18908522589E+03  0.28247101272E+03  0.17113574334E+03 0.  0.
        -24    2    3    3    0    0  0.34545449089E+02 -0.62098889667E+02 -0.15823772221E+03  0.19127080819E+03  0.80595813689E+02 0.  0.
          6    2    1    2  501    0 -0.11607744927E+03  0.35710411678E+02  0.11570322178E+03  0.24468904062E+03  0.17814680277E+03 0.  0.
         24    2    5    5    0    0 -0.43889168668E+02  0.85129125305E+02  0.46332530980E+02  0.13294048423E+03  0.79707225639E+02 0.  0.
          5    1    5    5  501    0 -0.72188280601E+02 -0.49418713626E+02  0.69370690800E+02  0.11174855639E+03  0.47000000000E+01 0. -1.
        -13    1    6    6    0    0 -0.82451671346E+01 -0.33508967176E+01  0.35894365741E+02  0.36981303139E+02  0.00000000000E+00 0.  1.
         14    1    6    6    0    0 -0.35644001533E+02  0.88480022022E+02  0.10438165239E+02  0.95959181092E+02  0.00000000000E+00 0. -1.
         -5    1    3    3    0  503  0.81532000180E+02  0.26388477989E+02 -0.30847503679E+02  0.91200204534E+02  0.47000000000E+01 0.  1.
         13    1    4    4    0    0 -0.17201879029E+02 -0.22526354578E+02 -0.99833534887E+02  0.10377897658E+03  0.00000000000E+00 0. -1.
        -14    1    4    4    0    0  0.51747328118E+02 -0.39572535090E+02 -0.58404187324E+02  0.87491831606E+02  0.00000000000E+00 0.  1.
</event>
<event>
12    1  0.8563264E-002  0.1872094E+03  0.7818608E-02  0.1161270E+00
         21   -1    0    0  503  502  0.00000000000E+00  0.00000000000E+00  0.26395134900E+03  0.26395134900E+03  0.00000000000E+00 0. -1.
         21   -1    0    0  501  503 -0.00000000000E+00 -0.00000000000E+00 -0.13226516253E+03  0.13226516253E+03  0.00000000000E+00 0. -1.
          6    2    1    2  501    0 -0.48131552257E+01 -0.73167843016E+02  0.56488286555E+02  0.19554614270E+03  0.17225175672E+03 0.  0.
         24    2    3    3    0    0  0.48942578039E+02 -0.29303688140E+02  0.75379085438E+02  0.12348578450E+03  0.79452189193E+02 0.  0.
         -6    2    1    2    0  502  0.48131552257E+01  0.73167843016E+02  0.75197899912E+02  0.20067036882E+03  0.17098880974E+03 0.  0.
        -24    2    5    5    0    0  0.86224260477E+01  0.11540068697E+03  0.69984790304E+02  0.15768909192E+03  0.81094476079E+02 0.  0.
          5    1    3    3  501    0 -0.53755733265E+02 -0.43864154876E+02 -0.18890798883E+02  0.72060358202E+02  0.47000000000E+01 0. -1.
        -11    1    4    4    0    0 -0.14958541452E+02  0.12981815843E+02  0.76964504564E+01  0.21249020085E+02  0.00000000000E+00 0.  1.
         12    1    4    4    0    0  0.63901119491E+02 -0.42285503984E+02  0.67682634982E+02  0.10223676441E+03  0.00000000000E+00 0. -1.
         -5    1    5    5    0  502 -0.38092708221E+01 -0.42232843957E+02  0.52131096085E+01  0.42981276908E+02  0.47000000000E+01 0.  1.
         13    1    6    6    0    0  0.38064552667E+02  0.26551895860E+02  0.13364492116E+02  0.48296200607E+02  0.00000000000E+00 0. -1.
        -14    1    6    6    0    0 -0.29442126619E+02  0.88848791112E+02  0.56620298188E+02  0.10939289131E+03  0.00000000000E+00 0.  1.
</event>
<event>
12    1  0.8563264E-002  0.2438498E+03  0.7818608E-02  0.1117384E+00
         21   -1    0    0  501  502  0.00000000000E+00  0.00000000000E+00  0.18606794028E+04  0.18606794028E+04  0.00000000000E+00 0.  1.
         21   -1    0    0  502  503 -0.00000000000E+00 -0.00000000000E+00 -0.56759409792E+02  0.56759409792E+02  0.00000000000E+00 0.  1.
         -6    2    1    2    0  503 -0.11407343400E+03  0.12855362613E+03  0.26606293297E+03  0.36036878286E+03  0.17186445886E+03 0.  0.
        -24    2    3    3    0    0 -0.13040460504E+03  0.85748447999E+02  0.13468840845E+03  0.22115547130E+03  0.80066333526E+02 0.  0.
          6    2    1    2  501    0  0.11407343400E+03 -0.12855362613E+03  0.15378570600E+04  0.15570700297E+04  0.17298542500E+03 0.  0.
         24    2    5    5    0    0  0.11485461311E+03 -0.15420073077E+03  0.13281278299E+04  0.13457247573E+04  0.10040987138E+03 0.  0.
          5    1    5    5  501    0 -0.78117911285E+00  0.25647104639E+02  0.20972923015E+03  0.21134527247E+03  0.47000000000E+01 0. -1.
        -13    1    6    6    0    0  0.22687833134E+02 -0.11376976264E+03  0.74384002625E+03  0.75283217340E+03  0.00000000000E+00 0.  1.
         14    1    6    6    0    0  0.92166779981E+02 -0.40430968130E+02  0.58428780364E+03  0.59289258386E+03  0.00000000000E+00 0. -1.
         -5    1    3    3    0  503  0.16331171037E+02  0.42805178130E+02  0.13137452452E+03  0.13921331156E+03  0.47000000000E+01 0.  1.
         13    1    4    4    0    0  0.10120052539E+02  0.33035573108E+01  0.17423597523E+02  0.20418391340E+02  0.00000000000E+00 0. -1.
        -14    1    4    4    0    0 -0.14052465758E+03  0.82444890688E+02  0.11726481093E+03  0.20073707996E+03  0.00000000000E+00 0.  1.
</event>
<event>
12    1  0.8563264E-002  0.1948582E+03  0.7818608E-02  0.1154656E+00
         21   -1    0    0  503  502  0.00000000000E+00  0.00000000000E+00  0.60067279373E+03  0.60067279373E+03  0.00000000000E+00 0.  1.
         21   -1    0    0  501  503 -0.00000000000E+00 -0.00000000000E+00 -0.63448152327E+02  0.63448152327E+02  0.00000000000E+00 0.  1.
          6    2    1    2  501    0  0.30895519478E+02 -0.85996553148E+02  0.22892242735E+03  0.30062467699E+03  0.17210397553E+03 0.  0.
         24    2    3    3    0    0  0.30294676419E+01 -0.12334184610E+03  0.16021514380E+03  0.21747440000E+03  0.80023956918E+02 0.  0.
         -6    2    1    2    0  502 -0.30895519478E+02  0.85996553148E+02  0.30830221405E+03  0.36349626907E+03  0.16949732198E+03 0.  0.
        -24    2    5    5    0    0 -0.17201416253E+02  0.58538234355E+02  0.31767104604E+03  0.33107169896E+03  0.70505054830E+02 0.  0.
          5    1    3    3  501    0  0.27866051836E+02  0.37345292948E+02  0.68707283552E+02  0.83150276989E+02  0.47000000000E+01 0. -1.
        -13    1    4    4    0    0 -0.63430042413E+01  0.94674563932E+01  0.26177711352E+02  0.28550639310E+02  0.00000000000E+00 0.  1.
         14    1    4    4    0    0  0.93724718832E+01 -0.13280930249E+03  0.13403743245E+03  0.18892376069E+03  0.00000000000E+00 0. -1.
         -5    1    5    5    0  502 -0.13694103225E+02  0.27458318792E+02 -0.93688319858E+01  0.32424570110E+02  0.47000000000E+01 0.  1.
         11    1    6    6    0    0 -0.23098324621E+02  0.24503684685E+02  0.27059720336E+03  0.27268445066E+03  0.00000000000E+00 0. -1.
        -12    1    6    6    0    0  0.58969083680E+01  0.34034549671E+02  0.47073842677E+02  0.58387248299E+02  0.00000000000E+00 0.  1.
</event>
<event>
12    1  0.8563264E-002  0.1911704E+03  0.7818608E-02  0.1157615E+00
         21   -1    0    0  503  502  0.00000000000E+00  0.00000000000E+00  0.10136914194E+03  0.10136914194E+03  0.00000000000E+00 0.  1.
         21   -1    0    0  501  503 -0.00000000000E+00 -0.00000000000E+00 -0.35904675463E+03  0.35904675463E+03  0.00000000000E+00 0. -1.
          6    2    1    2  501    0  0.84111516962E+02 -0.16567462896E+01 -0.12248810114E+03  0.22627422383E+03  0.17064348026E+03 0.  0.
         24    2    3    3    0    0 -0.10086033310E+02  0.26150846099E+02 -0.84182500906E+02  0.12074768839E+03  0.81900646969E+02 0.  0.
         -6    2    1    2    0  502 -0.84111516962E+02  0.16567462896E+01 -0.13518951155E+03  0.23414167274E+03  0.17166428512E+03 0.  0.
        -24    2    5    5    0    0  0.25452179841E+02 -0.27911395557E+00 -0.47749826135E+02  0.93871434277E+02  0.76706641917E+02 0.  0.
          5    1    3    3  501    0  0.94197550273E+02 -0.27807592389E+02 -0.38305600233E+02  0.10552653544E+03  0.47000000000E+01 0. -1.
        -13    1    4    4    0    0 -0.40659265269E+02  0.30675062473E+02 -0.32157275103E+02  0.60234754519E+02  0.00000000000E+00 0.  1.
         14    1    4    4    0    0  0.30573231959E+02 -0.45242163731E+01 -0.52025225803E+02  0.60512933874E+02  0.00000000000E+00 0. -1.
         -5    1    5    5    0  502 -0.10956369680E+03  0.19358602452E+01 -0.87439685416E+02  0.14027023846E+03  0.47000000000E+01 0.  1.
         11    1    6    6    0    0 -0.76728524532E+01  0.23207216333E+02 -0.47323177491E+02  0.53262845235E+02  0.00000000000E+00 0. -1.
        -12    1    6    6    0    0  0.33125032294E+02 -0.23486330289E+02 -0.42664864400E+00  0.40608589042E+02  0.00000000000E+00 0.  1.
</event>
<event>
12    1  0.8563264E-002  0.2378262E+03  0.7818608E-02  0.1121409E+00
         21   -1    0    0  503  502  0.00000000000E+00  0.00000000000E+00  0.22703882841E+02  0.22703882841E+02  0.00000000000E+00 0.  1.
         21   -1    0    0  501  503 -0.00000000000E+00 -0.00000000000E+00 -0.25760997414E+04  0.25760997414E+04  0.00000000000E+00 0. -1.
          6    2    1    2  501    0 -0.81134993709E+02  0.14037479544E+03 -0.15283581304E+04  0.15467513925E+04  0.17399231301E+03 0.  0.
         24    2    3    3    0    0 -0.43111269149E+02  0.14123822056E+02 -0.36761175062E+03  0.37853079684E+03  0.78032692416E+02 0.  0.
         -6    2    1    2    0  502  0.81134993709E+02 -0.14037479544E+03 -0.10250377282E+04  0.10520522318E+04  0.17269506015E+03 0.  0.
        -24    2    5    5    0    0  0.42111916398E+02 -0.12328029624E+03 -0.44292303987E+03  0.46836171206E+03  0.78806275962E+02 0.  0.
          5    1    3    3  501    0 -0.38023724560E+02  0.12625097338E+03 -0.11607463798E+04  0.11682205956E+04  0.47000000000E+01 0. -1.
        -11    1    4    4    0    0  0.16433644417E+02  0.13113637594E+01 -0.21460065708E+02  0.27061388803E+02  0.00000000000E+00 0.  1.
         12    1    4    4    0    0 -0.59544913566E+02  0.12812458296E+02 -0.34615168491E+03  0.35146940804E+03  0.00000000000E+00 0. -1.
         -5    1    5    5    0  502  0.39023077311E+02 -0.17094499195E+02 -0.58211468829E+03  0.58369051970E+03  0.47000000000E+01 0.  1.
         11    1    6    6    0    0  0.98398871824E+01 -0.87521463202E+02 -0.37429094093E+03  0.38451337865E+03  0.00000000000E+00 0. -1.
        -12    1    6    6    0    0  0.32272029216E+02 -0.35758833039E+02 -0.68632098938E+02  0.83848333404E+02  0.00000000000E+00 0.  1.
</event>
<event>
12    1  0.8563264E-002  0.1740349E+03  0.7818608E-02  0.1174022E+00
         21   -1    0    0  503  502  0.00000000000E+00  0.00000000000E+00  0.12777589303E+03  0.12777589303E+03  0.00000000000E+00 0.  1.
         21   -1    0    0  501  503 -0.00000000000E+00 -0.00000000000E+00 -0.26970000698E+03  0.26970000698E+03  0.00000000000E+00 0.  1.
          6    2    1    2  501    0 -0.12598663735E+02 -0.15577958905E+02 -0.14212113394E+03  0.22469216496E+03  0.17287785616E+03 0.  0.
         24    2    3    3    0    0 -0.22657961469E+02 -0.52173396588E+02 -0.20449522738E+02  0.97152028130E+02  0.76058445028E+02 0.  0.
         -6    2    1    2    0  502  0.12598663735E+02  0.15577958905E+02  0.19701999982E+00  0.17278373505E+03  0.17161812593E+03 0.  0.
        -24    2    5    5    0    0 -0.28720500082E+01  0.73257032463E+02 -0.29144481650E+02  0.10608116966E+03  0.70915247089E+02 0.  0.
          5    1    3    3  501    0  0.10059297735E+02  0.36595437683E+02 -0.12167161121E+03  0.12754013683E+03  0.47000000000E+01 0. -1.
        -13    1    4    4    0    0 -0.17288061371E+02 -0.13542723425E+02 -0.45690917333E+02  0.50694598830E+02  0.00000000000E+00 0.  1.
         14    1    4    4    0    0 -0.53699000985E+01 -0.38630673163E+02  0.25241394595E+02  0.46457429301E+02  0.00000000000E+00 0. -1.
         -5    1    5    5    0  502  0.15470713743E+02 -0.57679073557E+02  0.29341501649E+02  0.66702565387E+02  0.47000000000E+01 0.  1.
         13    1    6    6    0    0 -0.32979886965E+02  0.61132610006E+02 -0.21816799371E+02  0.72806879381E+02  0.00000000000E+00 0. -1.
        -14    1    6    6    0    0  0.30107836957E+02  0.12124422457E+02 -0.73276822781E+01  0.33274290281E+02  0.00000000000E+00 0.  1.
</event>
<event>
12    1  0.8563264E-002  0.1873481E+03  0.7818608E-02  0.1161158E+00
         21   -1    0    0  503  502  0.00000000000E+00  0.00000000000E+00  0.14612850059E+03  0.14612850059E+03  0.00000000000E+00 0.  1.
         21   -1    0    0  501  503 -0.00000000000E+00 -0.00000000000E+00 -0.28807042673E+03  0.28807042673E+03  0.00000000000E+00 0.  1.
          6    2    1    2  501    0 -0.43434936792E+02  0.57238548708E+02 -0.16072136714E+03  0.24591197491E+03  0.17169302944E+03 0.  0.
         24    2    3    3    0    0  0.32476163346E+02  0.14955955821E+01 -0.10042127786E+03  0.13398359283E+03  0.82524130473E+02 0.  0.
         -6    2    1    2    0  502  0.43434936792E+02 -0.57238548708E+02  0.18779440990E+02  0.18828695241E+03  0.17302157048E+03 0.  0.
        -24    2    5    5    0    0 -0.18255291001E+02 -0.29946364376E+02  0.61678343837E+02  0.10820603460E+03  0.81696312261E+02 0.  0.
          5    1    3    3  501    0 -0.75911100137E+02  0.55742953126E+02 -0.60300089279E+02  0.11192838208E+03  0.47000000000E+01 0. -1.
        -13    1    4    4    0    0 -0.19022387307E+02  0.23179015695E+01 -0.73321125416E+02  0.75783977982E+02  0.00000000000E+00 0.  1.
         14    1    4    4    0    0  0.51498550653E+02 -0.82230598742E+00 -0.27100152440E+02  0.58199614851E+02  0.00000000000E+00 0. -1.
         -5    1    5    5    0  502  0.61690227793E+02 -0.27292184332E+02 -0.42898902847E+02  0.80080917803E+02  0.47000000000E+01 0.  1.
         11    1    6    6    0    0  0.12716436723E+02  0.22797441266E+02  0.94044318868E+01  0.27746611150E+02  0.00000000000E+00 0. -1.
        -12    1    6    6    0    0 -0.30971727724E+02 -0.52743805642E+02  0.52273911950E+02  0.80459423453E+02  0.00000000000E+00 0.  1.
</event>
<event>
12    1  0.8563264E-002  0.1781958E+03  0.7818608E-02  0.1169569E+00
         21   -1    0    0  501  502  0.00000000000E+00  0.00000000000E+00  0.16770141274E+04  0.16770141274E+04  0.00000000000E+00 0.  1.
         21   -1    0    0  502  503 -0.00000000000E+00 -0.00000000000E+00 -0.15919277042E+03  0.15919277042E+03  0.00000000000E+00 0.  1.
         -6    2    1    2    0  503 -0.42377764330E+02 -0.24155698739E+02 -0.10286686751E+03  0.20575549644E+03  0.17138949558E+03 0.  0.
        -24    2    3    3    0    0  0.21922673857E+02 -0.43195285864E+02 -0.10297985868E+03  0.13853083582E+03  0.78990536328E+02 0.  0.
          6    2    1    2  501    0  0.42377764330E+02  0.24155698739E+02  0.16206882245E+04  0.16304514014E+04  0.17135366515E+03 0.  0.
         24    2    5    5    0    0 -0.30131434166E+02  0.47646070688E+02  0.10798609842E+04  0.10842595164E+04  0.79629782117E+02 0.  0.
          5    1    5    5  501    0  0.72509198496E+02 -0.23490371949E+02  0.54082724030E+03  0.54619188505E+03  0.47000000000E+01 0. -1.
        -13    1    6    6    0    0  0.44574228892E+01  0.60295087440E+02  0.63077180896E+03  0.63366271878E+03  0.00000000000E+00 0.  1.
         14    1    6    6    0    0 -0.34588857055E+02 -0.12649016752E+02  0.44908917527E+03  0.45059679759E+03  0.00000000000E+00 0. -1.
         -5    1    3    3    0  503 -0.64300438188E+02  0.19039587125E+02  0.11299117130E+00  0.67224660624E+02  0.47000000000E+01 0.  1.
         13    1    4    4    0    0 -0.39056913373E+01 -0.10616766634E+01  0.12383232620E+02  0.13027894392E+02  0.00000000000E+00 0. -1.
        -14    1    4    4    0    0  0.25828365195E+02 -0.42133609201E+02 -0.11536309130E+03  0.12550294143E+03  0.00000000000E+00 0.  1.
</event>
<event>
12    1  0.8563264E-002  0.2178725E+03  0.7818608E-02  0.1135530E+00
         21   -1    0    0  501  502  0.00000000000E+00  0.00000000000E+00  0.78717526890E+02  0.78717526890E+02  0.00000000000E+00 0.  1.
         21   -1    0    0  502  503 -0.00000000000E+00 -0.00000000000E+00 -0.61348204663E+03  0.61348204663E+03  0.00000000000E+00 0.  1.
         -6    2    1    2    0  503  0.12318704605E+03  0.48772710272E+02 -0.22045012345E+03  0.30975748127E+03  0.17261985601E+03 0.  0.
        -24    2    3    3    0    0  0.17128974590E+02 -0.21403095888E+02 -0.50079038393E+02  0.97104348402E+02  0.78548393415E+02 0.  0.
          6    2    1    2  501    0 -0.12318704605E+03 -0.48772710272E+02 -0.31431439628E+03  0.38244209225E+03  0.17295834363E+03 0.  0.
         24    2    5    5    0    0 -0.12598400184E+03 -0.24767872189E+02 -0.32350175802E+03  0.35616372037E+03  0.75589629262E+02 0.  0.
          5    1    5    5  501    0  0.27969557850E+01 -0.24004838083E+02  0.91873617380E+01  0.26278371882E+02  0.47000000000E+01 0. -1.
        -13    1    6    6    0    0 -0.62291657361E+02  0.18453837376E+02 -0.20330241997E+03  0.21343071160E+03  0.00000000000E+00 0.  1.
         14    1    6    6    0    0 -0.63692344476E+02 -0.43221709565E+02 -0.12019933805E+03  0.14273300876E+03  0.00000000000E+00 0. -1.
         -5    1    3    3    0  503  0.10605807146E+03  0.70175806160E+02 -0.17037108506E+03  0.21265313286E+03  0.47000000000E+01 0.  1.
         11    1    4    4    0    0  0.94732821575E+01  0.12775251286E+02  0.15847044967E+02  0.22451702707E+02  0.00000000000E+00 0. -1.
        -12    1    4    4    0    0  0.76556924322E+01 -0.34178347174E+02 -0.65926083360E+02  0.74652645695E+02  0.00000000000E+00 0.  1.
</event>
<event>
12    1  0.8563264E-002  0.2869436E+03  0.7818608E-02  0.1091975E+00
         21   -1    0    0  503  502  0.00000000000E+00  0.00000000000E+00  0.12269605718E+04  0.12269605718E+04  0.00000000000E+00 0. -1.
         21   -1    0    0  501  503 -0.00000000000E+00 -0.00000000000E+00 -0.17359875972E+03  0.17359875972E+03  0.00000000000E+00 0.  1.
          6    2    1    2  501    0 -0.12672098108E+03 -0.19066167327E+03 -0.21935686239E+02  0.28763466210E+03  0.17274965647E+03 0.  0.
         24    2    3    3    0    0 -0.72449288523E+02 -0.31373236960E+02 -0.35604796905E+02  0.11873481858E+03  0.81222387154E+02 0.  0.
         -6    2    1    2    0  502  0.12672098108E+03  0.19066167327E+03  0.10752974983E+04  0.11129246694E+04  0.17299285886E+03 0.  0.
        -24    2    5    5    0    0  0.70230176510E+02  0.34450733515E+02  0.57415229064E+03  0.58494580822E+03  0.79947576386E+02 0.  0.
          5    1    3    3  501    0 -0.54271692555E+02 -0.15928843631E+03  0.13669110665E+02  0.16889984352E+03  0.47000000000E+01 0. -1.
        -11    1    4    4    0    0 -0.54166368493E+02 -0.54601224014E+02 -0.63932227079E+01  0.77176177906E+02  0.00000000000E+00 0.  1.
         12    1    4    4    0    0 -0.18282920030E+02  0.23227987054E+02 -0.29211574197E+02  0.41558640671E+02  0.00000000000E+00 0. -1.
         -5    1    5    5    0  502  0.56490804568E+02  0.15621093976E+03  0.50114520766E+03  0.52797886119E+03  0.47000000000E+01 0.  1.
         11    1    6    6    0    0  0.39427407742E+02  0.50481917802E+02  0.48596287758E+03  0.49016615845E+03  0.00000000000E+00 0. -1.
        -12    1    6    6    0    0  0.30802768768E+02 -0.16031184288E+02  0.88189413064E+02  0.94779649767E+02  0.00000000000E+00 0.  1.
</event>
<event>
12    1  0.8563264E-002  0.2137528E+03  0.7818608E-02  0.1138953E+00
         21   -1    0    0  501  502  0.00000000000E+00  0.00000000000E+00  0.57182798751E+03  0.57182798751E+03  0.00000000000E+00 0. -1.
         21   -1    0    0  502  503 -0.00000000000E+00 -0.00000000000E+00 -0.17800681770E+03  0.17800681770E+03  0.00000000000E+00 0.  1.
         -6    2    1    2    0  503 -0.40256910853E+02 -0.11672699055E+03 -0.81958989908E+02  0.22892695824E+03  0.17448342898E+03 0.  0.
        -24    2    3    3    0    0  0.24226335225E+02 -0.86930975054E+02 -0.98556202394E+02  0.15582805930E+03  0.80157028966E+02 0.  0.
          6    2    1    2  501    0  0.40256910853E+02  0.11672699055E+03  0.47578015972E+03  0.52090784697E+03  0.17243090053E+03 0.  0.
         24    2    5    5    0    0  0.21247168512E+02  0.13810960856E+03  0.46160200960E+03  0.48863252206E+03  0.78483247915E+02 0.  0.
          5    1    5    5  501    0  0.19009742340E+02 -0.21382618016E+02  0.14178150123E+02  0.32275324909E+02  0.47000000000E+01 0. -1.
        -11    1    6    6    0    0  0.40193402474E+02  0.40493140835E+02  0.22203202931E+03  0.22924534040E+03  0.00000000000E+00 0.  1.
         12    1    6    6    0    0 -0.18946233962E+02  0.97616467727E+02  0.23956998029E+03  0.25938718166E+03  0.00000000000E+00 0. -1.
         -5    1    3    3    0  503 -0.64483246078E+02 -0.29796015492E+02  0.16597212487E+02  0.73098898940E+02  0.47000000000E+01 0.  1.
         13    1    4    4    0    0  0.91152803769E+01 -0.51639870246E+02 -0.26289179607E+01  0.52504054558E+02  0.00000000000E+00 0. -1.
        -14    1    4    4    0    0  0.15111054848E+02 -0.35291104808E+02 -0.95927284434E+02  0.10332400474E+03  0.00000000000E+00 0.  1.
</event>
<event>
12    1  0.8563264E-002  0.1860228E+03  0.7818608E-02  0.1162133E+00
         21   -1    0    0  501  502  0.00000000000E+00  0.00000000000E+00  0.37746364232E+03  0.37746364232E+03  0.00000000000E+00 0. -1.
         21   -1    0    0  502  503 -0.00000000000E+00 -0.00000000000E+00 -0.12548099404E+03  0.12548099404E+03  0.00000000000E+00 0.  1.
         -6    2    1    2    0  503 -0.70740417736E+02  0.17772209828E+01 -0.46394247741E+01  0.18608066217E+03  0.17203814506E+03 0.  0.
        -24    2    3    3    0    0  0.16529743257E+02 -0.34695337352E+02  0.13309193790E+02  0.89693051872E+02  0.79941916844E+02 0.  0.
          6    2    1    2  501    0  0.70740417736E+02 -0.17772209828E+01  0.25662207306E+03  0.31686397419E+03  0.17187357139E+03 0.  0.
         24    2    5    5    0    0 -0.93828450871E+00  0.34348750668E+02  0.67717325945E+02  0.11155928437E+03  0.81725887236E+02 0.  0.
          5    1    5    5  501    0  0.71678702245E+02 -0.36125971651E+02  0.18890474711E+03  0.20530468982E+03  0.47000000000E+01 0. -1.
        -13    1    6    6    0    0  0.25386211631E+02  0.36093401510E+02  0.61193029471E+01  0.44549290029E+02  0.00000000000E+00 0.  1.
         14    1    6    6    0    0 -0.26324496140E+02 -0.17446508416E+01  0.61598022998E+02  0.67009994336E+02  0.00000000000E+00 0. -1.
         -5    1    3    3    0  503 -0.87270160992E+02  0.36472558335E+02 -0.17948618565E+02  0.96387610301E+02  0.47000000000E+01 0.  1.
         11    1    4    4    0    0 -0.10244220751E+02  0.64327314964E+01  0.34260126119E+02  0.36332909806E+02  0.00000000000E+00 0. -1.
        -12    1    4    4    0    0  0.26773964007E+02 -0.41128068848E+02 -0.20950932328E+02  0.53360142066E+02  0.00000000000E+00 0.  1.
</event>
<event>
12    1  0.8563264E-002  0.2068331E+03  0.7818608E-02  0.1144269E+00
         21   -1    0    0  503  502  0.00000000000E+00  0.00000000000E+00  0.23817374269E+03  0.23817374269E+03  0.00000000000E+00 0. -1.
         21   -1    0    0  501  503 -0.00000000000E+00 -0.00000000000E+00 -0.18746249456E+03  0.18746249456E+03  0.00000000000E+00 0.  1.
          6    2    1    2  501    0 -0.16726867684E+02 -0.11357195623E+03 -0.20208632197E+02  0.20698221677E+03  0.17104055629E+03 0.  0.
         24    2    3    3    0    0 -0.33020890342E+02 -0.69198716731E+02 -0.76317261887E+02  0.13346522632E+03  0.78165213357E+02 0.  0.
         -6    2    1    2    0  502  0.16726867684E+02  0.11357195623E+03  0.70919880329E+02  0.21865402049E+03  0.17205107935E+03 0.  0.
        -24    2    5    5    0    0 -0.43174073571E+02  0.13016642421E+02  0.34527638739E+02  0.95991967891E+02  0.77387766825E+02 0.  0.
          5    1    3    3  501    0  0.16294022658E+02 -0.44373239503E+02  0.56108629689E+02  0.73516990445E+02  0.47000000000E+01 0. -1.
        -11    1    4    4    0    0 -0.25190767069E+02 -0.84124569066E+02 -0.76715852275E+02  0.11660548811E+03  0.00000000000E+00 0.  1.
         12    1    4    4    0    0 -0.78301232736E+01  0.14925852335E+02  0.39859038865E+00  0.16859738216E+02  0.00000000000E+00 0. -1.
         -5    1    5    5    0  502  0.59900941255E+02  0.10055531381E+03  0.36392241590E+02  0.12266205260E+03  0.47000000000E+01 0.  1.
         11    1    6    6    0    0 -0.41913551574E+02 -0.26722123038E+02  0.21446263134E+02  0.54136492937E+02  0.00000000000E+00 0. -1.
        -12    1    6    6    0    0 -0.12605219969E+01  0.39738765459E+02  0.13081375605E+02  0.41855474954E+02  0.00000000000E+00 0.  1.
</event>
<event>
12    1  0.8563264E-002  0.2028662E+03  0.7818608E-02  0.1147485E+00
         21   -1    0    0  503  502  0.00000000000E+00  0.00000000000E+00  0.85389318914E+02  0.85389318914E+02  0.00000000000E+00 0.  1.
         21   -1    0    0  501  503 -0.00000000000E+00 -0.00000000000E+00 -0.95188104804E+03  0.95188104804E+03  0.00000000000E+00 0.  1.
          6    2    1    2  501    0 -0.10376395460E+03 -0.30532549240E+02 -0.79864335752E+03  0.82400600750E+03  0.17162602672E+03 0.  0.
         24    2    3    3    0    0 -0.80495633386E+02 -0.43884216560E+02 -0.28705319194E+03  0.31169138804E+03  0.79665644537E+02 0.  0.
         -6    2    1    2    0  502  0.10376395460E+03  0.30532549240E+02 -0.67848371604E+02  0.21326435945E+03  0.17081888258E+03 0.  0.
        -24    2    5    5    0    0  0.26657646549E+02 -0.24821569195E+02  0.11622894638E+02  0.89380408404E+02  0.80790007487E+02 0.  0.
          5    1    3    3  501    0 -0.23268321215E+02  0.13351667319E+02 -0.51159016558E+03  0.51231461946E+03  0.47000000000E+01 0. -1.
        -13    1    4    4    0    0 -0.30688994200E+02  0.22249852689E+02 -0.10699532550E+03  0.11351154122E+03  0.00000000000E+00 0.  1.
         14    1    4    4    0    0 -0.49806639186E+02 -0.66134069248E+02 -0.18005786644E+03  0.19817984683E+03  0.00000000000E+00 0. -1.
         -5    1    5    5    0  502  0.77106308052E+02  0.55354118436E+02 -0.79471266241E+02  0.12388395105E+03  0.47000000000E+01 0.  1.
         11    1    6    6    0    0  0.11903443587E+02 -0.34612082267E+02 -0.27932526628E+02  0.46042526559E+02  0.00000000000E+00 0. -1.
        -12    1    6    6    0    0  0.14754202962E+02  0.97905130716E+01  0.39555421266E+02  0.43337881845E+02  0.00000000000E+00 0.  1.
</event>
<event>
12    1  0.8563264E-002  0.1858844E+03  0.7818608E-02  0.1162398E+00
         21   -1    0    0  501  502  0.00000000000E+00  0.00000000000E+00  0.31855247408E+02  0.31855247408E+02  0.00000000000E+00 0. -1.
         21   -1    0    0  502  503 -0.00000000000E+00 -0.00000000000E+00 -0.10851461592E+04  0.10851461592E+04  0.00000000000E+00 0. -1.
         -6    2    1    2    0  503 -0.52420585991E+02  0.45847631723E+02 -0.48863120757E+03  0.52253224252E+03  0.17155047156E+03 0.  0.
        -24    2    3    3    0    0  0.15646705159E+02  0.11305310433E+02 -0.36176524971E+03  0.37439923017E+03  0.94488402605E+02 0.  0.
          6    2    1    2  501    0  0.52420585991E+02 -0.45847631723E+02 -0.56465970425E+03  0.59446916412E+03  0.17234582186E+03 0.  0.
         24    2    5    5    0    0 -0.15660412413E+02  0.25040666428E+02 -0.29918952104E+03  0.31134961104E+03  0.80943976336E+02 0.  0.
          5    1    5    5  501    0  0.68080998404E+02 -0.70888298150E+02 -0.26547018321E+03  0.28311955307E+03  0.47000000000E+01 0. -1.
        -11    1    6    6    0    0 -0.30250706187E+02  0.25242325448E+02 -0.29276847519E+03  0.29540761717E+03  0.00000000000E+00 0.  1.
         12    1    6    6    0    0  0.14590293774E+02 -0.20165902013E+00 -0.64210458506E+01  0.15941993872E+02  0.00000000000E+00 0. -1.
         -5    1    3    3    0  503 -0.68067291150E+02  0.34542321289E+02 -0.12686595787E+03  0.14813301236E+03  0.47000000000E+01 0.  1.
         11    1    4    4    0    0 -0.14697527983E+02  0.39680401691E+02 -0.27458556629E+03  0.27782689722E+03  0.00000000000E+00 0. -1.
        -12    1    4    4    0    0  0.30344233142E+02 -0.28375091257E+02 -0.87179683418E+02  0.96572332941E+02  0.00000000000E+00 0.  1.
</event>
<event>
12    1  0.8563264E-002  0.2483612E+03  0.7818608E-02  0.1114346E+00
         21   -1    0    0  501  502  0.00000000000E+00  0.00000000000E+00  0.40827203994E+03  0.40827203994E+03  0.00000000000E+00 0.  1.
         21   -1    0    0  502  503 -0.00000000000E+00 -0.00000000000E+00 -0.17933251200E+03  0.17933251200E+03  0.00000000000E+00 0. -1.
         -6    2    1    2    0  503 -0.17877429731E+03  0.18617910831E+02 -0.21414382271E+01  0.24837045109E+03  0.17139550528E+03 0.  0.
        -24    2    3    3    0    0 -0.13235790222E+03  0.60419006677E+02 -0.46641664400E+02  0.17153183139E+03  0.77965721145E+02 0.  0.
          6    2    1    2  501    0  0.17877429731E+03 -0.18617910831E+02  0.23108096617E+03  0.33923410085E+03  0.17138986630E+03 0.  0.
         24    2    5    5    0    0  0.13176326212E+03 -0.69305221985E+02  0.20361439536E+03  0.26469724115E+03  0.80256067908E+02 0.  0.
          5    1    5    5  501    0  0.47011035195E+02  0.50687311154E+02  0.27466570809E+02  0.74536859701E+02  0.47000000000E+01 0. -1.
        -13    1    6    6    0    0  0.10613855829E+03 -0.39796264049E+02  0.19361442973E+03  0.22435615344E+03  0.00000000000E+00 0.  1.
         14    1    6    6    0    0  0.25624703828E+02 -0.29508957936E+02  0.99999656292E+01  0.40341087706E+02  0.00000000000E+00 0. -1.
         -5    1    3    3    0  503 -0.46416395095E+02 -0.41801095846E+02  0.44500226173E+02  0.76838619697E+02  0.47000000000E+01 0.  1.
         11    1    4    4    0    0 -0.83452900645E+02  0.17061728505E+02  0.90585043023E+01  0.85659475283E+02  0.00000000000E+00 0. -1.
        -12    1    4    4    0    0 -0.48905001573E+02  0.43357278173E+02 -0.55700168703E+02  0.85872356105E+02  0.00000000000E+00 0.  1.
</event>
<event>
12    1  0.8563264E-002  0.2126573E+03  0.7818608E-02  0.1139669E+00
         21   -1    0    0  501  502  0.00000000000E+00  0.00000000000E+00  0.28522296674E+03  0.28522296674E+03  0.00000000000E+00 0.  1.
         21   -1    0    0  502  503 -0.00000000000E+00 -0.00000000000E+00 -0.15949171273E+03  0.15949171273E+03  0.00000000000E+00 0.  1.
         -6    2    1    2    0  503 -0.44341533915E+02  0.11747549124E+03  0.40289556616E+02  0.21644023225E+03  0.17162885273E+03 0.  0.
        -24    2    3    3    0    0  0.11475690974E+02 -0.14408143763E+01  0.13019428367E+02  0.82192698825E+02  0.80326625696E+02 0.  0.
          6    2    1    2  501    0  0.44341533915E+02 -0.11747549124E+03  0.85441697394E+02  0.22827444722E+03  0.17041794779E+03 0.  0.
         24    2    5    5    0    0  0.92153450352E+01 -0.80605457266E+02 -0.13815215284E+02  0.11661750267E+03  0.82623358874E+02 0.  0.
          5    1    5    5  501    0  0.35126188880E+02 -0.36870033972E+02  0.99256912678E+02  0.11165694454E+03  0.47000000000E+01 0. -1.
        -11    1    6    6    0    0  0.58026361100E+01 -0.41106067869E+02  0.34598927548E+02  0.54041328526E+02  0.00000000000E+00 0.  1.
         12    1    6    6    0    0  0.34127089252E+01 -0.39499389397E+02 -0.48414142831E+02  0.62576174148E+02  0.00000000000E+00 0. -1.
         -5    1    3    3    0  503 -0.55817224888E+02  0.11891630561E+03  0.27270128250E+02  0.13424753342E+03  0.47000000000E+01 0.  1.
         13    1    4    4    0    0  0.37280577900E+01 -0.31176184574E+02 -0.19889729694E+02  0.37167919592E+02  0.00000000000E+00 0. -1.
        -14    1    4    4    0    0  0.77476331837E+01  0.29735370198E+02  0.32909158060E+02  0.45024779233E+02  0.00000000000E+00 0.  1.
</event>
<event>
12    1  0.8563264E-002  0.1723741E+03  0.7818608E-02  0.1176947E+00
         21   -1    0    0  503  502  0.00000000000E+00  0.00000000000E+00  0.12907332610E+04  0.12907332610E+04  0.00000000000E+00 0.  1.
         21   -1    0    0  501  503 -0.00000000000E+00 -0.00000000000E+00 -0.26692768714E+02  0.26692768714E+02  0.00000000000E+00 0.  1.
          6    2    1    2  501    0  0.26391646707E+02 -0.14635081125E+02  0.37202596537E+03  0.41001967470E+03  0.16971184435E+03 0.  0.
         24    2    3    3    0    0  0.47287013184E+02 -0.47879200109E+02  0.23740408290E+03  0.26970955736E+03  0.10887638557E+03 0.  0.
         -6    2    1    2    0  502 -0.26391646707E+02  0.14635081125E+02  0.89201452687E+03  0.90740635497E+03  0.16366328935E+03 0.  0.
        -24    2    5    5    0    0 -0.54311495825E+02  0.20425264889E+02  0.32351450656E+03  0.33817230180E+03  0.79573486304E+02 0.  0.
          5    1    3    3  501    0 -0.20895366477E+02  0.33244118984E+02  0.13462188247E+03  0.14031011734E+03  0.47000000000E+01 0. -1.
        -11    1    4    4    0    0  0.21729620096E+02  0.76827263180E+01 -0.15049147414E+01  0.23096870818E+02  0.00000000000E+00 0.  1.
         12    1    4    4    0    0  0.25557393088E+02 -0.55561926427E+02  0.23890899764E+03  0.24661268654E+03  0.00000000000E+00 0. -1.
         -5    1    5    5    0  502  0.27919849117E+02 -0.57901837644E+01  0.56850002030E+03  0.56923405317E+03  0.47000000000E+01 0.  1.
         11    1    6    6    0    0 -0.18427805708E+02 -0.20243974188E+02  0.34145514675E+02  0.43764354063E+02  0.00000000000E+00 0. -1.
        -12    1    6    6    0    0 -0.35883690117E+02  0.40669239078E+02  0.28936899189E+03  0.29440794773E+03  0.00000000000E+00 0.  1.
</event>
<event>
12    1  0.8563264E-002  0.1931609E+03  0.7818608E-02  0.1156562E+00
         21   -1    0    0  501  502  0.00000000000E+00  0.00000000000E+00  0.11804890636E+03  0.11804890636E+03  0.00000000000E+00 0. -1.
         21   -1    0    0  502  503 -0.00000000000E+00 -0.00000000000E+00 -0.34017476086E+03  0.34017476086E+03  0.00000000000E+00 0. -1.
         -6    2    1    2    0  503  0.51857834192E+01  0.76924156771E+02 -0.18111650549E+03  0.26479111805E+03  0.17710711277E+03 0.  0.
        -24    2    3    3    0    0  0.32669413654E+02  0.69429177830E+02 -0.20086974119E+03  0.22980819421E+03  0.81089160051E+02 0.  0.
          6    2    1    2  501    0 -0.51857834192E+01 -0.76924156771E+02 -0.41009349009E+02  0.19343254917E+03  0.17259827962E+03 0.  0.
         24    2    5    5    0    0 -0.68404166265E+02 -0.40941371369E+02 -0.47383703764E+01  0.11201388629E+03  0.78545099880E+02 0.  0.
          5    1    5    5  501    0  0.63218382846E+02 -0.35982785401E+02 -0.36270978633E+02  0.81418662885E+02  0.47000000000E+01 0. -1.
        -11    1    6    6    0    0  0.11743596271E+02  0.43035226282E+01 -0.14859167375E+02  0.19422338053E+02  0.00000000000E+00 0.  1.
         12    1    6    6    0    0 -0.80147762536E+02 -0.45244893998E+02  0.10120796999E+02  0.92591548233E+02  0.00000000000E+00 0. -1.
         -5    1    3    3    0  503 -0.27483630235E+02  0.74949789403E+01  0.19753235694E+02  0.34982923843E+02  0.47000000000E+01 0.  1.
         11    1    4    4    0    0  0.59812031208E+01  0.71511125042E+02 -0.18560029218E+03  0.19899016120E+03  0.00000000000E+00 0. -1.
        -12    1    4    4    0    0  0.26688210534E+02 -0.20819472114E+01 -0.15269449005E+02  0.30818033010E+02  0.00000000000E+00 0.  1.
</event>
<event>
12    1  0.8563264E-002  0.1854042E+03  0.7818608E-02  0.1162864E+00
         21   -1    0    0  501  502  0.00000000000E+00  0.00000000000E+00  0.27083182733E+03  0.27083182733E+03  0.00000000000E+00 0.  1.
         21   -1    0    0  502  503 -0.00000000000E+00 -0.00000000000E+00 -0.38848952402E+03  0.38848952402E+03  0.00000000000E+00 0. -1.
         -6    2    1    2    0  503  0.61251136590E+02  0.27091868798E+02 -0.32957707806E+03  0.37774622172E+03  0.17200432132E+03 0.  0.
        -24    2    3    3    0    0  0.24553614453E+01 -0.18164627660E+02 -0.70613879604E+02  0.10832253716E+03  0.80071652705E+02 0.  0.
          6    2    1    2  501    0 -0.61251136590E+02 -0.27091868798E+02  0.21191938138E+03  0.28157512963E+03  0.17288452311E+03 0.  0.
         24    2    5    5    0    0 -0.10573553220E+03 -0.70919996094E+01  0.13087332213E+03  0.18686816083E+03  0.81003603974E+02 0.  0.
          5    1    5    5  501    0  0.44484395609E+02 -0.19999869188E+02  0.81046059244E+02  0.94706968800E+02  0.47000000000E+01 0. -1.
        -11    1    6    6    0    0 -0.17095783850E+02  0.26189591052E+02  0.63113247081E+02  0.70437507494E+02  0.00000000000E+00 0.  1.
         12    1    6    6    0    0 -0.88639748349E+02 -0.33281590662E+02  0.67760075052E+02  0.11643065333E+03  0.00000000000E+00 0. -1.
         -5    1    3    3    0  503  0.58795775145E+02  0.45256496457E+02 -0.25896319846E+03  0.26942368456E+03  0.47000000000E+01 0.  1.
         11    1    4    4    0    0  0.40574537787E+02 -0.11240805954E+02 -0.46307543708E+02  0.62586240017E+02  0.00000000000E+00 0. -1.
        -12    1    4    4    0    0 -0.38119176342E+02 -0.69238217056E+01 -0.24306335895E+02  0.45736297146E+02  0.00000000000E+00 0.  1.
</event>
<event>
12    1  0.8563264E-002  0.2714906E+03  0.7818608E-02  0.1100435E+00
         21   -1    0    0  503  502  0.00000000000E+00  0.00000000000E+00  0.29550410417E+03  0.29550410417E+03  0.00000000000E+00 0. -1.
         21   -1    0    0  501  503 -0.00000000000E+00 -0.00000000000E+00 -0.39781306994E+03  0.39781306994E+03  0.00000000000E+00 0. -1.
          6    2    1    2  501    0  0.18933032171E+03  0.91577410983E+02 -0.26290059672E+03  0.37792043025E+03  0.17168207514E+03 0.  0.
         24    2    3    3    0    0  0.15436625976E+03  0.20145890495E+02 -0.23637074723E+03  0.29395096758E+03  0.79380363686E+02 0.  0.
         -6    2    1    2    0  502 -0.18933032171E+03 -0.91577410983E+02  0.16059163096E+03  0.31539674386E+03  0.17161888353E+03 0.  0.
        -24    2    5    5    0    0 -0.16949924485E+03 -0.17065563212E+02  0.80955566459E+02  0.20444954995E+03  0.78896053661E+02 0.  0.
          5    1    3    3  501    0  0.34964061953E+02  0.71431520489E+02 -0.26529849491E+02  0.83969462673E+02  0.47000000000E+01 0. -1.
        -13    1    4    4    0    0  0.56662723763E+02  0.32916545831E+02 -0.14691422715E+03  0.16086625933E+03  0.00000000000E+00 0.  1.
         14    1    4    4    0    0  0.97703535992E+02 -0.12770655336E+02 -0.89456520083E+02  0.13308470824E+03  0.00000000000E+00 0. -1.
         -5    1    5    5    0  502 -0.19831076862E+02 -0.74511847771E+02  0.79636064497E+02  0.11094719391E+03  0.47000000000E+01 0.  1.
         13    1    6    6    0    0 -0.40429485972E+02  0.16176738801E+02  0.52419392291E+02  0.68147068186E+02  0.00000000000E+00 0. -1.
        -14    1    6    6    0    0 -0.12906975888E+03 -0.33242302013E+02  0.28536174167E+02  0.13630248177E+03  0.00000000000E+00 0.  1.
</event>
<event>
12    1  0.8563264E-002  0.1828249E+03  0.7818608E-02  0.1165976E+00
         21   -1    0    0  501  502  0.00000000000E+00  0.00000000000E+00  0.47140498261E+03  0.47140498261E+03  0.00000000000E+00 0.  1.
         21   -1    0    0  502  503 -0.00000000000E+00 -0.00000000000E+00 -0.79406486171E+02  0.79406486171E+02  0.00000000000E+00 0. -1.
         -6    2    1    2    0  503 -0.37765093102E+02  0.48568594807E+02  0.96937188788E+02  0.20370038907E+03  0.16826146107E+03 0.  0.
        -24    2    3    3    0    0  0.19927092269E+02  0.76645529032E+02  0.43470894773E+02  0.12004970418E+03  0.79060651738E+02 0.  0.
          6    2    1    2  501    0  0.37765093102E+02 -0.48568594807E+02  0.29506130766E+03  0.34711107971E+03  0.17216217855E+03 0.  0.
         24    2    5    5    0    0 -0.31169733294E+02 -0.34022041276E+02  0.24430049008E+03  0.26014923112E+03  0.76588781367E+02 0.  0.
          5    1    5    5  501    0  0.68934826396E+02 -0.14546553531E+02  0.50760817574E+02  0.86961848593E+02  0.47000000000E+01 0. -1.
        -13    1    6    6    0    0 -0.32517962343E+02  0.17216696699E+02  0.80365574194E+02  0.88388110262E+02  0.00000000000E+00 0.  1.
         14    1    6    6    0    0  0.13482290493E+01 -0.51238737975E+02  0.16393491589E+03  0.17176112086E+03  0.00000000000E+00 0. -1.
         -5    1    3    3    0  503 -0.57692185371E+02 -0.28076934225E+02  0.53466294015E+02  0.83650684899E+02  0.47000000000E+01 0.  1.
         13    1    4    4    0    0 -0.52746148603E+01  0.17167594509E+02 -0.21781771500E+02  0.28231072116E+02  0.00000000000E+00 0. -1.
        -14    1    4    4    0    0  0.25201707129E+02  0.59477934523E+02  0.65252666273E+02  0.91818632059E+02  0.00000000000E+00 0.  1.
</event>
<event>
12    1  0.8563264E-002  0.1793565E+03  0.7818608E-02  0.1168443E+00
         21   -1    0    0  501  502  0.00000000000E+00  0.00000000000E+00  0.10620965841E+04  0.10620965841E+04  0.00000000000E+00 0.  1.
         21   -1    0    0  502  503 -0.00000000000E+00 -0.00000000000E+00 -0.44342780657E+02  0.44342780657E+02  0.00000000000E+00 0.  1.
         -6    2    1    2    0  503  0.51394307224E+02 -0.55381175298E+01  0.19723230429E+03  0.26654396777E+03  0.17167719516E+03 0.  0.
        -24    2    3    3    0    0  0.60081166700E+02 -0.45231459046E+02  0.19800691754E+03  0.22563293119E+03  0.77767916038E+02 0.  0.
          6    2    1    2  501    0 -0.51394307224E+02  0.55381175298E+01  0.82052149917E+03  0.83989539700E+03  0.17174603851E+03 0.  0.
         24    2    5    5    0    0 -0.20566908371E+02  0.42873379154E+02  0.74090845537E+03  0.74659707427E+03  0.78744699618E+02 0.  0.
          5    1    5    5  501    0 -0.30827398853E+02 -0.37335261624E+02  0.79613043798E+02  0.93298322725E+02  0.47000000000E+01 0. -1.
        -11    1    6    6    0    0 -0.39665685277E+02  0.56366038130E+01  0.19422183244E+03  0.19831101353E+03  0.00000000000E+00 0.  1.
         12    1    6    6    0    0  0.19098776906E+02  0.37236775341E+02  0.54668662292E+03  0.54828606074E+03  0.00000000000E+00 0. -1.
         -5    1    3    3    0  503 -0.86868594756E+01  0.39693341516E+02 -0.77461325056E+00  0.40911036579E+02  0.47000000000E+01 0.  1.
         13    1    4    4    0    0  0.71196537651E+01  0.18501548121E+02  0.73080201921E+02  0.75721282777E+02  0.00000000000E+00 0. -1.
        -14    1    4    4    0    0  0.52961512935E+02 -0.63733007167E+02  0.12492671562E+03  0.14991164842E+03  0.00000000000E+00 0.  1.
</event>
<event>
12    1  0.8563264E-002  0.1768342E+03  0.7818608E-02  0.1171576E+00
         21   -1    0    0  501  502  0.00000000000E+00  0.00000000000E+00  0.61387818657E+02  0.61387818657E+02  0.00000000000E+00 0.  1.
         21   -1    0    0  502  503 -0.00000000000E+00 -0.00000000000E+00 -0.50504321973E+03  0.50504321973E+03  0.00000000000E+00 0.  1.
         -6    2    1    2    0  503 -0.17372880335E+02 -0.18797281314E+02 -0.20031298111E+03  0.26719962719E+03  0.17497198523E+03 0.  0.
        -24    2    3    3    0    0  0.44467864035E+02  0.51210176726E+01 -0.52230815673E+02  0.10488271368E+03  0.79175184053E+02 0.  0.
          6    2    1    2  501    0  0.17372880335E+02  0.18797281314E+02 -0.24334241996E+03  0.29923141119E+03  0.17224618816E+03 0.  0.
         24    2    5    5    0    0 -0.32442283210E+02  0.63305132398E+02 -0.15822841966E+03  0.19093098472E+03  0.79739366752E+02 0.  0.
          5    1    5    5  501    0  0.49815163545E+02 -0.44507851083E+02 -0.85114000304E+02  0.10830042648E+03  0.47000000000E+01 0. -1.
        -11    1    6    6    0    0 -0.96772863350E+01 -0.18145981195E+02 -0.18830003777E+02  0.27883607130E+02  0.00000000000E+00 0.  1.
         12    1    6    6    0    0 -0.22764996875E+02  0.81451113592E+02 -0.13939841588E+03  0.16304737759E+03  0.00000000000E+00 0. -1.
         -5    1    3    3    0  503 -0.61840744370E+02 -0.23918298987E+02 -0.14808216543E+03  0.16231691351E+03  0.47000000000E+01 0.  1.
         13    1    4    4    0    0 -0.65259824675E+01  0.29680507253E+02 -0.42557472725E+01  0.30686028463E+02  0.00000000000E+00 0. -1.
        -14    1    4    4    0    0  0.50993846503E+02 -0.24559489581E+02 -0.47975068400E+02  0.74196685220E+02  0.00000000000E+00 0.  1.
</event>
<event>
12    1  0.8563264E-002  0.1830018E+03  0.7818608E-02  0.1165129E+00
         21   -1    0    0  501  502  0.00000000000E+00  0.00000000000E+00  0.52608363459E+03  0.52608363459E+03  0.00000000000E+00 0. -1.
         21   -1    0    0  502  503 -0.00000000000E+00 -0.00000000000E+00 -0.22523858880E+03  0.22523858880E+03  0.00000000000E+00 0. -1.
         -6    2    1    2    0  503 -0.14666205097E+02  0.57804903019E+02 -0.16813974212E+03  0.24789756417E+03  0.17212125104E+03 0.  0.
        -24    2    3    3    0    0 -0.68845123646E+02  0.62192420987E+01 -0.94461225820E+02  0.14279261952E+03  0.81783121625E+02 0.  0.
          6    2    1    2  501    0  0.14666205097E+02 -0.57804903019E+02  0.46898478791E+03  0.50342465922E+03  0.17301199909E+03 0.  0.
         24    2    5    5    0    0 -0.56223537148E+02 -0.13771425663E+02  0.28181841635E+03  0.29844260311E+03  0.79345001485E+02 0.  0.
          5    1    5    5  501    0  0.70889742245E+02 -0.44033477355E+02  0.18716637156E+03  0.20498205611E+03  0.47000000000E+01 0. -1.
        -13    1    6    6    0    0 -0.27821666714E+01 -0.38706548023E+02  0.12586968272E+03  0.13171603675E+03  0.00000000000E+00 0.  1.
         14    1    6    6    0    0 -0.53441370476E+02  0.24935122359E+02  0.15594873363E+03  0.16672656635E+03  0.00000000000E+00 0. -1.
         -5    1    3    3    0  503  0.54178918549E+02  0.51585660920E+02 -0.73678516296E+02  0.10510494466E+03  0.47000000000E+01 0.  1.
         11    1    4    4    0    0  0.18721597113E+02  0.54957237108E+01 -0.16883679445E+02  0.25802321778E+02  0.00000000000E+00 0. -1.
        -12    1    4    4    0    0 -0.87566720758E+02  0.72351838791E+00 -0.77577546375E+02  0.11699029774E+03  0.00000000000E+00 0.  1.
</event>
<event>
12    1  0.8563264E-002  0.1852628E+03  0.7818608E-02  0.1163904E+00
         21   -1    0    0  501  502  0.00000000000E+00  0.00000000000E+00  0.15331889007E+03  0.15331889007E+03  0.00000000000E+00 0.  1.
         21   -1    0    0  502  503 -0.00000000000E+00 -0.00000000000E+00 -0.21880267786E+03  0.21880267786E+03  0.00000000000E+00 0.  1.
         -6    2    1    2    0  503  0.59431566409E+02 -0.29036173558E+02 -0.23196498328E+02  0.18209384721E+03  0.16806213493E+03 0.  0.
        -24    2    3    3    0    0  0.26417955926E+02 -0.82654408270E+02 -0.45283337187E+01  0.11625006284E+03  0.77226366618E+02 0.  0.
          6    2    1    2  501    0 -0.59431566409E+02  0.29036173558E+02 -0.42287289464E+02  0.19002772072E+03  0.17305233119E+03 0.  0.
         24    2    5    5    0    0 -0.13494756827E+02 -0.48325382947E+02 -0.22184164809E+02  0.97717230957E+02  0.80864509885E+02 0.  0.
          5    1    5    5  501    0 -0.45936809582E+02  0.77361556505E+02 -0.20103124656E+02  0.92310489763E+02  0.47000000000E+01 0. -1.
        -11    1    6    6    0    0 -0.46013313320E+02 -0.19080667873E+02 -0.28339392523E+01  0.49893166876E+02  0.00000000000E+00 0.  1.
         12    1    6    6    0    0  0.32518556494E+02 -0.29244715074E+02 -0.19350225557E+02  0.47824064081E+02  0.00000000000E+00 0. -1.
         -5    1    3    3    0  503  0.33013610483E+02  0.53618234713E+02 -0.18668164609E+02  0.65843784374E+02  0.47000000000E+01 0.  1.
         13    1    4    4    0    0  0.49855478787E+02 -0.62331783281E+02 -0.18956357358E+02  0.82037573442E+02  0.00000000000E+00 0. -1.
        -14    1    4    4    0    0 -0.23437522861E+02 -0.20322624989E+02  0.14428023640E+02  0.34212489393E+02  0.00000000000E+00 0.  1.
</event>
<event>
12    1  0.8563264E-002  0.2003663E+03  0.7818608E-02  0.1150385E+00
         21   -1    0    0  503  502  0.00000000000E+00  0.00000000000E+00  0.17343899193E+03  0.17343899193E+03  0.00000000000E+00 0. -1.
         21   -1    0    0  501  503 -0.00000000000E+00 -0.00000000000E+00 -0.38535598370E+03  0.38535598370E+03  0.00000000000E+00 0.  1.
          6    2    1    2  501    0  0.17523536558E+01  0.97283413495E+02 -0.28473551477E+03  0.34560683136E+03  0.17000775050E+03 0.  0.
         24    2    3    3    0    0  0.25432257181E+02  0.12593593093E+03 -0.19521360135E+03  0.24856061779E+03  0.84660334050E+02 0.  0.
         -6    2    1    2    0  502 -0.17523536558E+01 -0.97283413495E+02  0.72818522992E+02  0.21318814427E+03  0.17515568584E+03 0.  0.
        -24    2    5    5    0    0 -0.63883705377E+02 -0.91570766381E+02  0.44608967069E+02  0.14455281627E+03  0.80244773546E+02 0.  0.
          5    1    3    3  501    0 -0.23679903525E+02 -0.28652517436E+02 -0.89521913420E+02  0.97046213572E+02  0.47000000000E+01 0. -1.
        -11    1    4    4    0    0  0.48411540367E+02  0.34257001976E+02 -0.72431213002E+02  0.93613567618E+02  0.00000000000E+00 0.  1.
         12    1    4    4    0    0 -0.22979283186E+02  0.91678928954E+02 -0.12278238834E+03  0.15494705017E+03  0.00000000000E+00 0. -1.
         -5    1    5    5    0  502  0.62131351721E+02 -0.57126471141E+01  0.28209555923E+02  0.68635327996E+02  0.47000000000E+01 0.  1.
         13    1    6    6    0    0 -0.58229034100E+02 -0.67361151787E+02 -0.48762030786E+01  0.89173552911E+02  0.00000000000E+00 0. -1.
        -14    1    6    6    0    0 -0.56546712766E+01 -0.24209614594E+02  0.49485170148E+02  0.55379263363E+02  0.00000000000E+00 0.  1.
</event>
<event>
12    1  0.8563264E-002  0.1919069E+03  0.7818608E-02  0.1158282E+00
         21   -1    0    0  501  502  0.00000000000E+00  0.00000000000E+00  0.16828190276E+03  0.16828190276E+03  0.00000000000E+00 0. -1.
         21   -1    0    0  502  503 -0.00000000000E+00 -0.00000000000E+00 -0.31074087891E+03  0.31074087891E+03  0.00000000000E+00 0. -1.
         -6    2    1    2    0  503  0.51027753814E+02 -0.51069647536E+02 -0.20762095093E+03  0.28272729449E+03  0.17780979508E+03 0.  0.
        -24    2    3    3    0    0  0.90199924275E+02  0.42624834475E+01 -0.10956926857E+03  0.16342798154E+03  0.80926419850E+02 0.  0.
          6    2    1    2  501    0 -0.51027753814E+02  0.51069647536E+02  0.65161974785E+02  0.19629548717E+03  0.17051068813E+03 0.  0.
         24    2    5    5    0    0 -0.15623856395E+02  0.87133218726E+02  0.89135417456E+01  0.12053274343E+03  0.81316593133E+02 0.  0.
          5    1    5    5  501    0 -0.35403897419E+02 -0.36063571191E+02  0.56248433039E+02  0.75762743739E+02  0.47000000000E+01 0. -1.
        -11    1    6    6    0    0  0.38503589804E+01  0.49624035388E+01 -0.27763323247E+02  0.28464940381E+02  0.00000000000E+00 0.  1.
         12    1    6    6    0    0 -0.19474215376E+02  0.82170815188E+02  0.36676864993E+02  0.92067803052E+02  0.00000000000E+00 0. -1.
         -5    1    3    3    0  503 -0.39172170461E+02 -0.55332130983E+02 -0.98051682359E+02  0.11929931295E+03  0.47000000000E+01 0.  1.
         13    1    4    4    0    0  0.53340175251E+02 -0.37425813903E+02 -0.52054748447E+02  0.83400016055E+02  0.00000000000E+00 0. -1.
        -14    1    4    4    0    0  0.36859749024E+02  0.41688297350E+02 -0.57514520126E+02  0.80027965484E+02  0.00000000000E+00 0.  1.
</event>
<event>
12    1  0.8563264E-002  0.1932420E+03  0.7818608E-02  0.1155984E+00
         21   -1    0    0  501  502  0.00000000000E+00  0.00000000000E+00  0.54371371591E+02  0.54371371591E+02  0.00000000000E+00 0. -1.
         21   -1    0    0  502  503 -0.00000000000E+00 -0.00000000000E+00 -0.10762889514E+04  0.10762889514E+04  0.00000000000E+00 0. -1.
         -6    2    1    2    0  503 -0.78998689688E+02  0.33799688671E+02 -0.85235180309E+03  0.87357083019E+03  0.17099469933E+03 0.  0.
        -24    2    3    3    0    0 -0.87068179887E+02 -0.32658969059E+02 -0.49404862605E+03  0.50903670759E+03  0.79917761272E+02 0.  0.
          6    2    1    2  501    0  0.78998689688E+02 -0.33799688671E+02 -0.16956577667E+03  0.25708949276E+03  0.17308738469E+03 0.  0.
         24    2    5    5    0    0  0.99105973167E+01  0.16841731352E+02 -0.14465740843E+03  0.16775733316E+03  0.82673412664E+02 0.  0.
          5    1    5    5  501    0  0.69088092371E+02 -0.50641420022E+02 -0.24908368242E+02  0.89332159594E+02  0.47000000000E+01 0. -1.
        -11    1    6    6    0    0  0.26664764881E+02 -0.32811857774E+01 -0.13820149449E+03  0.14078859664E+03  0.00000000000E+00 0.  1.
         12    1    6    6    0    0 -0.16754167564E+02  0.20122917129E+02 -0.64559139435E+01  0.26968736518E+02  0.00000000000E+00 0. -1.
         -5    1    3    3    0  503  0.80694901997E+01  0.66458657729E+02 -0.35830317704E+03  0.36453412260E+03  0.47000000000E+01 0.  1.
         11    1    4    4    0    0 -0.26867459685E+02  0.24451573957E+02 -0.20985948042E+03  0.21298061269E+03  0.00000000000E+00 0. -1.
        -12    1    4    4    0    0 -0.60200720203E+02 -0.57110543016E+02 -0.28418914562E+03  0.29605609490E+03  0.00000000000E+00 0.  1.
</event>
<event>
12    1  0.8563264E-002  0.1884258E+03  0.7818608E-02  0.1160228E+00
         21   -1    0    0  503  502  0.00000000000E+00  0.00000000000E+00  0.74857321921E+02  0.74857321921E+02  0.00000000000E+00 0. -1.
         21   -1    0    0  501  503 -0.00000000000E+00 -0.00000000000E+00 -0.53893680231E+03  0.53893680231E+03  0.00000000000E+00 0.  1.
          6    2    1    2  501    0  0.53421723471E+02  0.56597283771E+02 -0.34054471033E+03  0.38848295446E+03  0.16997403657E+03 0.  0.
         24    2    3    3    0    0  0.93842324302E+02  0.11935103325E+02 -0.19439323867E+03  0.23033467594E+03  0.79476431575E+02 0.  0.
         -6    2    1    2    0  502 -0.53421723471E+02 -0.56597283771E+02 -0.12353477007E+03  0.22531116977E+03  0.17160172126E+03 0.  0.
        -24    2    5    5    0    0 -0.68221573984E+02 -0.71463659539E+02 -0.31790383083E+02  0.13108183651E+03  0.80066107782E+02 0.  0.
          5    1    3    3  501    0 -0.40420600831E+02  0.44662180446E+02 -0.14615147165E+03  0.15814827852E+03  0.47000000000E+01 0. -1.
        -11    1    4    4    0    0  0.10083659449E+03  0.14807187096E+02 -0.19743182600E+03  0.22218595251E+03  0.00000000000E+00 0.  1.
         12    1    4    4    0    0 -0.69942701839E+01 -0.28720837710E+01  0.30385873216E+01  0.81487234279E+01  0.00000000000E+00 0. -1.
         -5    1    5    5    0  502  0.14799850513E+02  0.14866375768E+02 -0.91744386982E+02  0.94229333259E+02  0.47000000000E+01 0.  1.
         13    1    6    6    0    0 -0.98321082056E+01 -0.59563916515E+02 -0.37740120121E+02  0.71195836740E+02  0.00000000000E+00 0. -1.
        -14    1    6    6    0    0 -0.58389465779E+02 -0.11899743025E+02  0.59497370379E+01  0.59885999773E+02  0.00000000000E+00 0.  1.
</event>
<event>
12    1  0.8563264E-002  0.1893272E+03  0.7818608E-02  0.1159077E+00
         21   -1    0    0  503  502  0.00000000000E+00  0.00000000000E+00  0.17360541486E+04  0.17360541486E+04  0.00000000000E+00 0. -1.
         21   -1    0    0  501  503 -0.00000000000E+00 -0.00000000000E+00 -0.28677543108E+02  0.28677543108E+02  0.00000000000E+00 0. -1.
          6    2    1    2  501    0 -0.73584115870E+01 -0.78025209794E+02  0.38661803916E+03  0.43047235738E+03  0.17231036732E+03 0.  0.
         24    2    3    3    0    0  0.14930649529E+02 -0.11230403225E+03  0.34630293946E+03  0.37285953608E+03  0.79141568178E+02 0.  0.
         -6    2    1    2    0  502  0.73584115870E+01  0.78025209794E+02  0.13207585664E+04  0.13342593344E+04  0.17234471592E+03 0.  0.
        -24    2    5    5    0    0  0.58397159971E+02  0.63446203275E+02  0.59165244465E+03  0.60320849619E+03  0.79826221298E+02 0.  0.
          5    1    3    3  501    0 -0.22289061116E+02  0.34278822459E+02  0.40315099697E+02  0.57612821301E+02  0.47000000000E+01 0. -1.
        -11    1    4    4    0    0  0.74663134042E+00  0.94589055899E+01  0.69262259752E+02  0.69909148037E+02  0.00000000000E+00 0.  1.
         12    1    4    4    0    0  0.14184018189E+02 -0.12176293784E+03  0.27704067971E+03  0.30295038805E+03  0.00000000000E+00 0. -1.
         -5    1    5    5    0  502 -0.51038748384E+02  0.14579006520E+02  0.72910612172E+03  0.73105083817E+03  0.47000000000E+01 0.  1.
         13    1    6    6    0    0  0.21908477993E+02 -0.29988820459E+01  0.33150228492E+03  0.33223897966E+03  0.00000000000E+00 0. -1.
        -14    1    6    6    0    0  0.36488681978E+02  0.66445085321E+02  0.26015015974E+03  0.27096951653E+03  0.00000000000E+00 0.  1.
</event>
<event>
12    1  0.8563264E-002  0.2458964E+03  0.7818608E-02  0.1116223E+00
         21   -1    0    0  501  502  0.00000000000E+00  0.00000000000E+00  0.10249501947E+04  0.10249501947E+04  0.00000000000E+00 0. -1.
         21   -1    0    0  502  503 -0.00000000000E+00 -0.00000000000E+00 -0.14614901980E+03  0.14614901980E+03  0.00000000000E+00 0. -1.
         -6    2    1    2    0  503 -0.16696931505E+03 -0.54530050141E+02 -0.14573698692E+02  0.24450130396E+03  0.16945859792E+03 0.  0.
        -24    2    3    3    0    0 -0.17722651528E+03 -0.13973180105E+02  0.84232278632E+01  0.19653237136E+03  0.83363869544E+02 0.  0.
          6    2    1    2  501    0  0.16696931505E+03  0.54530050141E+02  0.89337487360E+03  0.92659791055E+03  0.17208353935E+03 0.  0.
         24    2    5    5    0    0  0.30071656555E+02  0.16191616694E+01  0.48632316719E+03  0.49386969017E+03  0.80561291638E+02 0.  0.
          5    1    5    5  501    0  0.13689765849E+03  0.52910888471E+02  0.40705170642E+03  0.43272822038E+03  0.47000000000E+01 0. -1.
        -13    1    6    6    0    0  0.33770713017E+02  0.99447045500E+01  0.79517320924E+02  0.86961845272E+02  0.00000000000E+00 0.  1.
         14    1    6    6    0    0 -0.36990564619E+01 -0.83255428806E+01  0.40680584626E+03  0.40690784490E+03  0.00000000000E+00 0. -1.
         -5    1    3    3    0  503  0.10257200229E+02 -0.40556870036E+02 -0.22996926555E+02  0.47968932599E+02  0.47000000000E+01 0.  1.
         11    1    4    4    0    0  0.38529582030E+01  0.71172589806E+01 -0.10491328488E+02  0.13250231536E+02  0.00000000000E+00 0. -1.
        -12    1    4    4    0    0 -0.18107947348E+03 -0.21090439085E+02  0.18914556351E+02  0.18328213982E+03  0.00000000000E+00 0.  1.
</event>
<event>
12    1  0.8563264E-002  0.2087197E+03  0.7818608E-02  0.1143303E+00
         21   -1    0    0  501  502  0.00000000000E+00  0.00000000000E+00  0.24153401922E+03  0.24153401922E+03  0.00000000000E+00 0.  1.
         21   -1    0    0  502  503 -0.00000000000E+00 -0.00000000000E+00 -0.19877056213E+03  0.19877056213E+03  0.00000000000E+00 0.  1.
         -6    2    1    2    0  503 -0.11108884974E+03  0.45828259938E+01 -0.50819873094E+02  0.21481754494E+03  0.17664139742E+03 0.  0.
        -24    2    3    3    0    0 -0.83214007953E+02 -0.18854852273E+02 -0.99779149049E+02  0.15361760810E+03  0.79764743836E+02 0.  0.
          6    2    1    2  501    0  0.11108884974E+03 -0.45828259938E+01  0.93583330184E+02  0.22548703641E+03  0.17240890079E+03 0.  0.
         24    2    5    5    0    0  0.44707724119E+02  0.39512785524E+02 -0.52201156300E+01  0.98463071356E+02  0.78151685829E+02 0.  0.
          5    1    5    5  501    0  0.66381125625E+02 -0.44095611518E+02  0.98803445814E+02  0.12702396506E+03  0.47000000000E+01 0. -1.
        -11    1    6    6    0    0  0.29922954066E+02 -0.35749864334E+01  0.28740473910E+02  0.41643469460E+02  0.00000000000E+00 0.  1.
         12    1    6    6    0    0  0.14784770053E+02  0.43087771957E+02 -0.33960589540E+02  0.56819601897E+02  0.00000000000E+00 0. -1.
         -5    1    3    3    0  503 -0.27874841791E+02  0.23437678267E+02  0.48959275955E+02  0.61199936842E+02  0.47000000000E+01 0.  1.
         13    1    4    4    0    0  0.56041632936E+01  0.72756117366E+01  0.75399613562E+01  0.11882431974E+02  0.00000000000E+00 0. -1.
        -14    1    4    4    0    0 -0.88818171246E+02 -0.26130464010E+02 -0.10731911041E+03  0.14173517612E+03  0.00000000000E+00 0.  1.
</event>
<event>
12    1  0.8563264E-002  0.1735141E+03  0.7818608E-02  0.1174522E+00
         21   -1    0    0  501  502  0.00000000000E+00  0.00000000000E+00  0.12114236744E+04  0.12114236744E+04  0.00000000000E+00 0. -1.
         21   -1    0    0  502  503 -0.00000000000E+00 -0.00000000000E+00 -0.38839302447E+02  0.38839302447E+02  0.00000000000E+00 0. -1.
         -6    2    1    2    0  503  0.62533502528E+01 -0.23571635203E+02  0.20775516476E+03  0.26995560482E+03  0.17064317658E+03 0.  0.
        -24    2    3    3    0    0  0.39038795807E+02  0.32668241029E+02  0.17181281181E+03  0.19544552594E+03  0.78026083839E+02 0.  0.
          6    2    1    2  501    0 -0.62533502528E+01  0.23571635203E+02  0.96482920720E+03  0.98030737203E+03  0.17179178740E+03 0.  0.
         24    2    5    5    0    0 -0.61278351060E+01  0.78660919759E+02  0.51888167052E+03  0.53094544608E+03  0.80248289998E+02 0.  0.
          5    1    5    5  501    0 -0.12551514671E+00 -0.55089284555E+02  0.44594753668E+03  0.44936192595E+03  0.47000000000E+01 0. -1.
        -13    1    6    6    0    0 -0.42682151419E+02  0.41648908134E+02  0.24375330155E+03  0.25094236314E+03  0.00000000000E+00 0.  1.
         14    1    6    6    0    0  0.36554316313E+02  0.37012011625E+02  0.27512836897E+03  0.28000308294E+03  0.00000000000E+00 0. -1.
         -5    1    3    3    0  503 -0.32785445555E+02 -0.56239876233E+02  0.35942352950E+02  0.74510078878E+02  0.47000000000E+01 0.  1.
         13    1    4    4    0    0 -0.15474970136E+02  0.27796052856E+02  0.31211619683E+02  0.44567482073E+02  0.00000000000E+00 0. -1.
        -14    1    4    4    0    0  0.54513765943E+02  0.48721881736E+01  0.14060119212E+03  0.15087804387E+03  0.00000000000E+00 0.  1.
</event>
<event>
12    1  0.8563264E-002  0.2245859E+03  0.7818608E-02  0.1130589E+00
         21   -1    0    0  503  502  0.00000000000E+00  0.00000000000E+00  0.10395577175E+03  0.10395577175E+03  0.00000000000E+00 0. -1.
         21   -1    0    0  501  503 -0.00000000000E+00 -0.00000000000E+00 -0.60254256643E+03  0.60254256643E+03  0.00000000000E+00 0.  1.
          6    2    1    2  501    0  0.14451239168E+03 -0.56992118243E+00 -0.40600196738E+03  0.46397889758E+03  0.17191469896E+03 0.  0.
         24    2    3    3    0    0  0.10759015429E+02  0.10137748297E+02 -0.21981617291E+03  0.23443182200E+03  0.80128639935E+02 0.  0.
         -6    2    1    2    0  502 -0.14451239168E+03  0.56992118243E+00 -0.92584827288E+02  0.24251944060E+03  0.17134635295E+03 0.  0.
        -24    2    5    5    0    0 -0.12123882428E+03  0.20630405895E+02  0.31151008217E+01  0.14189812961E+03  0.70717106650E+02 0.  0.
          5    1    3    3  501    0  0.13375337625E+03 -0.10707669479E+02 -0.18618579447E+03  0.22954707558E+03  0.47000000000E+01 0. -1.
        -11    1    4    4    0    0  0.14550225115E+02 -0.32366306909E+02 -0.67612176702E+02  0.76358976631E+02  0.00000000000E+00 0.  1.
         12    1    4    4    0    0 -0.37912096860E+01  0.42504055206E+02 -0.15220399621E+03  0.15807284537E+03  0.00000000000E+00 0. -1.
         -5    1    5    5    0  502 -0.23273567398E+02 -0.20060484713E+02 -0.95699928110E+02  0.10062131100E+03  0.47000000000E+01 0.  1.
         11    1    6    6    0    0 -0.35565738677E+02  0.35448554206E+02 -0.16333382100E+02  0.52804366616E+02  0.00000000000E+00 0. -1.
        -12    1    6    6    0    0 -0.85673085604E+02 -0.14818148311E+02  0.19448482921E+02  0.89093762993E+02  0.00000000000E+00 0.  1.
</event>
<event>
12    1  0.8563264E-002  0.2877784E+03  0.7818608E-02  0.1092474E+00
         21   -1    0    0  503  502  0.00000000000E+00  0.00000000000E+00  0.11208032842E+03  0.11208032842E+03  0.00000000000E+00 0.  1.
         21   -1    0    0  501  503 -0.00000000000E+00 -0.00000000000E+00 -0.77397987028E+03  0.77397987028E+03  0.00000000000E+00 0. -1.
          6    2    1    2  501    0 -0.15312857167E+03 -0.17317633480E+03 -0.21848376326E+03  0.36131921211E+03  0.17140016288E+03 0.  0.
         24    2    3    3    0    0 -0.82632648697E+02 -0.11195182783E+03 -0.21412745823E+03  0.26772870616E+03  0.80415952093E+02 0.  0.
         -6    2    1    2    0  502  0.15312857167E+03  0.17317633480E+03 -0.44341577861E+03  0.52474098659E+03  0.15905077143E+03 0.  0.
        -24    2    5    5    0    0  0.12613882072E+03  0.16579526087E+03 -0.27838312625E+03  0.35728713249E+03  0.82206200756E+02 0.  0.
          5    1    3    3  501    0 -0.70495922976E+02 -0.61224506964E+02 -0.43563050302E+01  0.93590505943E+02  0.47000000000E+01 0. -1.
        -13    1    4    4    0    0 -0.85592141822E+02 -0.12265241205E+03 -0.19768833853E+03  0.24789172659E+03  0.00000000000E+00 0.  1.
         14    1    4    4    0    0  0.29594931249E+01  0.10700584213E+02 -0.16439119696E+02  0.19836979569E+02  0.00000000000E+00 0. -1.
         -5    1    5    5    0  502  0.26989750955E+02  0.73810739266E+01 -0.16503265236E+03  0.16745385410E+03  0.47000000000E+01 0.  1.
         13    1    6    6    0    0  0.33564740188E+02  0.11189513393E+03 -0.14723478124E+03  0.18794997629E+03  0.00000000000E+00 0. -1.
        -14    1    6    6    0    0  0.92574080530E+02  0.53900126937E+02 -0.13114834501E+03  0.16933715620E+03  0.00000000000E+00 0.  1.
</event>
<event>
12    1  0.8563264E-002  0.3281847E+03  0.7818608E-02  0.1071951E+00
         21   -1    0    0  503  502  0.00000000000E+00  0.00000000000E+00  0.22254974846E+04  0.22254974846E+04  0.00000000000E+00 0. -1.
         21   -1    0    0  501  503 -0.00000000000E+00 -0.00000000000E+00 -0.14526623276E+04  0.14526623276E+04  0.00000000000E+00 0.  1.
          6    2    1    2  501    0 -0.27051668412E+03 -0.67592970942E+02 -0.14217759768E+04  0.14591457942E+04  0.17294922491E+03 0.  0.
         24    2    3    3    0    0 -0.12188610283E+03 -0.69623859430E+02 -0.50060675733E+03  0.52604880294E+03  0.80103144235E+02 0.  0.
         -6    2    1    2    0  502  0.27051668412E+03  0.67592970942E+02  0.21946111339E+04  0.22190140180E+04  0.17308118642E+03 0.  0.
        -24    2    5    5    0    0  0.25937166584E+03  0.13081084193E+02  0.17735643743E+04  0.17942809006E+04  0.80427513112E+02 0.  0.
          5    1    3    3  501    0 -0.14863058128E+03  0.20308884877E+01 -0.92116921946E+03  0.93309699125E+03  0.47000000000E+01 0. -1.
        -11    1    4    4    0    0 -0.68577737086E+02 -0.42634949964E+02 -0.40746268683E+03  0.41538715211E+03  0.00000000000E+00 0.  1.
         12    1    4    4    0    0 -0.53308365746E+02 -0.26988909465E+02 -0.93144070504E+02  0.11066165082E+03  0.00000000000E+00 0. -1.
         -5    1    5    5    0  502  0.11145018277E+02  0.54511886749E+02  0.42104675962E+03  0.42473311740E+03  0.47000000000E+01 0.  1.
         11    1    6    6    0    0  0.87370974849E+02 -0.80151859717E+01  0.85695208445E+03  0.86143183450E+03  0.00000000000E+00 0. -1.
        -12    1    6    6    0    0  0.17200069099E+03  0.21096270165E+02  0.91661228981E+03  0.93284906611E+03  0.00000000000E+00 0.  1.
</event>
<event>
12    1  0.8563264E-002  0.2939148E+03  0.7818608E-02  0.1088516E+00
         21   -1    0    0  501  502  0.00000000000E+00  0.00000000000E+00  0.49517660760E+03  0.49517660760E+03  0.00000000000E+00 0. -1.
         21   -1    0    0  502  503 -0.00000000000E+00 -0.00000000000E+00 -0.17374065624E+03  0.17374065624E+03  0.00000000000E+00 0.  1.
         -6    2    1    2    0  503  0.20614318130E+03  0.11577641865E+03  0.14970892780E+03  0.32851152202E+03  0.17206936603E+03 0.  0.
        -24    2    3    3    0    0  0.18628776441E+02  0.39518541963E+02  0.42186886589E+02  0.99251854540E+02  0.78501278709E+02 0.  0.
          6    2    1    2  501    0 -0.20614318130E+03 -0.11577641865E+03  0.17172702356E+03  0.34040574182E+03  0.17460443330E+03 0.  0.
         24    2    5    5    0    0 -0.40368526324E+02 -0.47283620328E+02  0.57221845224E+01  0.95963118203E+02  0.72875359283E+02 0.  0.
          5    1    5    5  501    0 -0.16577465498E+03 -0.68492798324E+02  0.16600483903E+03  0.24444262361E+03  0.47000000000E+01 0. -1.
        -13    1    6    6    0    0 -0.56268333929E+02 -0.52588806175E+02 -0.29840327865E+01  0.77075368242E+02  0.00000000000E+00 0.  1.
         14    1    6    6    0    0  0.15899807605E+02  0.53051858468E+01  0.87062173090E+01  0.18887749960E+02  0.00000000000E+00 0. -1.
         -5    1    3    3    0  503  0.18751440486E+03  0.76257876689E+02  0.10752204121E+03  0.22925966748E+03  0.47000000000E+01 0.  1.
         13    1    4    4    0    0 -0.51269062035E+01  0.30408688438E+02  0.60498607288E+02  0.67904749344E+02  0.00000000000E+00 0. -1.
        -14    1    4    4    0    0  0.23755682645E+02  0.91098535251E+01 -0.18311720699E+02  0.31347105196E+02  0.00000000000E+00 0.  1.
</event>
<event>
12    1  0.8563264E-002  0.1812597E+03  0.7818608E-02  0.1166646E+00
         21   -1    0    0  501  502  0.00000000000E+00  0.00000000000E+00  0.11749868717E+03  0.11749868717E+03  0.00000000000E+00 0.  1.
         21   -1    0    0  502  503 -0.00000000000E+00 -0.00000000000E+00 -0.10675170551E+04  0.10675170551E+04  0.00000000000E+00 0.  1.
         -6    2    1    2    0  503  0.56754389836E+02 -0.47040748355E+01 -0.98407329523E+03  0.10005846989E+04  0.17183218595E+03 0.  0.
        -24    2    3    3    0    0  0.44207665198E+02 -0.66853935758E+02 -0.68729270947E+03  0.69707056148E+03  0.84334647644E+02 0.  0.
          6    2    1    2  501    0 -0.56754389836E+02  0.47040748355E+01  0.34054927254E+02  0.18443104345E+03  0.17208103507E+03 0.  0.
         24    2    5    5    0    0 -0.84891800310E+02  0.48079819794E+02  0.38093109521E+02  0.13235834393E+03  0.80928112447E+02 0.  0.
          5    1    5    5  501    0  0.28137410473E+02 -0.43375744958E+02 -0.40381822676E+01  0.52072699516E+02  0.47000000000E+01 0. -1.
        -11    1    6    6    0    0 -0.47726454928E+02  0.40027972976E+02  0.61638229159E+02  0.87631754600E+02  0.00000000000E+00 0.  1.
         12    1    6    6    0    0 -0.37165345382E+02  0.80518468180E+01 -0.23545119637E+02  0.44726589332E+02  0.00000000000E+00 0. -1.
         -5    1    3    3    0  503  0.12546724638E+02  0.62149860923E+02 -0.29678058575E+03  0.30351413738E+03  0.47000000000E+01 0.  1.
         13    1    4    4    0    0  0.68745870237E+02 -0.47358281180E+02 -0.44534403911E+03  0.45310055688E+03  0.00000000000E+00 0. -1.
        -14    1    4    4    0    0 -0.24538205039E+02 -0.19495654578E+02 -0.24194867036E+03  0.24397000460E+03  0.00000000000E+00 0.  1.
</event>
<event>
12    1  0.8563264E-002  0.1984016E+03  0.7818608E-02  0.1152959E+00
         21   -1    0    0  503  502  0.00000000000E+00  0.00000000000E+00  0.18639449737E+03  0.18639449737E+03  0.00000000000E+00 0. -1.
         21   -1    0    0  501  503 -0.00000000000E+00 -0.00000000000E+00 -0.20278470829E+03  0.20278470829E+03  0.00000000000E+00 0. -1.
          6    2    1    2  501    0 -0.91213499341E+02  0.17921243176E+02 -0.18579997528E+02  0.19076551875E+03  0.16554514012E+03 0.  0.
         24    2    3    3    0    0 -0.12167982342E+03  0.14743971982E+02  0.12539666499E+02  0.14684723731E+03  0.79896831798E+02 0.  0.
         -6    2    1    2    0  502  0.91213499341E+02 -0.17921243176E+02  0.21897866071E+01  0.19841368691E+03  0.17527727339E+03 0.  0.
        -24    2    5    5    0    0  0.18839649436E+01 -0.57173202767E+02  0.41782580408E+01  0.10070736129E+03  0.82777958046E+02 0.  0.
          5    1    3    3  501    0  0.30466324083E+02  0.31772711940E+01 -0.31119664028E+02  0.43918281439E+02  0.47000000000E+01 0. -1.
        -13    1    4    4    0    0 -0.26206392946E+02 -0.26482218609E+02 -0.13525945714E+02  0.39636273048E+02  0.00000000000E+00 0.  1.
         14    1    4    4    0    0 -0.95473430478E+02  0.41226190592E+02  0.26065612213E+02  0.10721096426E+03  0.00000000000E+00 0. -1.
         -5    1    5    5    0  502  0.89329534398E+02  0.39251959591E+02 -0.19884714337E+01  0.97706325619E+02  0.47000000000E+01 0.  1.
         13    1    6    6    0    0 -0.27096371501E+02 -0.45996513780E+02  0.29175843648E+02  0.60836851340E+02  0.00000000000E+00 0. -1.
        -14    1    6    6    0    0  0.28980336444E+02 -0.11176688987E+02 -0.24997585607E+02  0.39870509946E+02  0.00000000000E+00 0.  1.
</event>
<event>
12    1  0.8563264E-002  0.1974743E+03  0.7818608E-02  0.1151982E+00
         21   -1    0    0  503  502  0.00000000000E+00  0.00000000000E+00  0.94094181268E+02  0.94094181268E+02  0.00000000000E+00 0.  1.
         21   -1    0    0  501  503 -0.00000000000E+00 -0.00000000000E+00 -0.41411586707E+03  0.41411586707E+03  0.00000000000E+00 0. -1.
          6    2    1    2  501    0 -0.67509202840E+02  0.66735983813E+02 -0.16985113956E+03  0.26047168339E+03  0.17316149756E+03 0.  0.
         24    2    3    3    0    0 -0.42273855210E+02  0.10833179663E+03 -0.91957043376E+02  0.16851183001E+03  0.80107939889E+02 0.  0.
         -6    2    1    2    0  502  0.67509202840E+02 -0.66735983813E+02 -0.15017054624E+03  0.24773836494E+03  0.17266128837E+03 0.  0.
        -24    2    5    5    0    0  0.20015636250E+02 -0.57875337211E+01 -0.14876044057E+03  0.17031465518E+03  0.80270118035E+02 0.  0.
          5    1    3    3  501    0 -0.25235347630E+02 -0.41595812813E+02 -0.77894096181E+02  0.91959853378E+02  0.47000000000E+01 0. -1.
        -13    1    4    4    0    0  0.13672903193E+02  0.64566731973E+02 -0.24053102301E+02  0.70245020390E+02  0.00000000000E+00 0.  1.
         14    1    4    4    0    0 -0.55946758403E+02  0.43765064653E+02 -0.67903941075E+02  0.98266809622E+02  0.00000000000E+00 0. -1.
         -5    1    5    5    0  502  0.47493566591E+02 -0.60948450092E+02 -0.14101056767E+01  0.77423709767E+02  0.47000000000E+01 0.  1.
         11    1    6    6    0    0 -0.13527191779E+02 -0.11749197981E+02 -0.13037763478E+03  0.13160302512E+03  0.00000000000E+00 0. -1.
        -12    1    6    6    0    0  0.33542828029E+02  0.59616642598E+01 -0.18382805789E+02  0.38711630056E+02  0.00000000000E+00 0.  1.
</event>
<event>
12    1  0.8563264E-002  0.2829457E+03  0.7818608E-02  0.1094175E+00
         21   -1    0    0  501  502  0.00000000000E+00  0.00000000000E+00  0.22559142067E+03  0.22559142067E+03  0.00000000000E+00 0. -1.
         21   -1    0    0  502  503 -0.00000000000E+00 -0.00000000000E+00 -0.35572915133E+03  0.35572915133E+03  0.00000000000E+00 0. -1.
         -6    2    1    2    0  503 -0.17561182403E+03 -0.13964603059E+03 -0.84824755222E+02  0.29538703041E+03  0.17238831757E+03 0.  0.
        -24    2    3    3    0    0 -0.81274199384E+02 -0.58816213048E+01 -0.61546797857E+02  0.12998915281E+03  0.80430607150E+02 0.  0.
          6    2    1    2  501    0  0.17561182403E+03  0.13964603059E+03 -0.45312975439E+02  0.28593354159E+03  0.17135984904E+03 0.  0.
         24    2    5    5    0    0  0.34332434620E+02  0.32986191436E+02 -0.61563977294E+02  0.10810673758E+03  0.75034248969E+02 0.  0.
          5    1    5    5  501    0  0.14127938941E+03  0.10665983915E+03  0.16251001855E+02  0.17782680400E+03  0.47000000000E+01 0. -1.
        -11    1    6    6    0    0 -0.14456414687E+02  0.34580365857E+02 -0.14170854029E+02  0.40069972951E+02  0.00000000000E+00 0.  1.
         12    1    6    6    0    0  0.48788849308E+02 -0.15941744209E+01 -0.47393123265E+02  0.68036764633E+02  0.00000000000E+00 0. -1.
         -5    1    3    3    0  503 -0.94337624647E+02 -0.13376440928E+03 -0.23277957365E+02  0.16539787760E+03  0.47000000000E+01 0.  1.
         11    1    4    4    0    0 -0.49199627839E+02  0.91387652579E+00 -0.78828617939E+02  0.92926796759E+02  0.00000000000E+00 0. -1.
        -12    1    4    4    0    0 -0.32074571545E+02 -0.67954978306E+01  0.17281820081E+02  0.37062356049E+02  0.00000000000E+00 0.  1.
</event>
<event>
12    1  0.8563264E-002  0.2338851E+03  0.7818608E-02  0.1124762E+00
         21   -1    0    0  503  502  0.00000000000E+00  0.00000000000E+00  0.35145997113E+03  0.35145997113E+03  0.00000000000E+00 0. -1.
         21   -1    0    0  501  503 -0.00000000000E+00 -0.00000000000E+00 -0.15283225997E+03  0.15283225997E+03  0.00000000000E+00 0.  1.
          6    2    1    2  501    0 -0.14973217929E+03 -0.36455186460E+02  0.86465603248E+02  0.24490334477E+03  0.16956603906E+03 0.  0.
         24    2    3    3    0    0 -0.11185774447E+03 -0.53927759084E+02 -0.31095259013E+01  0.14598136860E+03  0.76684630992E+02 0.  0.
         -6    2    1    2    0  502  0.14973217929E+03  0.36455186460E+02  0.11216210792E+03  0.25938888633E+03  0.17593620936E+03 0.  0.
        -24    2    5    5    0    0  0.60213402367E+02  0.60921033593E+02  0.11973431816E+03  0.16616004173E+03  0.77044314281E+02 0.  0.
          5    1    3    3  501    0 -0.37874434821E+02  0.17472572624E+02  0.89575129149E+02  0.98921976169E+02  0.47000000000E+01 0. -1.
        -13    1    4    4    0    0 -0.10558002125E+03 -0.70702483182E+02  0.28683263026E+01  0.12709921051E+03  0.00000000000E+00 0.  1.
         14    1    4    4    0    0 -0.62777232140E+01  0.16774724098E+02 -0.59778522039E+01  0.18882158094E+02  0.00000000000E+00 0. -1.
         -5    1    5    5    0  502  0.89518776923E+02 -0.24465847133E+02 -0.75722102412E+01  0.93228844601E+02  0.47000000000E+01 0.  1.
         13    1    6    6    0    0  0.15036800319E+02  0.62137149649E+02  0.42802899857E+02  0.76936460579E+02  0.00000000000E+00 0. -1.
        -14    1    6    6    0    0  0.45176602048E+02 -0.12161160558E+01  0.76931418301E+02  0.89223581147E+02  0.00000000000E+00 0.  1.
</event>
<event>
12    1  0.8563264E-002  0.2306877E+03  0.7818608E-02  0.1126262E+00
         21   -1    0    0  501  502  0.00000000000E+00  0.00000000000E+00  0.21485335295E+03  0.21485335295E+03  0.00000000000E+00 0.  1.
         21   -1    0    0  502  503 -0.00000000000E+00 -0.00000000000E+00 -0.27619926339E+03  0.27619926339E+03  0.00000000000E+00 0. -1.
         -6    2    1    2    0  503  0.20429867279E+02  0.15106224535E+03 -0.11048143716E+03  0.25577916725E+03  0.17314633405E+03 0.  0.
        -24    2    3    3    0    0  0.38157197398E+02  0.15267330850E+03 -0.13675269019E+03  0.22369922814E+03  0.81085976337E+02 0.  0.
          6    2    1    2  501    0 -0.20429867279E+02 -0.15106224535E+03  0.49135526724E+02  0.23527344908E+03  0.17234301381E+03 0.  0.
         24    2    5    5    0    0 -0.36628390163E+02 -0.16267230800E+02  0.49741892663E+02  0.99425939830E+02  0.76190549686E+02 0.  0.
          5    1    5    5  501    0  0.16198522884E+02 -0.13479501455E+03 -0.60636593913E+00  0.13584750925E+03  0.47000000000E+01 0. -1.
        -11    1    6    6    0    0 -0.16858240115E+02  0.27893629101E+02  0.39899895006E+01  0.32835572485E+02  0.00000000000E+00 0.  1.
         12    1    6    6    0    0 -0.19770150048E+02 -0.44160859901E+02  0.45751903163E+02  0.66590367345E+02  0.00000000000E+00 0. -1.
         -5    1    3    3    0  503 -0.17727330119E+02 -0.16110631463E+01  0.26271253025E+02  0.32079939107E+02  0.47000000000E+01 0.  1.
         13    1    4    4    0    0 -0.87222887536E+01  0.87741909930E+02 -0.10607868081E+03  0.13793986951E+03  0.00000000000E+00 0. -1.
        -14    1    4    4    0    0  0.46879486152E+02  0.64931398566E+02 -0.30674009380E+02  0.85759358633E+02  0.00000000000E+00 0.  1.
</event>
<event>
12    1  0.8563264E-002  0.2929745E+03  0.7818608E-02  0.1088812E+00
         21   -1    0    0  501  502  0.00000000000E+00  0.00000000000E+00  0.56862324934E+03  0.56862324934E+03  0.00000000000E+00 0. -1.
         21   -1    0    0  502  503 -0.00000000000E+00 -0.00000000000E+00 -0.58115578531E+03  0.58115578531E+03  0.00000000000E+00 0. -1.
         -6    2    1    2    0  503  0.51753891020E+02  0.23148182701E+03 -0.50090445317E+03  0.58029246729E+03  0.17196445828E+03 0.  0.
        -24    2    3    3    0    0  0.73441600578E+02  0.21477647115E+03 -0.34023219337E+03  0.41723698370E+03  0.82499417591E+02 0.  0.
          6    2    1    2  501    0 -0.51753891020E+02 -0.23148182701E+03  0.48837191720E+03  0.56948656736E+03  0.17188810145E+03 0.  0.
         24    2    5    5    0    0 -0.41111731443E+02 -0.11039741745E+03  0.13574350569E+03  0.19646702846E+03  0.79342483528E+02 0.  0.
          5    1    5    5  501    0 -0.10642159577E+02 -0.12108440957E+03  0.35262841151E+03  0.37301953890E+03  0.47000000000E+01 0. -1.
        -11    1    6    6    0    0 -0.12633284146E+02 -0.18676364093E+02 -0.77124952259E+01  0.23830422293E+02  0.00000000000E+00 0.  1.
         12    1    6    6    0    0 -0.28478447297E+02 -0.91721053353E+02  0.14345600092E+03  0.17263660617E+03  0.00000000000E+00 0. -1.
         -5    1    3    3    0  503 -0.21687709558E+02  0.16705355864E+02 -0.16067225980E+03  0.16305548360E+03  0.47000000000E+01 0.  1.
         13    1    4    4    0    0  0.20639960082E+02  0.17007143996E+03 -0.22449180297E+03  0.28239488707E+03  0.00000000000E+00 0. -1.
        -14    1    4    4    0    0  0.52801640497E+02  0.44705031194E+02 -0.11574039040E+03  0.13484209663E+03  0.00000000000E+00 0.  1.
</event>
<event>
12    1  0.8563264E-002  0.2013285E+03  0.7818608E-02  0.1150504E+00
         21   -1    0    0  503  502  0.00000000000E+00  0.00000000000E+00  0.12098026135E+04  0.12098026135E+04  0.00000000000E+00 0.  1.
         21   -1    0    0  501  503 -0.00000000000E+00 -0.00000000000E+00 -0.67631514094E+02  0.67631514094E+02  0.00000000000E+00 0.  1.
          6    2    1    2  501    0 -0.10320416432E+03  0.17028848170E+02  0.10187765307E+03  0.21783815399E+03  0.16165804631E+03 0.  0.
         24    2    3    3    0    0 -0.79050789483E+02  0.70447931458E+02  0.81491490137E+02  0.15559130978E+03  0.79723612242E+02 0.  0.
         -6    2    1    2    0  502  0.10320416432E+03 -0.17028848170E+02  0.10402934464E+04  0.10595959736E+04  0.17202352044E+03 0.  0.
        -24    2    5    5    0    0  0.11756713126E+03  0.34529655100E+02  0.72911974387E+03  0.74381798643E+03  0.81457158043E+02 0.  0.
          5    1    3    3  501    0 -0.24153374836E+02 -0.53419083288E+02  0.20386162930E+02  0.62246844212E+02  0.47000000000E+01 0. -1.
        -11    1    4    4    0    0 -0.48867237605E+02  0.77677079371E+02  0.84057296344E+02  0.12444824081E+03  0.00000000000E+00 0.  1.
         12    1    4    4    0    0 -0.30183551878E+02 -0.72291479138E+01 -0.25658062072E+01  0.31143068972E+02  0.00000000000E+00 0. -1.
         -5    1    5    5    0  502 -0.14362966945E+02 -0.51558503270E+02  0.31117370250E+03  0.31577798721E+03  0.47000000000E+01 0.  1.
         13    1    6    6    0    0  0.37068532402E+02  0.45707945786E+01  0.72022902397E+02  0.81131169887E+02  0.00000000000E+00 0. -1.
        -14    1    6    6    0    0  0.80498598862E+02  0.29958860521E+02  0.65709684147E+03  0.66268681654E+03  0.00000000000E+00 0.  1.
</event>
<event>
12    1  0.8563264E-002  0.2664784E+03  0.7818608E-02  0.1103722E+00
         21   -1    0    0  501  502  0.00000000000E+00  0.00000000000E+00  0.10143244306E+04  0.10143244306E+04  0.00000000000E+00 0.  1.
         21   -1    0    0  502  503 -0.00000000000E+00 -0.00000000000E+00 -0.84752499071E+02  0.84752499071E+02  0.00000000000E+00 0.  1.
         -6    2    1    2    0  503  0.15440391791E+03 -0.13215057705E+03  0.70163184503E+03  0.75053179739E+03  0.17235541200E+03 0.  0.
        -24    2    3    3    0    0  0.15601106207E+03 -0.82928420927E+02  0.65309357764E+03  0.68122482107E+03  0.79495038801E+02 0.  0.
          6    2    1    2  501    0 -0.15440391791E+03  0.13215057705E+03  0.22794008652E+03  0.34854513230E+03  0.16799607535E+03 0.  0.
         24    2    5    5    0    0 -0.16772558710E+03  0.72922540024E+02  0.19747455374E+03  0.28045940746E+03  0.78814405073E+02 0.  0.
          5    1    5    5  501    0  0.13321669195E+02  0.59228037023E+02  0.30465532774E+02  0.68085724840E+02  0.47000000000E+01 0. -1.
        -13    1    6    6    0    0 -0.12556988878E+03  0.69172354886E+02  0.18912710134E+03  0.23732187449E+03  0.00000000000E+00 0.  1.
         14    1    6    6    0    0 -0.42155698322E+02  0.37501851375E+01  0.83474523997E+01  0.43137532975E+02  0.00000000000E+00 0. -1.
         -5    1    3    3    0  503 -0.16071441566E+01 -0.49222156121E+02  0.48538267388E+02  0.69306976319E+02  0.47000000000E+01 0. -1.
         13    1    4    4    0    0  0.59605150791E+01  0.92553546349E+01  0.10402676777E+03  0.10460763711E+03  0.00000000000E+00 0. -1.
        -14    1    4    4    0    0  0.15005054699E+03 -0.92183775562E+02  0.54906680988E+03  0.57661718396E+03  0.00000000000E+00 0.  1.
</event>
<event>
12    1  0.8563264E-002  0.1918656E+03  0.7818608E-02  0.1157927E+00
         21   -1    0    0  503  502  0.00000000000E+00  0.00000000000E+00  0.17468766147E+03  0.17468766147E+03  0.00000000000E+00 0. -1.
         21   -1    0    0  501  503 -0.00000000000E+00 -0.00000000000E+00 -0.21475448005E+03  0.21475448005E+03  0.00000000000E+00 0.  1.
          6    2    1    2  501    0 -0.85269871834E+02  0.76266190609E+01 -0.60772723129E+02  0.19646248393E+03  0.16605742186E+03 0.  0.
         24    2    3    3    0    0 -0.81524104221E+02 -0.23318650451E+02  0.13633085251E+02  0.11565434819E+03  0.77460494542E+02 0.  0.
         -6    2    1    2    0  502  0.85269871834E+02 -0.76266190609E+01  0.20705904549E+02  0.19297965760E+03  0.17170701034E+03 0.  0.
        -24    2    5    5    0    0  0.16682143947E+02 -0.49648589987E+02  0.50522414343E+02  0.10706553353E+03  0.78531762398E+02 0.  0.
          5    1    3    3  501    0 -0.37457676135E+01  0.30945269511E+02 -0.74405808380E+02  0.80808135734E+02  0.47000000000E+01 0. -1.
        -13    1    4    4    0    0 -0.41607488276E+01 -0.12559867190E+02 -0.25172443754E+02  0.28437897587E+02  0.00000000000E+00 0.  1.
         14    1    4    4    0    0 -0.77363355393E+02 -0.10758783261E+02  0.38805529005E+02  0.87216450606E+02  0.00000000000E+00 0. -1.
         -5    1    5    5    0  502  0.68587727887E+02  0.42021970926E+02 -0.29816509793E+02  0.85914124063E+02  0.47000000000E+01 0.  1.
         11    1    6    6    0    0  0.30954598797E+02 -0.51425657618E+02  0.60524864489E+01  0.60327589380E+02  0.00000000000E+00 0. -1.
        -12    1    6    6    0    0 -0.14272454850E+02  0.17770676314E+01  0.44469927894E+02  0.46737944153E+02  0.00000000000E+00 0.  1.
</event>
<event>
12    1  0.8563264E-002  0.2022980E+03  0.7818608E-02  0.1148054E+00
         21   -1    0    0  503  502  0.00000000000E+00  0.00000000000E+00  0.80778734792E+02  0.80778734792E+02  0.00000000000E+00 0.  1.
         21   -1    0    0  501  503 -0.00000000000E+00 -0.00000000000E+00 -0.20994059975E+04  0.20994059975E+04  0.00000000000E+00 0.  1.
          6    2    1    2  501    0  0.75106261294E+02  0.75865582780E+02 -0.19603510790E+04  0.19707614821E+04  0.17183692688E+03 0.  0.
         24    2    3    3    0    0  0.34730753449E+02 -0.17336997603E+02 -0.12373995689E+04  0.12406944451E+04  0.81597893787E+02 0.  0.
         -6    2    1    2    0  502 -0.75106261294E+02 -0.75865582780E+02 -0.58276183767E+02  0.20942325020E+03  0.17048591436E+03 0.  0.
        -24    2    5    5    0    0 -0.23366520033E+02  0.24080574963E+02 -0.37743044351E+02  0.94924625375E+02  0.80375859291E+02 0.  0.
          5    1    3    3  501    0  0.40375507845E+02  0.93202580382E+02 -0.72295151012E+03  0.73006703706E+03  0.47000000000E+01 0. -1.
        -13    1    4    4    0    0  0.22965319596E+02  0.16110672654E+02 -0.10228653938E+04  0.10232500054E+04  0.00000000000E+00 0.  1.
         14    1    4    4    0    0  0.11765433853E+02 -0.33447670257E+02 -0.21453417503E+03  0.21744443965E+03  0.00000000000E+00 0. -1.
         -5    1    5    5    0  502 -0.51739741261E+02 -0.99946157743E+02 -0.20533139416E+02  0.11449862483E+03  0.47000000000E+01 0.  1.
         13    1    6    6    0    0  0.78430591407E+01  0.30242377238E+02 -0.51523577322E+02  0.60256070048E+02  0.00000000000E+00 0. -1.
        -14    1    6    6    0    0 -0.31209579174E+02 -0.61618022741E+01  0.13780532971E+02  0.34668555327E+02  0.00000000000E+00 0.  1.
</event>
<event>
12    1  0.8563264E-002  0.2769891E+03  0.7818608E-02  0.1097698E+00
         21   -1    0    0  501  502  0.00000000000E+00  0.00000000000E+00  0.31595363835E+03  0.31595363835E+03  0.00000000000E+00 0.  1.
         21   -1    0    0  502  503 -0.00000000000E+00 -0.00000000000E+00 -0.92134250049E+03  0.92134250049E+03  0.00000000000E+00 0. -1.
         -6    2    1    2    0  503 -0.27706641116E+02  0.21167617706E+03 -0.83409598460E+03  0.87808879869E+03  0.17248004225E+03 0.  0.
        -24    2    3    3    0    0 -0.15568162617E+01  0.21108098571E+03 -0.57059772995E+03  0.61325377874E+03  0.77076724810E+02 0.  0.
          6    2    1    2  501    0  0.27706641116E+02 -0.21167617706E+03  0.22870712246E+03  0.35920734015E+03  0.17648938626E+03 0.  0.
         24    2    5    5    0    0 -0.32736393179E+02 -0.19194378826E+03  0.19745898982E+03  0.28820548556E+03  0.78474581575E+02 0.  0.
          5    1    5    5  501    0  0.60443034294E+02 -0.19732388791E+02  0.31248132631E+02  0.71001854589E+02  0.47000000000E+01 0. -1.
        -11    1    6    6    0    0  0.46093019108E+01 -0.13070107001E+03  0.89077547222E+02  0.15823661013E+03  0.00000000000E+00 0.  1.
         12    1    6    6    0    0 -0.37345695089E+02 -0.61242718258E+02  0.10838144260E+03  0.12996887543E+03  0.00000000000E+00 0. -1.
         -5    1    3    3    0  503 -0.26149824854E+02  0.59519134398E+00 -0.26349825465E+03  0.26483501995E+03  0.47000000000E+01 0.  1.
         11    1    4    4    0    0  0.96905922057E+01  0.64698107578E+02 -0.28163907852E+03  0.28913720489E+03  0.00000000000E+00 0. -1.
        -12    1    4    4    0    0 -0.11247408467E+02  0.14638287813E+03 -0.28895865143E+03  0.32411657385E+03  0.00000000000E+00 0.  1.
</event>
<event>
12    1  0.8563264E-002  0.1895150E+03  0.7818608E-02  0.1162127E+00
         21   -1    0    0  503  502  0.00000000000E+00  0.00000000000E+00  0.46239958742E+03  0.46239958742E+03  0.00000000000E+00 0.  1.
         21   -1    0    0  501  503 -0.00000000000E+00 -0.00000000000E+00 -0.74699196558E+02  0.74699196558E+02  0.00000000000E+00 0.  1.
          6    2    1    2  501    0 -0.21287418037E+02 -0.26025813356E+02  0.13732263778E+03  0.22308453927E+03  0.17256508247E+03 0.  0.
         24    2    3    3    0    0  0.52962578512E+02 -0.16599393743E+02  0.97456847885E+02  0.13815344615E+03  0.80671946108E+02 0.  0.
         -6    2    1    2    0  502  0.21287418037E+02  0.26025813356E+02  0.25037775308E+03  0.31401424471E+03  0.18650852397E+03 0.  0.
        -24    2    5    5    0    0  0.90209314272E+02  0.14997112036E+02  0.18115511478E+03  0.21559817038E+03  0.72820063905E+02 0.  0.
          5    1    3    3  501    0 -0.74249996549E+02 -0.94264196126E+01  0.39865789898E+02  0.84931093119E+02  0.47000000000E+01 0. -1.
        -13    1    4    4    0    0  0.46731483632E+02  0.22809731229E+02  0.30714377395E+02  0.60394439975E+02  0.00000000000E+00 0.  1.
         14    1    4    4    0    0  0.62310948804E+01 -0.39409124972E+02  0.66742470491E+02  0.77759006177E+02  0.00000000000E+00 0. -1.
         -5    1    5    5    0  502 -0.68921896235E+02  0.11028701320E+02  0.69222638294E+02  0.98416074326E+02  0.47000000000E+01 0.  1.
         11    1    6    6    0    0  0.89778410818E+02  0.34099554125E+02  0.13527532459E+03  0.16589863195E+03  0.00000000000E+00 0. -1.
        -12    1    6    6    0    0  0.43090345317E+00 -0.19102442089E+02  0.45879790192E+02  0.49699538424E+02  0.00000000000E+00 0.  1.
</event>
<event>
12    1  0.8563264E-002  0.1775902E+03  0.7818608E-02  0.1170401E+00
         21   -1    0    0  503  502  0.00000000000E+00  0.00000000000E+00  0.10840081623E+03  0.10840081623E+03  0.00000000000E+00 0. -1.
         21   -1    0    0  501  503 -0.00000000000E+00 -0.00000000000E+00 -0.62338088549E+03  0.62338088549E+03  0.00000000000E+00 0.  1.
          6    2    1    2  501    0  0.42412811301E+01 -0.41413137828E+02 -0.52567468253E+03  0.55486228103E+03  0.17264194914E+03 0.  0.
         24    2    3    3    0    0 -0.23130785888E+02  0.36727433692E+02 -0.32873964509E+03  0.34117868797E+03  0.80306943847E+02 0.  0.
         -6    2    1    2    0  502 -0.42412811301E+01  0.41413137828E+02  0.10694613269E+02  0.17691942069E+03  0.17161896810E+03 0.  0.
        -24    2    5    5    0    0 -0.61072629549E+02 -0.17117856470E+02 -0.10533214043E+02  0.92489626722E+02  0.66486805932E+02 0.  0.
          5    1    3    3  501    0  0.27372067018E+02 -0.78140571520E+02 -0.19693503744E+03  0.21368359306E+03  0.47000000000E+01 0. -1.
        -13    1    4    4    0    0  0.18146510892E+01  0.22349426925E+02 -0.29880280643E+03  0.29964296583E+03  0.00000000000E+00 0.  1.
         14    1    4    4    0    0 -0.24945436977E+02  0.14378006767E+02 -0.29936838659E+02  0.41535722137E+02  0.00000000000E+00 0. -1.
         -5    1    5    5    0  502  0.56831348419E+02  0.58530994298E+02  0.21227827312E+02  0.84429793965E+02  0.47000000000E+01 0.  1.
         13    1    6    6    0    0 -0.20776839425E+02  0.91029404943E+01  0.24208095757E+02  0.33174877277E+02  0.00000000000E+00 0. -1.
        -14    1    6    6    0    0 -0.40295790124E+02 -0.26220796964E+02 -0.34741309800E+02  0.59314749445E+02  0.00000000000E+00 0.  1.
</event>
<event>
12    1  0.8563264E-002  0.1887003E+03  0.7818608E-02  0.1160913E+00
         21   -1    0    0  503  502  0.00000000000E+00  0.00000000000E+00  0.62468183008E+03  0.62468183008E+03  0.00000000000E+00 0.  1.
         21   -1    0    0  501  503 -0.00000000000E+00 -0.00000000000E+00 -0.64789900475E+02  0.64789900475E+02  0.00000000000E+00 0.  1.
          6    2    1    2  501    0  0.61685280587E+02  0.12736517910E+02  0.14481466028E+03  0.23351457373E+03  0.17201882915E+03 0.  0.
         24    2    3    3    0    0 -0.24617194331E+01  0.55839010373E+02  0.45978401445E+02  0.10796235937E+03  0.80111188358E+02 0.  0.
         -6    2    1    2    0  502 -0.61685280587E+02 -0.12736517910E+02  0.41507726932E+03  0.45595715683E+03  0.17787775753E+03 0.  0.
        -24    2    5    5    0    0 -0.11943245388E+02 -0.70308612385E+02  0.17982700575E+03  0.20866463240E+03  0.78212752992E+02 0.  0.
          5    1    3    3  501    0  0.64147000020E+02 -0.43102492463E+02  0.98836258835E+02  0.12555221435E+03  0.47000000000E+01 0. -1.
        -11    1    4    4    0    0  0.60418187982E+01 -0.16086061130E+02 -0.66595971332E+01  0.18428650820E+02  0.00000000000E+00 0.  1.
         12    1    4    4    0    0 -0.85035382313E+01  0.71925071503E+02  0.52637998579E+02  0.89533708554E+02  0.00000000000E+00 0. -1.
         -5    1    5    5    0  502 -0.49742035199E+02  0.57572094475E+02  0.23525026357E+03  0.24729252443E+03  0.47000000000E+01 0.  1.
         11    1    6    6    0    0  0.27525578231E+02 -0.27394201025E+02  0.34003981491E+02  0.51617540274E+02  0.00000000000E+00 0. -1.
        -12    1    6    6    0    0 -0.39468823619E+02 -0.42914411360E+02  0.14582302426E+03  0.15704709212E+03  0.00000000000E+00 0.  1.
</event>
<event>
12    1  0.8563264E-002  0.2139759E+03  0.7818608E-02  0.1141471E+00
         21   -1    0    0  501  502  0.00000000000E+00  0.00000000000E+00  0.14553005806E+04  0.14553005806E+04  0.00000000000E+00 0. -1.
         21   -1    0    0  502  503 -0.00000000000E+00 -0.00000000000E+00 -0.29389106563E+02  0.29389106563E+02  0.00000000000E+00 0. -1.
         -6    2    1    2    0  503 -0.88274352245E+02 -0.47688775828E+02  0.78126812049E+03  0.81004046189E+03  0.18899495547E+03 0.  0.
        -24    2    3    3    0    0  0.20484558723E+02  0.21158597253E+02  0.33971085587E+03  0.35008027945E+03  0.79280723217E+02 0.  0.
          6    2    1    2  501    0  0.88274352245E+02  0.47688775828E+02  0.64464335356E+03  0.67464922529E+03  0.17181368773E+03 0.  0.
         24    2    5    5    0    0 -0.14503813354E+02 -0.10862768898E+02  0.25796907903E+03  0.27025990880E+03  0.78511223499E+02 0.  0.
          5    1    5    5  501    0  0.10277816560E+03  0.58551544726E+02  0.38667427453E+03  0.40438931649E+03  0.47000000000E+01 0. -1.
        -13    1    6    6    0    0  0.94444502412E+01  0.69942885554E+01  0.22673722124E+03  0.22704159357E+03  0.00000000000E+00 0.  1.
         14    1    6    6    0    0 -0.23948263595E+02 -0.17857057453E+02  0.31231857789E+02  0.43218315227E+02  0.00000000000E+00 0. -1.
         -5    1    3    3    0  503 -0.10875891097E+03 -0.68847373081E+02  0.44155726462E+03  0.45996018244E+03  0.47000000000E+01 0.  1.
         11    1    4    4    0    0 -0.22933956084E+02 -0.15229381056E+02  0.12747963780E+03  0.13041839763E+03  0.00000000000E+00 0. -1.
        -12    1    4    4    0    0  0.43418514807E+02  0.36387978310E+02  0.21223121808E+03  0.21966188181E+03  0.00000000000E+00 0.  1.
</event>
<event>
12    1  0.8563264E-002  0.1946458E+03  0.7818608E-02  0.1154427E+00
         21   -1    0    0  501  502  0.00000000000E+00  0.00000000000E+00  0.45058814372E+03  0.45058814372E+03  0.00000000000E+00 0.  1.
         21   -1    0    0  502  503 -0.00000000000E+00 -0.00000000000E+00 -0.12428449481E+03  0.12428449481E+03  0.00000000000E+00 0.  1.
         -6    2    1    2    0  503  0.85935108028E+02 -0.20449960045E+02 -0.80454112470E+00  0.19423270007E+03  0.17298164883E+03 0.  0.
        -24    2    3    3    0    0  0.11036116980E+03  0.54649169539E+01 -0.38229604685E+02  0.14235844127E+03  0.81209420686E+02 0.  0.
          6    2    1    2  501    0 -0.85935108028E+02  0.20449960045E+02  0.32710819003E+03  0.38063993847E+03  0.17344725744E+03 0.  0.
         24    2    5    5    0    0 -0.12089335073E+03 -0.82564300699E+01  0.21896344713E+03  0.26332194759E+03  0.81915114694E+02 0.  0.
          5    1    5    5  501    0  0.34958242703E+02  0.28706390115E+02  0.10814474290E+03  0.11731799088E+03  0.47000000000E+01 0. -1.
        -13    1    6    6    0    0 -0.85312826441E+02 -0.38064481047E+02  0.10655965289E+03  0.14171147694E+03  0.00000000000E+00 0.  1.
         14    1    6    6    0    0 -0.35580524290E+02  0.29808050977E+02  0.11240379425E+03  0.12161047066E+03  0.00000000000E+00 0. -1.
         -5    1    3    3    0  503 -0.24426061773E+02 -0.25914876999E+02  0.37425063560E+02  0.51874258800E+02  0.47000000000E+01 0.  1.
         11    1    4    4    0    0  0.63851340696E+01 -0.17684480045E+02 -0.30147984267E+02  0.35530433813E+02  0.00000000000E+00 0. -1.
        -12    1    4    4    0    0  0.10397603573E+03  0.23149396999E+02 -0.80816204175E+01  0.10682800745E+03  0.00000000000E+00 0.  1.
</event>
<event>
12    1  0.8563264E-002  0.2063290E+03  0.7818608E-02  0.1146649E+00
         21   -1    0    0  503  502  0.00000000000E+00  0.00000000000E+00  0.14332850934E+03  0.14332850934E+03  0.00000000000E+00 0. -1.
         21   -1    0    0  501  503 -0.00000000000E+00 -0.00000000000E+00 -0.85398242641E+03  0.85398242641E+03  0.00000000000E+00 0.  1.
          6    2    1    2  501    0 -0.10264068204E+03  0.34641516937E+02  0.49585010032E+02  0.21220347025E+03  0.17560323249E+03 0.  0.
         24    2    3    3    0    0 -0.95295765642E+01  0.45455394855E+01  0.68461725431E+02  0.11243440587E+03  0.88560787126E+02 0.  0.
         -6    2    1    2    0  502  0.10264068204E+03 -0.34641516937E+02 -0.76023892710E+03  0.78510746550E+03  0.16338715311E+03 0.  0.
        -24    2    5    5    0    0  0.50627725171E+02 -0.78321560285E+02 -0.39879076945E+03  0.41730295963E+03  0.80064030353E+02 0.  0.
          5    1    3    3  501    0 -0.93111105479E+02  0.30095977452E+02 -0.18876715398E+02  0.99769064376E+02  0.47000000000E+01 0. -1.
        -11    1    4    4    0    0  0.27603644567E+02 -0.36948893341E+01 -0.62995011785E+01  0.28553408127E+02  0.00000000000E+00 0.  1.
         12    1    4    4    0    0 -0.37133221131E+02  0.82404288196E+01  0.74761226609E+02  0.83880997746E+02  0.00000000000E+00 0. -1.
         -5    1    5    5    0  502  0.52012956872E+02  0.43680043348E+02 -0.36144815765E+03  0.36780450587E+03  0.47000000000E+01 0.  1.
         11    1    6    6    0    0  0.56057109866E+02 -0.79908487250E+02 -0.39981209112E+03  0.41155494664E+03  0.00000000000E+00 0. -1.
        -12    1    6    6    0    0 -0.54293846950E+01  0.15869269645E+01  0.10213216690E+01  0.57480129879E+01  0.00000000000E+00 0.  1.
</event>
<event>
12    1  0.8563264E-002  0.2063315E+03  0.7818608E-02  0.1144710E+00
         21   -1    0    0  501  502  0.00000000000E+00  0.00000000000E+00  0.10631689820E+03  0.10631689820E+03  0.00000000000E+00 0.  1.
         21   -1    0    0  502  503 -0.00000000000E+00 -0.00000000000E+00 -0.40970408093E+03  0.40970408093E+03  0.00000000000E+00 0. -1.
         -6    2    1    2    0  503 -0.11304382717E+03  0.25759603909E+01 -0.19406263934E+03  0.28251611125E+03  0.17137532697E+03 0.  0.
        -24    2    3    3    0    0 -0.16016123292E+02 -0.14965050538E+02 -0.15727846685E+03  0.17717273115E+03  0.78569660720E+02 0.  0.
          6    2    1    2  501    0  0.11304382717E+03 -0.25759603909E+01 -0.10932454339E+03  0.23350486788E+03  0.17258946985E+03 0.  0.
         24    2    5    5    0    0  0.12961496821E+03 -0.44475804506E+02 -0.69072320632E+02  0.17290345627E+03  0.79664813703E+02 0.  0.
          5    1    5    5  501    0 -0.16571141042E+02  0.41899844115E+02 -0.40252222757E+02  0.60601411610E+02  0.47000000000E+01 0. -1.
        -13    1    6    6    0    0 -0.87995629294E+01 -0.68079138828E+01  0.41166674778E+01  0.11862839049E+02  0.00000000000E+00 0.  1.
         14    1    6    6    0    0  0.13841453114E+03 -0.37667890623E+02 -0.73188988110E+02  0.16104061722E+03  0.00000000000E+00 0. -1.
         -5    1    3    3    0  503 -0.97027703878E+02  0.17541010929E+02 -0.36784172488E+02  0.10534338010E+03  0.47000000000E+01 0.  1.
         11    1    4    4    0    0 -0.29917694703E+02 -0.41207834430E+02 -0.11187698769E+03  0.12292117169E+03  0.00000000000E+00 0. -1.
        -12    1    4    4    0    0  0.13901571410E+02  0.26242783892E+02 -0.45401479163E+02  0.54251559464E+02  0.00000000000E+00 0.  1.
</event>
<event>
12    1  0.8563264E-002  0.2062215E+03  0.7818608E-02  0.1144648E+00
         21   -1    0    0  503  502  0.00000000000E+00  0.00000000000E+00  0.12064077796E+03  0.12064077796E+03  0.00000000000E+00 0. -1.
         21   -1    0    0  501  503 -0.00000000000E+00 -0.00000000000E+00 -0.35805209526E+03  0.35805209526E+03  0.00000000000E+00 0. -1.
          6    2    1    2  501    0  0.10324074014E+03 -0.44620643426E+02 -0.14975720604E+03  0.25486176363E+03  0.17285151302E+03 0.  0.
         24    2    3    3    0    0  0.11914333620E+03 -0.35463496406E+02 -0.50785557508E+02  0.15409359843E+03  0.75583530528E+02 0.  0.
         -6    2    1    2    0  502 -0.10324074014E+03  0.44620643426E+02 -0.87654111264E+02  0.22383110960E+03  0.17253251913E+03 0.  0.
        -24    2    5    5    0    0 -0.63635733413E+02  0.39662834792E+02  0.17073368653E+02  0.11165681899E+03  0.80951209245E+02 0.  0.
          5    1    3    3  501    0 -0.15902596069E+02 -0.91571470201E+01 -0.98971648533E+02  0.10076816519E+03  0.47000000000E+01 0. -1.
        -13    1    4    4    0    0 -0.24350771672E+01 -0.95196571613E+01  0.11434562375E+02  0.15076560947E+02  0.00000000000E+00 0.  1.
         14    1    4    4    0    0  0.12157841337E+03 -0.25943839245E+02 -0.62220119884E+02  0.13901703748E+03  0.00000000000E+00 0. -1.
         -5    1    5    5    0  502 -0.39605006723E+02  0.49578086340E+01 -0.10472747992E+03  0.11217429061E+03  0.47000000000E+01 0.  1.
         13    1    6    6    0    0 -0.69047344792E+02  0.57072606604E+02  0.22998919353E+02  0.92486585723E+02  0.00000000000E+00 0. -1.
        -14    1    6    6    0    0  0.54116113791E+01 -0.17409771812E+02 -0.59255507000E+01  0.19170233263E+02  0.00000000000E+00 0.  1.
</event>
<event>
12    1  0.8563264E-002  0.1843196E+03  0.7818608E-02  0.1164224E+00
         21   -1    0    0  501  502  0.00000000000E+00  0.00000000000E+00  0.18980175249E+03  0.18980175249E+03  0.00000000000E+00 0. -1.
         21   -1    0    0  502  503 -0.00000000000E+00 -0.00000000000E+00 -0.20151674890E+03  0.20151674890E+03  0.00000000000E+00 0. -1.
         -6    2    1    2    0  503  0.58771073577E+02  0.35325140036E+01  0.62640248731E+02  0.19467283387E+03  0.17466308637E+03 0.  0.
        -24    2    3    3    0    0  0.83659472822E+01  0.24495458228E+02  0.97549987630E+02  0.12970436723E+03  0.81469050834E+02 0.  0.
          6    2    1    2  501    0 -0.58771073577E+02 -0.35325140036E+01 -0.74355245132E+02  0.19664566752E+03  0.17226229516E+03 0.  0.
         24    2    5    5    0    0 -0.39148770871E+02 -0.67880986749E+02 -0.63194387947E+02  0.12829059865E+03  0.79526677349E+02 0.  0.
          5    1    5    5  501    0 -0.19622302707E+02  0.64348472745E+02 -0.11160857185E+02  0.68355068877E+02  0.47000000000E+01 0. -1.
        -13    1    6    6    0    0  0.20438715649E+02 -0.41910565720E+02 -0.25300615428E+02  0.53050520802E+02  0.00000000000E+00 0.  1.
         14    1    6    6    0    0 -0.59587486520E+02 -0.25970421029E+02 -0.37893772519E+02  0.75240077843E+02  0.00000000000E+00 0. -1.
         -5    1    3    3    0  503  0.50405126295E+02 -0.20962944224E+02 -0.34909738899E+02  0.64968466639E+02  0.47000000000E+01 0.  1.
         11    1    4    4    0    0  0.10319277360E+02  0.54454357512E+02  0.61458304851E+02  0.82758007301E+02  0.00000000000E+00 0. -1.
        -12    1    4    4    0    0 -0.19533300774E+01 -0.29958899283E+02  0.36091682779E+02  0.46946359928E+02  0.00000000000E+00 0.  1.
</event>
<event>
12    1  0.8563264E-002  0.2097988E+03  0.7818608E-02  0.1141770E+00
         21   -1    0    0  501  502  0.00000000000E+00  0.00000000000E+00  0.21607225800E+03  0.21607225800E+03  0.00000000000E+00 0. -1.
         21   -1    0    0  502  503 -0.00000000000E+00 -0.00000000000E+00 -0.20575076282E+03  0.20575076282E+03  0.00000000000E+00 0. -1.
         -6    2    1    2    0  503 -0.30298085921E+02 -0.11558842031E+03 -0.16951431733E+02  0.21048246278E+03  0.17244378557E+03 0.  0.
        -24    2    3    3    0    0 -0.83066945569E+01 -0.14877922902E+03 -0.81515526737E+01  0.16943640392E+03  0.80237067507E+02 0.  0.
          6    2    1    2  501    0  0.30298085921E+02  0.11558842031E+03  0.27272926911E+02  0.21134055803E+03  0.17216957340E+03 0.  0.
         24    2    5    5    0    0  0.84370863362E+02  0.89882686401E+02  0.34515769500E+02  0.15084924638E+03  0.79792336040E+02 0.  0.
          5    1    5    5  501    0 -0.54072777441E+02  0.25705733913E+02 -0.72428425895E+01  0.60491311648E+02  0.47000000000E+01 0. -1.
        -13    1    6    6    0    0  0.47360238027E+02 -0.19745260609E+01  0.59150737988E+01  0.47769017126E+02  0.00000000000E+00 0.  1.
         14    1    6    6    0    0  0.37010625335E+02  0.91857212461E+02  0.28600695702E+02  0.10308022926E+03  0.00000000000E+00 0. -1.
         -5    1    3    3    0  503 -0.21991391364E+02  0.33190808703E+02 -0.87998790593E+01  0.41046058860E+02  0.47000000000E+01 0.  1.
         13    1    4    4    0    0  0.18398205141E+02 -0.11190021645E+03  0.21056467350E+02  0.11534091733E+03  0.00000000000E+00 0. -1.
        -14    1    4    4    0    0 -0.26704899697E+02 -0.36879012569E+02 -0.29208020024E+02  0.54095486592E+02  0.00000000000E+00 0.  1.
</event>
<event>
12    1  0.8563264E-002  0.2325320E+03  0.7818608E-02  0.1124913E+00
         21   -1    0    0  503  502  0.00000000000E+00  0.00000000000E+00  0.76047983329E+02  0.76047983329E+02  0.00000000000E+00 0.  1.
         21   -1    0    0  501  503 -0.00000000000E+00 -0.00000000000E+00 -0.92327549385E+03  0.92327549385E+03  0.00000000000E+00 0. -1.
          6    2    1    2  501    0  0.23774184110E+02  0.15507453135E+03 -0.66378527956E+03  0.70333636921E+03  0.17163283135E+03 0.  0.
         24    2    3    3    0    0  0.38624112563E+02  0.10664887456E+03 -0.24607173267E+03  0.28253681852E+03  0.80062173859E+02 0.  0.
         -6    2    1    2    0  502 -0.23774184110E+02 -0.15507453135E+03 -0.18344223096E+03  0.29598710797E+03  0.17130088698E+03 0.  0.
        -24    2    5    5    0    0  0.44152968148E+02 -0.48210172980E+02 -0.69879621851E+02  0.12583233933E+03  0.81712365619E+02 0.  0.
          5    1    3    3  501    0 -0.14849928454E+02  0.48425656783E+02 -0.41771354689E+03  0.42079955069E+03  0.47000000000E+01 0. -1.
        -11    1    4    4    0    0  0.55090956759E+02  0.10009263799E+03 -0.23587529622E+03  0.26208911664E+03  0.00000000000E+00 0.  1.
         12    1    4    4    0    0 -0.16466844196E+02  0.65562365725E+01 -0.10196436455E+02  0.20447701879E+02  0.00000000000E+00 0. -1.
         -5    1    5    5    0  502 -0.67927152258E+02 -0.10686435837E+03 -0.11356260911E+03  0.17015476864E+03  0.47000000000E+01 0.  1.
         13    1    6    6    0    0  0.46458243633E+01 -0.25382248497E+02 -0.75566904522E+02  0.79851106954E+02  0.00000000000E+00 0. -1.
        -14    1    6    6    0    0  0.39507143785E+02 -0.22827924483E+02  0.56872826706E+01  0.45981232372E+02  0.00000000000E+00 0.  1.
</event>
<event>
12    1  0.8563264E-002  0.1890312E+03  0.7818608E-02  0.1161367E+00
         21   -1    0    0  503  502  0.00000000000E+00  0.00000000000E+00  0.13180838433E+03  0.13180838433E+03  0.00000000000E+00 0.  1.
         21   -1    0    0  501  503 -0.00000000000E+00 -0.00000000000E+00 -0.39114927508E+03  0.39114927508E+03  0.00000000000E+00 0.  1.
          6    2    1    2  501    0 -0.44295278521E+02 -0.41559120747E+02 -0.28379831636E+03  0.34099012122E+03  0.17900711212E+03 0.  0.
         24    2    3    3    0    0 -0.11509042208E+02 -0.40528171184E+02 -0.29352383749E+03  0.30645498101E+03  0.77352579116E+02 0.  0.
         -6    2    1    2    0  502  0.44295278521E+02  0.41559120747E+02  0.24457425605E+02  0.18196753819E+03  0.16977864139E+03 0.  0.
        -24    2    5    5    0    0  0.47973617134E+02  0.91073601985E+02  0.23209487949E+02  0.13207904878E+03  0.79437559615E+02 0.  0.
          5    1    3    3  501    0 -0.32786236313E+02 -0.10309495627E+01  0.97255211344E+01  0.34535140219E+02  0.47000000000E+01 0. -1.
        -13    1    4    4    0    0 -0.99216890844E+00 -0.62152639448E+02 -0.18056492145E+03  0.19096498592E+03  0.00000000000E+00 0.  1.
         14    1    4    4    0    0 -0.10516873300E+02  0.21624468264E+02 -0.11295891604E+03  0.11548999508E+03  0.00000000000E+00 0. -1.
         -5    1    5    5    0  502 -0.36783386126E+01 -0.49514481238E+02  0.12479376562E+01  0.49888489410E+02  0.47000000000E+01 0.  1.
         11    1    6    6    0    0  0.34543067498E+01  0.21612310676E+02 -0.27569638659E+02  0.35200982709E+02  0.00000000000E+00 0. -1.
        -12    1    6    6    0    0  0.44519310384E+02  0.69461291309E+02  0.50779126608E+02  0.96878066075E+02  0.00000000000E+00 0.  1.
</event>
<event>
12    1  0.8563264E-002  0.1819118E+03  0.7818608E-02  0.1166095E+00
         21   -1    0    0  501  502  0.00000000000E+00  0.00000000000E+00  0.25948247063E+03  0.25948247063E+03  0.00000000000E+00 0. -1.
         21   -1    0    0  502  503 -0.00000000000E+00 -0.00000000000E+00 -0.20609058838E+03  0.20609058838E+03  0.00000000000E+00 0. -1.
         -6    2    1    2    0  503 -0.13928926341E+02  0.56289520865E+02 -0.11735022164E+03  0.21647856179E+03  0.17242206368E+03 0.  0.
        -24    2    3    3    0    0 -0.16480293682E+02 -0.24871428321E+02 -0.24297329212E+02  0.92888352070E+02  0.84544057845E+02 0.  0.
          6    2    1    2  501    0  0.13928926341E+02 -0.56289520865E+02  0.17074210389E+03  0.24909449723E+03  0.17185074152E+03 0.  0.
         24    2    5    5    0    0 -0.36524727503E+02 -0.60463288532E+02  0.47730884249E+02  0.11598987041E+03  0.78648253304E+02 0.  0.
          5    1    5    5  501    0  0.50453653844E+02  0.41737676666E+01  0.12301121964E+03  0.13310462681E+03  0.47000000000E+01 0. -1.
        -11    1    6    6    0    0 -0.50999938619E+02 -0.24847167119E+02  0.27211024114E+01  0.56795949251E+02  0.00000000000E+00 0.  1.
         12    1    6    6    0    0  0.14475211116E+02 -0.35616121413E+02  0.45009781838E+02  0.59193921161E+02  0.00000000000E+00 0. -1.
         -5    1    3    3    0  503  0.25513673406E+01  0.81160949186E+02 -0.93052892431E+02  0.12359020972E+03  0.47000000000E+01 0.  1.
         11    1    4    4    0    0 -0.34006261004E+02  0.12662555757E+02  0.11577110631E+02  0.38089310788E+02  0.00000000000E+00 0. -1.
        -12    1    4    4    0    0  0.17525967322E+02 -0.37533984078E+02 -0.35874439843E+02  0.54799041281E+02  0.00000000000E+00 0.  1.
</event>
<event>
12    1  0.8563264E-002  0.1944796E+03  0.7818608E-02  0.1154544E+00
         21   -1    0    0  503  502  0.00000000000E+00  0.00000000000E+00  0.15296905146E+03  0.15296905146E+03  0.00000000000E+00 0. -1.
         21   -1    0    0  501  503 -0.00000000000E+00 -0.00000000000E+00 -0.25867115132E+03  0.25867115132E+03  0.00000000000E+00 0. -1.
          6    2    1    2  501    0 -0.36309930494E+02  0.81592196601E+02 -0.96808576108E+02  0.21724232974E+03  0.17276177768E+03 0.  0.
         24    2    3    3    0    0 -0.25035154935E+02  0.34934815811E+02  0.17249430732E+02  0.93406346805E+02  0.81117214107E+02 0.  0.
         -6    2    1    2    0  502  0.36309930494E+02 -0.81592196601E+02 -0.88935237526E+01  0.19439787303E+03  0.17244054243E+03 0.  0.
        -24    2    5    5    0    0  0.35801591104E+02 -0.12355521571E+03 -0.12948615037E+02  0.15197515332E+03  0.79882008863E+02 0.  0.
          5    1    3    3  501    0 -0.11274775559E+02  0.46657380790E+02 -0.11405800684E+03  0.12383598294E+03  0.47000000000E+01 0. -1.
        -11    1    4    4    0    0  0.19008772094E+01 -0.17862832523E+02 -0.17183372000E+02  0.24858849394E+02  0.00000000000E+00 0.  1.
         12    1    4    4    0    0 -0.26936032145E+02  0.52797648334E+02  0.34432802732E+02  0.68547497411E+02  0.00000000000E+00 0. -1.
         -5    1    5    5    0  502  0.50833939055E+00  0.41963019113E+02  0.40550912842E+01  0.42422719707E+02  0.47000000000E+01 0.  1.
         13    1    6    6    0    0 -0.22666246176E+02 -0.16629685869E+02  0.57148256116E+01  0.28687356092E+02  0.00000000000E+00 0. -1.
        -14    1    6    6    0    0  0.58467837279E+02 -0.10692552985E+03 -0.18663440648E+02  0.12328779723E+03  0.00000000000E+00 0.  1.
</event>
<event>
12    1  0.8563264E-002  0.2085679E+03  0.7818608E-02  0.1143401E+00
         21   -1    0    0  503  502  0.00000000000E+00  0.00000000000E+00  0.63310804160E+03  0.63310804160E+03  0.00000000000E+00 0. -1.
         21   -1    0    0  501  503 -0.00000000000E+00 -0.00000000000E+00 -0.10269840128E+03  0.10269840128E+03  0.00000000000E+00 0. -1.
          6    2    1    2  501    0  0.81844211802E+02 -0.75901818626E+02  0.48602708453E+02  0.21079361395E+03  0.17208185069E+03 0.  0.
         24    2    3    3    0    0  0.62035112189E+02 -0.18862556928E+01  0.78947091206E+02  0.12824922863E+03  0.79770347429E+02 0.  0.
         -6    2    1    2    0  502 -0.81844211802E+02  0.75901818626E+02  0.48180693186E+03  0.52501282893E+03  0.17618453357E+03 0.  0.
        -24    2    5    5    0    0 -0.41852018789E+02  0.10395356111E+03  0.23119577657E+03  0.26964188908E+03  0.81837197542E+02 0.  0.
          5    1    3    3  501    0  0.19809099613E+02 -0.74015562933E+02 -0.30344382753E+02  0.82544385323E+02  0.47000000000E+01 0. -1.
        -11    1    4    4    0    0  0.34263224191E+02 -0.40763734552E+02  0.43446236952E+02  0.68725730930E+02  0.00000000000E+00 0.  1.
         12    1    4    4    0    0  0.27771887999E+02  0.38877478859E+02  0.35500854253E+02  0.59523497698E+02  0.00000000000E+00 0. -1.
         -5    1    5    5    0  502 -0.39992193013E+02 -0.28051742480E+02  0.25061115530E+03  0.25537093984E+03  0.47000000000E+01 0.  1.
         11    1    6    6    0    0 -0.66548538694E+02  0.79692978208E+02  0.18103494417E+03  0.20869434537E+03  0.00000000000E+00 0. -1.
        -12    1    6    6    0    0  0.24696519904E+02  0.24260582898E+02  0.50160832397E+02  0.60947543713E+02  0.00000000000E+00 0.  1.
</event>
<event>
12    1  0.8563264E-002  0.2091669E+03  0.7818608E-02  0.1142387E+00
         21   -1    0    0  501  502  0.00000000000E+00  0.00000000000E+00  0.44731498749E+03  0.44731498749E+03  0.00000000000E+00 0.  1.
         21   -1    0    0  502  503 -0.00000000000E+00 -0.00000000000E+00 -0.13178852258E+03  0.13178852258E+03  0.00000000000E+00 0. -1.
         -6    2    1    2    0  503  0.61634648457E+02  0.10128805878E+03  0.10151879256E+02  0.20941311129E+03  0.17231566900E+03 0.  0.
        -24    2    3    3    0    0  0.56950270522E+02  0.13922870788E+03  0.16762691676E+02  0.17033333273E+03  0.78131235716E+02 0.  0.
          6    2    1    2  501    0 -0.61634648457E+02 -0.10128805878E+03  0.30537458566E+03  0.36969039878E+03  0.17134541909E+03 0.  0.
         24    2    5    5    0    0 -0.77076507079E+02 -0.33088491381E+02  0.26502458314E+03  0.28882109253E+03  0.78383401394E+02 0.  0.
          5    1    5    5  501    0  0.15441858622E+02 -0.68199567397E+02  0.40350002517E+02  0.80869306254E+02  0.47000000000E+01 0. -1.
        -11    1    6    6    0    0 -0.37440140623E+02 -0.11158620113E+02  0.29432708617E+02  0.48913835152E+02  0.00000000000E+00 0.  1.
         12    1    6    6    0    0 -0.39636366456E+02 -0.21929871268E+02  0.23559187452E+03  0.23990725737E+03  0.00000000000E+00 0. -1.
         -5    1    3    3    0  503  0.46843779343E+01 -0.37940649106E+02 -0.66108124201E+01  0.39079778557E+02  0.47000000000E+01 0.  1.
         13    1    4    4    0    0  0.33411468025E+01  0.98828943360E+02  0.26817056963E+02  0.10245720010E+03  0.00000000000E+00 0. -1.
        -14    1    4    4    0    0  0.53609123720E+02  0.40399764524E+02 -0.10054365287E+02  0.67876132631E+02  0.00000000000E+00 0.  1.
</event>
<event>
12    1  0.8563264E-002  0.1820325E+03  0.7818608E-02  0.1166047E+00
         21   -1    0    0  501  502  0.00000000000E+00  0.00000000000E+00  0.33432449544E+03  0.33432449544E+03  0.00000000000E+00 0.  1.
         21   -1    0    0  502  503 -0.00000000000E+00 -0.00000000000E+00 -0.14249159041E+03  0.14249159041E+03  0.00000000000E+00 0. -1.
         -6    2    1    2    0  503  0.45820773596E+02 -0.37937572073E+02  0.22798464835E+03  0.29122841962E+03  0.17116714008E+03 0.  0.
        -24    2    3    3    0    0 -0.27139676374E+02 -0.61785938440E+01  0.54041304143E+02  0.99890402090E+02  0.79264700975E+02 0.  0.
          6    2    1    2  501    0 -0.45820773596E+02  0.37937572073E+02 -0.36151743318E+02  0.18558766622E+03  0.17203787560E+03 0.  0.
         24    2    5    5    0    0 -0.77805415530E+02  0.11539934897E+01 -0.65436910059E+02  0.12852839911E+03  0.78629166291E+02 0.  0.
          5    1    5    5  501    0  0.31984641934E+02  0.36783578583E+02  0.29285166741E+02  0.57059267118E+02  0.47000000000E+01 0. -1.
        -13    1    6    6    0    0 -0.21036762640E+02 -0.32098510142E+02 -0.46040293461E+02  0.59938037653E+02  0.00000000000E+00 0.  1.
         14    1    6    6    0    0 -0.56768652890E+02  0.33252503631E+02 -0.19396616598E+02  0.68590361453E+02  0.00000000000E+00 0. -1.
         -5    1    3    3    0  503  0.72960449971E+02 -0.31758978229E+02  0.17394334421E+03  0.19133801753E+03  0.47000000000E+01 0.  1.
         13    1    4    4    0    0 -0.27955624768E+01 -0.41054849196E+02  0.30983476031E+02  0.51510111619E+02  0.00000000000E+00 0. -1.
        -14    1    4    4    0    0 -0.24344113897E+02  0.34876255352E+02  0.23057828112E+02  0.48380290471E+02  0.00000000000E+00 0.  1.
</event>
<event>
12    1  0.8563264E-002  0.1727806E+03  0.7818608E-02  0.1175037E+00
         21   -1    0    0  501  502  0.00000000000E+00  0.00000000000E+00  0.96685349263E+02  0.96685349263E+02  0.00000000000E+00 0. -1.
         21   -1    0    0  502  503 -0.00000000000E+00 -0.00000000000E+00 -0.62187075122E+03  0.62187075122E+03  0.00000000000E+00 0. -1.
         -6    2    1    2    0  503  0.52347028002E+01  0.11163599260E+02 -0.51777766831E+03  0.54584507696E+03  0.17234008872E+03 0.  0.
        -24    2    3    3    0    0 -0.15859196935E+02  0.68024751340E+02 -0.25461764095E+03  0.27574614467E+03  0.79541890210E+02 0.  0.
          6    2    1    2  501    0 -0.52347028002E+01 -0.11163599260E+02 -0.74077336420E+01  0.17271102352E+03  0.17211099635E+03 0.  0.
         24    2    5    5    0    0  0.17628442796E+02 -0.59397822703E+02 -0.40788663910E+02  0.10957909623E+03  0.80653579517E+02 0.  0.
          5    1    5    5  501    0 -0.22863145596E+02  0.48234223444E+02  0.33380930268E+02  0.63131927290E+02  0.47000000000E+01 0. -1.
        -13    1    6    6    0    0  0.47959310288E+02 -0.39528107500E+02 -0.38796215651E+02  0.73264678220E+02  0.00000000000E+00 0.  1.
         14    1    6    6    0    0 -0.30330867492E+02 -0.19869715203E+02 -0.19924482581E+01  0.36314418006E+02  0.00000000000E+00 0. -1.
         -5    1    3    3    0  503  0.21093899735E+02 -0.56861152080E+02 -0.26316002736E+03  0.27009893229E+03  0.47000000000E+01 0.  1.
         13    1    4    4    0    0 -0.22748995794E+00 -0.69161485585E+01 -0.12513308506E+03  0.12532427474E+03  0.00000000000E+00 0. -1.
        -14    1    4    4    0    0 -0.15631706977E+02  0.74940899899E+02 -0.12948455588E+03  0.15042186993E+03  0.00000000000E+00 0.  1.
</event>
<event>
12    1  0.8563264E-002  0.1975615E+03  0.7818608E-02  0.1151910E+00
         21   -1    0    0  503  502  0.00000000000E+00  0.00000000000E+00  0.48231908455E+02  0.48231908455E+02  0.00000000000E+00 0.  1.
         21   -1    0    0  501  503 -0.00000000000E+00 -0.00000000000E+00 -0.81558091804E+03  0.81558091804E+03  0.00000000000E+00 0.  1.
          6    2    1    2  501    0 -0.87600296597E+02 -0.40617471322E+02 -0.42745502950E+03  0.47090163172E+03  0.17235705258E+03 0.  0.
         24    2    3    3    0    0 -0.85416124212E+02 -0.54562828016E+02 -0.17051836649E+03  0.21353461289E+03  0.79041135594E+02 0.  0.
         -6    2    1    2    0  502  0.87600296597E+02  0.40617471322E+02 -0.33989398009E+03  0.39291119478E+03  0.17183625444E+03 0.  0.
        -24    2    5    5    0    0 -0.15735826526E+02  0.43391113802E+02 -0.13679697510E+03  0.16497144206E+03  0.79823300510E+02 0.  0.
          5    1    3    3  501    0 -0.21841723853E+01  0.13945356694E+02 -0.25693666301E+03  0.25736701883E+03  0.47000000000E+01 0. -1.
        -13    1    4    4    0    0 -0.68251370093E+02 -0.46011644003E+02 -0.17539350990E+03  0.19374778507E+03  0.00000000000E+00 0.  1.
         14    1    4    4    0    0 -0.17164754119E+02 -0.85511840136E+01  0.48751434127E+01  0.19786827823E+02  0.00000000000E+00 0. -1.
         -5    1    5    5    0  502  0.10333612312E+03 -0.27736424805E+01 -0.20309700499E+03  0.22793975272E+03  0.47000000000E+01 0.  1.
         11    1    6    6    0    0 -0.14266384122E+02  0.67006840384E+02 -0.10369539912E+03  0.12428267044E+03  0.00000000000E+00 0. -1.
        -12    1    6    6    0    0 -0.14694424043E+01 -0.23615726582E+02 -0.33101575983E+02  0.40688771615E+02  0.00000000000E+00 0.  1.
</event>
<event>
12    1  0.8563264E-002  0.1850878E+03  0.7818608E-02  0.1163133E+00
         21   -1    0    0  501  502  0.00000000000E+00  0.00000000000E+00  0.23701230414E+02  0.23701230414E+02  0.00000000000E+00 0. -1.
         21   -1    0    0  502  503 -0.00000000000E+00 -0.00000000000E+00 -0.14941453249E+04  0.14941453249E+04  0.00000000000E+00 0. -1.
         -6    2    1    2    0  503 -0.63754427712E+02 -0.31751097495E+02 -0.59195566346E+03  0.62021690790E+03  0.17083543572E+03 0.  0.
        -24    2    3    3    0    0 -0.10519127628E+03 -0.45456385498E+02 -0.47115681277E+03  0.49168948022E+03  0.81475856240E+02 0.  0.
          6    2    1    2  501    0  0.63754427712E+02  0.31751097495E+02 -0.87848843097E+03  0.89762964736E+03  0.17007145917E+03 0.  0.
         24    2    5    5    0    0  0.69974386464E+02  0.46101900739E+02 -0.39460246955E+03  0.41346815870E+03  0.90680809825E+02 0.  0.
          5    1    5    5  501    0 -0.62199587522E+01 -0.14350803244E+02 -0.48388596142E+03  0.48416148866E+03  0.47000000000E+01 0. -1.
        -13    1    6    6    0    0  0.37601073605E+02  0.68695583450E+01 -0.40340470581E+02  0.55573241176E+02  0.00000000000E+00 0.  1.
         14    1    6    6    0    0  0.32373312859E+02  0.39232342394E+02 -0.35426199897E+03  0.35789491753E+03  0.00000000000E+00 0. -1.
         -5    1    3    3    0  503  0.41436848569E+02  0.13705288003E+02 -0.12079885070E+03  0.12852742769E+03  0.47000000000E+01 0.  1.
         13    1    4    4    0    0 -0.40353374821E+02  0.15597222399E+02 -0.84766760282E+02  0.95168649537E+02  0.00000000000E+00 0. -1.
        -14    1    4    4    0    0 -0.64837901460E+02 -0.61053607897E+02 -0.38639005248E+03  0.39652083068E+03  0.00000000000E+00 0.  1.
</event>
<event>
12    1  0.8563264E-002  0.2101070E+03  0.7818608E-02  0.1142197E+00
         21   -1    0    0  501  502  0.00000000000E+00  0.00000000000E+00  0.69845681136E+03  0.69845681136E+03  0.00000000000E+00 0. -1.
         21   -1    0    0  502  503 -0.00000000000E+00 -0.00000000000E+00 -0.73499664187E+02  0.73499664187E+02  0.00000000000E+00 0. -1.
         -6    2    1    2    0  503 -0.11825448646E+03 -0.20392927885E+02  0.15839993525E+03  0.26027239200E+03  0.16808088374E+03 0.  0.
        -24    2    3    3    0    0 -0.15727800365E+02 -0.24510710653E+02  0.74989656334E+02  0.12795443357E+03  0.99502511891E+02 0.  0.
          6    2    1    2  501    0  0.11825448646E+03  0.20392927885E+02  0.46655721193E+03  0.51168408355E+03  0.17246731364E+03 0.  0.
         24    2    5    5    0    0  0.13682991017E+03 -0.15468262343E+02  0.42425948429E+03  0.45301331489E+03  0.79140773319E+02 0.  0.
          5    1    5    5  501    0 -0.18575423720E+02  0.35861190228E+02  0.42297727645E+02  0.58670768657E+02  0.47000000000E+01 0. -1.
        -11    1    6    6    0    0  0.20383147704E+02  0.19885575876E+02  0.34704484537E+02  0.44892205172E+02  0.00000000000E+00 0.  1.
         12    1    6    6    0    0  0.11644676247E+03 -0.35353838219E+02  0.38955499975E+03  0.40812110972E+03  0.00000000000E+00 0. -1.
         -5    1    3    3    0  503 -0.10252668609E+03  0.41177827684E+01  0.83410278912E+02  0.13231795843E+03  0.47000000000E+01 0.  1.
         11    1    4    4    0    0 -0.47562920471E+02 -0.31888326714E+02  0.76122337144E+02  0.95256007666E+02  0.00000000000E+00 0. -1.
        -12    1    4    4    0    0  0.31835120106E+02  0.73776160603E+01 -0.11326808100E+01  0.32698425905E+02  0.00000000000E+00 0.  1.
</event>
<event>
12    1  0.8563264E-002  0.2357584E+03  0.7818608E-02  0.1123283E+00
         21   -1    0    0  503  502  0.00000000000E+00  0.00000000000E+00  0.38703855992E+02  0.38703855992E+02  0.00000000000E+00 0. -1.
         21   -1    0    0  501  503 -0.00000000000E+00 -0.00000000000E+00 -0.14143143685E+04  0.14143143685E+04  0.00000000000E+00 0.  1.
          6    2    1    2  501    0  0.34876775684E+02 -0.15522083544E+03 -0.67919861516E+03  0.71895255532E+03  0.17398885232E+03 0.  0.
         24    2    3    3    0    0 -0.14403235119E+02 -0.14208203618E+03 -0.35303352288E+03  0.38879061789E+03  0.78298902242E+02 0.  0.
         -6    2    1    2    0  502 -0.34876775684E+02  0.15522083544E+03 -0.69641189733E+03  0.73406566915E+03  0.16897626651E+03 0.  0.
        -24    2    5    5    0    0 -0.81157461252E+02  0.14000644010E+03 -0.50323138324E+03  0.53478149842E+03  0.81000550501E+02 0.  0.
          5    1    3    3  501    0  0.49280010804E+02 -0.13138799265E+02 -0.32616509228E+03  0.33016193744E+03  0.47000000000E+01 0. -1.
        -11    1    4    4    0    0  0.17812740131E+02 -0.59594413595E+02 -0.22266846172E+03  0.23119262897E+03  0.00000000000E+00 0.  1.
         12    1    4    4    0    0 -0.32215975250E+02 -0.82487622582E+02 -0.13036506116E+03  0.15759798892E+03  0.00000000000E+00 0. -1.
         -5    1    5    5    0  502  0.46280685568E+02  0.15214395345E+02 -0.19318051408E+03  0.19928417073E+03  0.47000000000E+01 0.  1.
         13    1    6    6    0    0 -0.22617789248E+02  0.10204508961E+03 -0.22753385373E+03  0.25039253043E+03  0.00000000000E+00 0. -1.
        -14    1    6    6    0    0 -0.58539672005E+02  0.37961350483E+02 -0.27569752952E+03  0.28438896798E+03  0.00000000000E+00 0.  1.
</event>
<event>
12    1  0.8563264E-002  0.2008478E+03  0.7818608E-02  0.1149246E+00
         21   -1    0    0  501  502  0.00000000000E+00  0.00000000000E+00  0.18359345836E+03  0.18359345836E+03  0.00000000000E+00 0.  1.
         21   -1    0    0  502  503 -0.00000000000E+00 -0.00000000000E+00 -0.23960554759E+03  0.23960554759E+03  0.00000000000E+00 0.  1.
         -6    2    1    2    0  503 -0.97822465316E+02  0.29957611399E+02 -0.90622000727E+02  0.21939108361E+03  0.17161995033E+03 0.  0.
        -24    2    3    3    0    0 -0.34130604323E+02  0.66355855939E+02 -0.92417507339E+01  0.10972650204E+03  0.79915564969E+02 0.  0.
          6    2    1    2  501    0  0.97822465316E+02 -0.29957611399E+02  0.34609911499E+02  0.20380792235E+03  0.17283845069E+03 0.  0.
         24    2    5    5    0    0  0.17482120913E+01  0.27617774085E+02  0.36968328742E+02  0.91679249483E+02  0.79199935384E+02 0.  0.
          5    1    5    5  501    0  0.96074253225E+02 -0.57575385484E+02 -0.23584172424E+01  0.11212867286E+03  0.47000000000E+01 0. -1.
        -13    1    6    6    0    0  0.26122762502E+02  0.75461491311E+01  0.50477838617E+02  0.57335462664E+02  0.00000000000E+00 0.  1.
         14    1    6    6    0    0 -0.24374550411E+02  0.20071624954E+02 -0.13509509875E+02  0.34343786819E+02  0.00000000000E+00 0. -1.
         -5    1    3    3    0  503 -0.63691860993E+02 -0.36398244539E+02 -0.81380249993E+02  0.10966458157E+03  0.47000000000E+01 0.  1.
         13    1    4    4    0    0 -0.85330956032E+01  0.70759055109E+02 -0.29148504270E+02  0.77001901935E+02  0.00000000000E+00 0. -1.
        -14    1    4    4    0    0 -0.25597508720E+02 -0.44031991699E+01  0.19906753537E+02  0.32724600104E+02  0.00000000000E+00 0.  1.
</event>
<event>
12    1  0.8563264E-002  0.1763735E+03  0.7818608E-02  0.1171403E+00
         21   -1    0    0  501  502  0.00000000000E+00  0.00000000000E+00  0.48011513268E+02  0.48011513268E+02  0.00000000000E+00 0. -1.
         21   -1    0    0  502  503 -0.00000000000E+00 -0.00000000000E+00 -0.93106823262E+03  0.93106823262E+03  0.00000000000E+00 0. -1.
         -6    2    1    2    0  503  0.50303881897E+01  0.39295090426E+02 -0.71194419997E+03  0.73346584742E+03  0.17186679879E+03 0.  0.
        -24    2    3    3    0    0 -0.25119135142E+02  0.80738308499E+02 -0.60724704353E+03  0.61680343425E+03  0.67437817371E+02 0.  0.
          6    2    1    2  501    0 -0.50303881897E+01 -0.39295090426E+02 -0.17111251938E+03  0.24561389847E+03  0.17168949850E+03 0.  0.
         24    2    5    5    0    0  0.34877339203E+02  0.30071486207E+02 -0.80351892323E+02  0.12451918313E+03  0.83233871074E+02 0.  0.
          5    1    5    5  501    0 -0.39907727393E+02 -0.69366576633E+02 -0.90760627059E+02  0.12109471534E+03  0.47000000000E+01 0. -1.
        -11    1    6    6    0    0 -0.14535087296E+01  0.37125622532E+02 -0.12356242864E+01  0.37174605625E+02  0.00000000000E+00 0.  1.
         12    1    6    6    0    0  0.36330847933E+02 -0.70541363248E+01 -0.79116268037E+02  0.87344577501E+02  0.00000000000E+00 0. -1.
         -5    1    3    3    0  503  0.30149523332E+02 -0.41443218073E+02 -0.10469715644E+03  0.11666241318E+03  0.47000000000E+01 0.  1.
         11    1    4    4    0    0 -0.12588520815E+02  0.22967481808E+02 -0.41131384361E+03  0.41214688404E+03  0.00000000000E+00 0. -1.
        -12    1    4    4    0    0 -0.12530614327E+02  0.57770826691E+02 -0.19593319992E+03  0.20465655020E+03  0.00000000000E+00 0.  1.
</event>
<event>
12    1  0.8563264E-002  0.2227806E+03  0.7818608E-02  0.1132198E+00
         21   -1    0    0  501  502  0.00000000000E+00  0.00000000000E+00  0.98482710082E+02  0.98482710082E+02  0.00000000000E+00 0.  1.
         21   -1    0    0  502  503 -0.00000000000E+00 -0.00000000000E+00 -0.58441058945E+03  0.58441058945E+03  0.00000000000E+00 0.  1.
         -6    2    1    2    0  503  0.11451539700E+03  0.85515234604E+02 -0.11179923167E+03  0.24745850631E+03  0.16825579527E+03 0.  0.
        -24    2    3    3    0    0  0.92307180347E+02  0.98256522104E+02 -0.25053979419E+02  0.15689154720E+03  0.76238415639E+02 0.  0.
          6    2    1    2  501    0 -0.11451539700E+03 -0.85515234604E+02 -0.37412864770E+03  0.43543479322E+03  0.17089348325E+03 0.  0.
         24    2    5    5    0    0  0.30877348020E+01 -0.46165480063E+02 -0.21130625220E+03  0.23071028988E+03  0.80225432263E+02 0.  0.
          5    1    5    5  501    0 -0.11760313181E+03 -0.39349754541E+02 -0.16282239550E+03  0.20472450335E+03  0.47000000000E+01 0. -1.
        -11    1    6    6    0    0 -0.27315358087E+02 -0.11247809583E+01 -0.13048987718E+03  0.13332292363E+03  0.00000000000E+00 0.  1.
         12    1    6    6    0    0  0.30403092889E+02 -0.45040699105E+02 -0.80816375019E+02  0.97387366245E+02  0.00000000000E+00 0. -1.
         -5    1    3    3    0  503  0.22208216657E+02 -0.12741287500E+02 -0.86745252249E+02  0.90566959107E+02  0.47000000000E+01 0.  1.
         11    1    4    4    0    0  0.63872362431E+01 -0.12867006971E+02 -0.34545000050E+01  0.14774648067E+02  0.00000000000E+00 0. -1.
        -12    1    4    4    0    0  0.85919944104E+02  0.11112352907E+03 -0.21599479414E+02  0.14211689914E+03  0.00000000000E+00 0.  1.
</event>
<event>
12    1  0.8563264E-002  0.1756525E+03  0.7818608E-02  0.1172202E+00
         21   -1    0    0  503  502  0.00000000000E+00  0.00000000000E+00  0.28904995310E+03  0.28904995310E+03  0.00000000000E+00 0.  1.
         21   -1    0    0  501  503 -0.00000000000E+00 -0.00000000000E+00 -0.19327393545E+03  0.19327393545E+03  0.00000000000E+00 0.  1.
          6    2    1    2  501    0 -0.31625419120E+02 -0.15342623751E+02 -0.11379457713E+03  0.20887623618E+03  0.17159403550E+03 0.  0.
         24    2    3    3    0    0  0.29499641842E+02  0.38464596680E+01 -0.44951247294E+02  0.11471686031E+03  0.10126361284E+03 0.  0.
         -6    2    1    2    0  502  0.31625419120E+02  0.15342623751E+02  0.20957059479E+03  0.27344765237E+03  0.17209945134E+03 0.  0.
        -24    2    5    5    0    0  0.13646437795E+02  0.75604768053E+02  0.14986523898E+03  0.18660532791E+03  0.80371962367E+02 0.  0.
          5    1    3    3  501    0 -0.61125060962E+02 -0.19189083419E+02 -0.68843329840E+02  0.94159375866E+02  0.47000000000E+01 0. -1.
        -11    1    4    4    0    0 -0.10309621201E+02 -0.40673142109E+02 -0.33984749052E+02  0.53995888237E+02  0.00000000000E+00 0.  1.
         12    1    4    4    0    0  0.39809263042E+02  0.44519601777E+02 -0.10966498242E+02  0.60720972078E+02  0.00000000000E+00 0. -1.
         -5    1    5    5    0  502  0.17978981325E+02 -0.60262144302E+02  0.59705355808E+02  0.86842324459E+02  0.47000000000E+01 0.  1.
         13    1    6    6    0    0 -0.18175493556E+02  0.55103720265E+02  0.40195495914E+02  0.70586446608E+02  0.00000000000E+00 0. -1.
        -14    1    6    6    0    0  0.31821931351E+02  0.20501047788E+02  0.10966974307E+03  0.11601888131E+03  0.00000000000E+00 0.  1.
</event>
<event>
12    1  0.8563264E-002  0.1953207E+03  0.7818608E-02  0.1154131E+00
         21   -1    0    0  501  502  0.00000000000E+00  0.00000000000E+00  0.13113217930E+03  0.13113217930E+03  0.00000000000E+00 0.  1.
         21   -1    0    0  502  503 -0.00000000000E+00 -0.00000000000E+00 -0.29336974273E+03  0.29336974273E+03  0.00000000000E+00 0.  1.
         -6    2    1    2    0  503  0.17889470818E+02 -0.86242646205E+02 -0.10931568637E+03  0.22383052230E+03  0.17433403637E+03 0.  0.
        -24    2    3    3    0    0 -0.41739587246E+01 -0.60772685182E+02  0.13878659312E+02  0.96024221024E+02  0.72919768536E+02 0.  0.
          6    2    1    2  501    0 -0.17889470818E+02  0.86242646205E+02 -0.52921877066E+02  0.20067139973E+03  0.17236721964E+03 0.  0.
         24    2    5    5    0    0 -0.69845927304E+02  0.41174967250E+02 -0.94244006787E+00  0.11433183216E+03  0.80604268888E+02 0.  0.
          5    1    5    5  501    0  0.51956456486E+02  0.45067678955E+02 -0.51979436998E+02  0.86339567566E+02  0.47000000000E+01 0. -1.
        -11    1    6    6    0    0 -0.14702509931E+02  0.55411469543E+02 -0.21223335117E+01  0.57368101369E+02  0.00000000000E+00 0.  1.
         12    1    6    6    0    0 -0.55143417373E+02 -0.14236502293E+02  0.11798934438E+01  0.56963730791E+02  0.00000000000E+00 0. -1.
         -5    1    3    3    0  503  0.22063429543E+02 -0.25469961023E+02 -0.12319434568E+03  0.12780630128E+03  0.47000000000E+01 0.  1.
         13    1    4    4    0    0  0.11152591936E+02  0.11494878289E+02  0.15280383155E+02  0.22136003324E+02  0.00000000000E+00 0. -1.
        -14    1    4    4    0    0 -0.15326550661E+02 -0.72267563471E+02 -0.14017238437E+01  0.73888217700E+02  0.00000000000E+00 0.  1.
</event>
<event>
12    1  0.8563264E-002  0.2497080E+03  0.7818608E-02  0.1114811E+00
         21   -1    0    0  501  502  0.00000000000E+00  0.00000000000E+00  0.94772827012E+03  0.94772827012E+03  0.00000000000E+00 0.  1.
         21   -1    0    0  502  503 -0.00000000000E+00 -0.00000000000E+00 -0.74037983662E+02  0.74037983662E+02  0.00000000000E+00 0.  1.
         -6    2    1    2    0  503  0.16332098986E+03  0.72472116884E+02  0.63446913968E+03  0.68183955102E+03  0.17443660933E+03 0.  0.
        -24    2    3    3    0    0  0.41486242935E+02 -0.25739746177E+02  0.18480059347E+03  0.20569548978E+03  0.75998238682E+02 0.  0.
          6    2    1    2  501    0 -0.16332098986E+03 -0.72472116884E+02  0.23922114678E+03  0.33992670276E+03  0.16247292922E+03 0.  0.
         24    2    5    5    0    0 -0.13892288678E+03 -0.31843841097E+02  0.88306103763E+02  0.18167574878E+03  0.69960782192E+02 0.  0.
          5    1    5    5  501    0 -0.24398103078E+02 -0.40628275787E+02  0.15091504301E+03  0.15825095398E+03  0.47000000000E+01 0. -1.
        -13    1    6    6    0    0 -0.32536257498E+02 -0.13243197314E+02 -0.90462544178E+01  0.36274302834E+02  0.00000000000E+00 0.  1.
         14    1    6    6    0    0 -0.10638662929E+03 -0.18600643783E+02  0.97352358181E+02  0.14540144595E+03  0.00000000000E+00 0. -1.
         -5    1    3    3    0  503  0.12183474693E+03  0.98211863061E+02  0.44966854621E+03  0.47614406124E+03  0.47000000000E+01 0.  1.
         11    1    4    4    0    0  0.39241711781E+02  0.15527467546E+02  0.54082710548E+02  0.68599954607E+02  0.00000000000E+00 0. -1.
        -12    1    4    4    0    0  0.22445311531E+01 -0.41267213723E+02  0.13071788292E+03  0.13709553517E+03  0.00000000000E+00 0.  1.
</event>
<event>
12    1  0.8563264E-002  0.4692262E+03  0.7818608E-02  0.1022143E+00
         21   -1    0    0  501  502  0.00000000000E+00  0.00000000000E+00  0.24535208423E+03  0.24535208423E+03  0.00000000000E+00 0. -1.
         21   -1    0    0  502  503 -0.00000000000E+00 -0.00000000000E+00 -0.93874147946E+03  0.93874147946E+03  0.00000000000E+00 0.  1.
         -6    2    1    2    0  503 -0.39574623039E+03  0.18428795852E+03 -0.47112925591E+03  0.66488951712E+03  0.17186670324E+03 0.  0.
        -24    2    3    3    0    0 -0.13750026404E+03  0.12684543735E+03 -0.19201529354E+03  0.28028931384E+03  0.81829938979E+02 0.  0.
          6    2    1    2  501    0  0.39574623039E+03 -0.18428795852E+03 -0.22226013933E+03  0.51920404657E+03  0.17203529262E+03 0.  0.
         24    2    5    5    0    0  0.29927885833E+03 -0.15149354970E+03 -0.97770043253E+02  0.35826523476E+03  0.79226677568E+02 0.  0.
          5    1    5    5  501    0  0.96467372067E+02 -0.32794408820E+02 -0.12449009608E+03  0.16093881180E+03  0.47000000000E+01 0. -1.
        -11    1    6    6    0    0  0.33172513340E+02 -0.47133171435E+02 -0.27783601703E+02  0.63983435469E+02  0.00000000000E+00 0.  1.
         12    1    6    6    0    0  0.26610634499E+03 -0.10436037827E+03 -0.69986441550E+02  0.29428179929E+03  0.00000000000E+00 0. -1.
         -5    1    3    3    0  503 -0.25824596636E+03  0.57442521174E+02 -0.27911396237E+03  0.38460020329E+03  0.47000000000E+01 0.  1.
         11    1    4    4    0    0 -0.15541020198E+01  0.25819584119E+01 -0.43729716881E+02  0.43833433368E+02  0.00000000000E+00 0. -1.
        -12    1    4    4    0    0 -0.13594616202E+03  0.12426347894E+03 -0.14828557666E+03  0.23645588047E+03  0.00000000000E+00 0.  1.
</event>
<event>
12    1  0.8563264E-002  0.2053121E+03  0.7818608E-02  0.1145366E+00
         21   -1    0    0  501  502  0.00000000000E+00  0.00000000000E+00  0.54673183336E+03  0.54673183336E+03  0.00000000000E+00 0. -1.
         21   -1    0    0  502  503 -0.00000000000E+00 -0.00000000000E+00 -0.77069567849E+02  0.77069567849E+02  0.00000000000E+00 0.  1.
         -6    2    1    2    0  503 -0.43201591630E+01  0.11205725635E+03  0.24088629514E+03  0.31640668140E+03  0.17178908108E+03 0.  0.
        -24    2    3    3    0    0 -0.33323017020E+02  0.17160327937E+01  0.14003849840E+03  0.16406259886E+03  0.78691721796E+02 0.  0.
          6    2    1    2  501    0  0.43201591630E+01 -0.11205725635E+03  0.22877597038E+03  0.30739471981E+03  0.17198132651E+03 0.  0.
         24    2    5    5    0    0  0.40155922726E+02 -0.13319970382E+03  0.20047489264E+03  0.25685517058E+03  0.80185639907E+02 0.  0.
          5    1    5    5  501    0 -0.35835763563E+02  0.21142447470E+02  0.28301077736E+02  0.50539549228E+02  0.47000000000E+01 0. -1.
        -11    1    6    6    0    0  0.21856270596E+02 -0.80544200105E+00  0.97103955592E+01  0.23929836671E+02  0.00000000000E+00 0.  1.
         12    1    6    6    0    0  0.18299652130E+02 -0.13239426181E+03  0.19076449708E+03  0.23292533391E+03  0.00000000000E+00 0. -1.
         -5    1    3    3    0  503  0.29002857857E+02  0.11034122355E+03  0.10084779674E+03  0.15234408254E+03  0.47000000000E+01 0.  1.
         13    1    4    4    0    0  0.97613710825E+01  0.17988084627E+02  0.10285364719E+03  0.10487005433E+03  0.00000000000E+00 0. -1.
        -14    1    4    4    0    0 -0.43084388103E+02 -0.16272051834E+02  0.37184851209E+02  0.59192544535E+02  0.00000000000E+00 0.  1.
</event>
<event>
12    1  0.8563264E-002  0.2063532E+03  0.7818608E-02  0.1144741E+00
         21   -1    0    0  503  502  0.00000000000E+00  0.00000000000E+00  0.18178669961E+03  0.18178669961E+03  0.00000000000E+00 0. -1.
         21   -1    0    0  501  503 -0.00000000000E+00 -0.00000000000E+00 -0.24993096960E+03  0.24993096960E+03  0.00000000000E+00 0.  1.
          6    2    1    2  501    0 -0.31885617522E+02 -0.10684313818E+03 -0.90648163159E+02  0.22538574828E+03  0.17363610587E+03 0.  0.
         24    2    3    3    0    0 -0.47733697651E+02 -0.11778546242E+02 -0.87728861696E+02  0.12885051842E+03  0.80553478380E+02 0.  0.
         -6    2    1    2    0  502  0.31885617522E+02  0.10684313818E+03  0.22503893166E+02  0.20633192092E+03  0.17214612283E+03 0.  0.
        -24    2    5    5    0    0 -0.24766996344E+02  0.86511488609E+02 -0.33157872753E+02  0.12421482881E+03  0.78944521037E+02 0.  0.
          5    1    3    3  501    0  0.15848080129E+02 -0.95064591933E+02 -0.29193014631E+01  0.96535229860E+02  0.47000000000E+01 0. -1.
        -13    1    4    4    0    0 -0.27744225356E+02  0.33391475467E+02 -0.52784100728E+02  0.68343938752E+02  0.00000000000E+00 0.  1.
         14    1    4    4    0    0 -0.19989472295E+02 -0.45170021709E+02 -0.34944760968E+02  0.60506579666E+02  0.00000000000E+00 0. -1.
         -5    1    5    5    0  502  0.56652613867E+02  0.20331649566E+02  0.55661765919E+02  0.82117092114E+02  0.47000000000E+01 0.  1.
         13    1    6    6    0    0 -0.28424021880E+02 -0.17499882838E+01  0.32628548318E+01  0.28664153581E+02  0.00000000000E+00 0. -1.
        -14    1    6    6    0    0  0.36570255362E+01  0.88261476893E+02 -0.36420727585E+02  0.95550675230E+02  0.00000000000E+00 0.  1.
</event>
<event>
12    1  0.8563264E-002  0.3103785E+03  0.7818608E-02  0.1080214E+00
         21   -1    0    0  501  502  0.00000000000E+00  0.00000000000E+00  0.29529462330E+03  0.29529462330E+03  0.00000000000E+00 0. -1.
         21   -1    0    0  502  503 -0.00000000000E+00 -0.00000000000E+00 -0.33876705764E+03  0.33876705764E+03  0.00000000000E+00 0.  1.
         -6    2    1    2    0  503 -0.28993892974E+02  0.25604909339E+03  0.40297650292E+02  0.31257724954E+03  0.17227551264E+03 0.  0.
        -24    2    3    3    0    0 -0.57717081475E+02  0.10949335589E+03  0.65662961515E+02  0.16102166645E+03  0.79349203357E+02 0.  0.
          6    2    1    2  501    0  0.28993892974E+02 -0.25604909339E+03 -0.83770084633E+02  0.32148443140E+03  0.17301164267E+03 0.  0.
         24    2    5    5    0    0  0.41212282381E+02 -0.58487778524E+02 -0.63774472305E+02  0.12248273120E+03  0.76259843092E+02 0.  0.
          5    1    5    5  501    0 -0.12218389407E+02 -0.19756131487E+03 -0.19995612328E+02  0.19900170021E+03  0.47000000000E+01 0. -1.
        -13    1    6    6    0    0  0.33282245805E+01 -0.62408230119E+02 -0.55332791144E+02  0.83472043471E+02  0.00000000000E+00 0.  1.
         14    1    6    6    0    0  0.37884057800E+02  0.39204515954E+01 -0.84416811611E+01  0.39010687727E+02  0.00000000000E+00 0. -1.
         -5    1    3    3    0  503  0.28723188501E+02  0.14655573750E+03 -0.25365311223E+02  0.15155558309E+03  0.47000000000E+01 0.  1.
         11    1    4    4    0    0 -0.62722683079E+02  0.92193462483E+02  0.80630253303E+02  0.13760453207E+03  0.00000000000E+00 0. -1.
        -12    1    4    4    0    0  0.50056016038E+01  0.17299893406E+02 -0.14967291788E+02  0.23417134384E+02  0.00000000000E+00 0.  1.
</event>
<event>
12    1  0.8563264E-002  0.1949582E+03  0.7818608E-02  0.1154096E+00
         21   -1    0    0  501  502  0.00000000000E+00  0.00000000000E+00  0.21671362865E+03  0.21671362865E+03  0.00000000000E+00 0.  1.
         21   -1    0    0  502  503 -0.00000000000E+00 -0.00000000000E+00 -0.18020995007E+03  0.18020995007E+03  0.00000000000E+00 0.  1.
         -6    2    1    2    0  503 -0.92474497400E+02  0.14115987597E+02  0.51165872474E+02  0.20156052846E+03  0.17104942663E+03 0.  0.
        -24    2    3    3    0    0  0.51508417323E+01 -0.31453232579E+02  0.33639164007E+02  0.92306072358E+02  0.79830950319E+02 0.  0.
          6    2    1    2  501    0  0.92474497400E+02 -0.14115987597E+02 -0.14662193900E+02  0.19536305026E+03  0.17088284788E+03 0.  0.
         24    2    5    5    0    0  0.79549707053E+02 -0.56954595926E+02 -0.52567702360E+02  0.13653181586E+03  0.79407754796E+02 0.  0.
          5    1    5    5  501    0  0.12924790347E+02  0.42838608330E+02  0.37905508460E+02  0.58831234397E+02  0.47000000000E+01 0. -1.
        -13    1    6    6    0    0  0.56634528194E+02 -0.66484537274E+02 -0.10874064298E+02  0.88010844528E+02  0.00000000000E+00 0.  1.
         14    1    6    6    0    0  0.22915178859E+02  0.95299413477E+01 -0.41693638062E+02  0.48520971333E+02  0.00000000000E+00 0. -1.
         -5    1    3    3    0  503 -0.97625339132E+02  0.45569220175E+02  0.17526708467E+02  0.10925445610E+03  0.47000000000E+01 0.  1.
         11    1    4    4    0    0  0.11219209396E+02 -0.52220953622E+02  0.43157016769E+02  0.68668964992E+02  0.00000000000E+00 0. -1.
        -12    1    4    4    0    0 -0.60683676641E+01  0.20767721043E+02 -0.95178527624E+01  0.23637107366E+02  0.00000000000E+00 0.  1.
</event>
<event>
12    1  0.8563264E-002  0.1937233E+03  0.7818608E-02  0.1155498E+00
         21   -1    0    0  503  502  0.00000000000E+00  0.00000000000E+00  0.18792701996E+03  0.18792701996E+03  0.00000000000E+00 0.  1.
         21   -1    0    0  501  503 -0.00000000000E+00 -0.00000000000E+00 -0.21297637735E+03  0.21297637735E+03  0.00000000000E+00 0.  1.
          6    2    1    2  501    0  0.19056361271E+02  0.85056316422E+02  0.40579660127E+02  0.19636514396E+03  0.17121576761E+03 0.  0.
         24    2    3    3    0    0 -0.23597464219E+02  0.92058353560E+02 -0.14744497665E+02  0.12600016838E+03  0.81406765337E+02 0.  0.
         -6    2    1    2    0  502 -0.19056361271E+02 -0.85056316422E+02 -0.65629017521E+02  0.20453825335E+03  0.17300580127E+03 0.  0.
        -24    2    5    5    0    0 -0.47380250999E+02 -0.23845549900E+02  0.19258251625E+02  0.96016646600E+02  0.77684089323E+02 0.  0.
          5    1    3    3  501    0  0.42653825490E+02 -0.70020371383E+01  0.55324157791E+02  0.70364975580E+02  0.47000000000E+01 0. -1.
        -13    1    4    4    0    0 -0.27052111866E+02  0.66867891067E+02  0.27084164802E+02  0.77049877321E+02  0.00000000000E+00 0.  1.
         14    1    4    4    0    0  0.34546476467E+01  0.25190462493E+02 -0.41828662467E+02  0.48950291059E+02  0.00000000000E+00 0. -1.
         -5    1    5    5    0  502  0.28323889728E+02 -0.61210766522E+02 -0.84887269146E+02  0.10852160675E+03  0.47000000000E+01 0.  1.
         13    1    6    6    0    0 -0.37986685911E+02  0.21588566672E+02 -0.44432906208E+01  0.43918075424E+02  0.00000000000E+00 0. -1.
        -14    1    6    6    0    0 -0.93935650878E+01 -0.45434116572E+02  0.23701542246E+02  0.52098571175E+02  0.00000000000E+00 0.  1.
</event>
<event>
12    1  0.8563264E-002  0.1874674E+03  0.7818608E-02  0.1160910E+00
         21   -1    0    0  503  502  0.00000000000E+00  0.00000000000E+00  0.15054955407E+03  0.15054955407E+03  0.00000000000E+00 0.  1.
         21   -1    0    0  501  503 -0.00000000000E+00 -0.00000000000E+00 -0.39161811364E+03  0.39161811364E+03  0.00000000000E+00 0.  1.
          6    2    1    2  501    0 -0.33515463724E+02 -0.66613537528E+02 -0.29336329917E+03  0.34814658875E+03  0.17199817519E+03 0.  0.
         24    2    3    3    0    0 -0.47688281286E+02  0.23354581259E+02 -0.16407601708E+03  0.18993021012E+03  0.79579750556E+02 0.  0.
         -6    2    1    2    0  502  0.33515463724E+02  0.66613537528E+02  0.52294739598E+02  0.19402107896E+03  0.17131488436E+03 0.  0.
        -24    2    5    5    0    0 -0.81524644733E+01  0.35272664883E+02 -0.36608222385E+02  0.90849895063E+02  0.74852641382E+02 0.  0.
          5    1    3    3  501    0  0.14172817563E+02 -0.89968118787E+02 -0.12928728209E+03  0.15821637863E+03  0.47000000000E+01 0. -1.
        -13    1    4    4    0    0  0.35557790651E+01 -0.18399355339E+02 -0.84151928686E+02  0.86213264312E+02  0.00000000000E+00 0.  1.
         14    1    4    4    0    0 -0.51244060351E+02  0.41753936598E+02 -0.79924088390E+02  0.10371694581E+03  0.00000000000E+00 0. -1.
         -5    1    5    5    0  502  0.41667928197E+02  0.31340872645E+02  0.88902961983E+02  0.10317118390E+03  0.47000000000E+01 0.  1.
         11    1    6    6    0    0  0.88747643020E+01 -0.28437087667E+01  0.19090028738E+02  0.21243288780E+02  0.00000000000E+00 0. -1.
        -12    1    6    6    0    0 -0.17027228775E+02  0.38116373650E+02 -0.55698251124E+02  0.69606606283E+02  0.00000000000E+00 0.  1.
</event>
<event>
12    1  0.8563264E-002  0.1762198E+03  0.7818608E-02  0.1171767E+00
         21   -1    0    0  503  502  0.00000000000E+00  0.00000000000E+00  0.11207777432E+03  0.11207777432E+03  0.00000000000E+00 0. -1.
         21   -1    0    0  501  503 -0.00000000000E+00 -0.00000000000E+00 -0.49437605001E+03  0.49437605001E+03  0.00000000000E+00 0. -1.
          6    2    1    2  501    0 -0.28106421787E+02  0.18951436316E+02 -0.39323500396E+03  0.43091437485E+03  0.17292860443E+03 0.  0.
         24    2    3    3    0    0  0.38606957621E+02 -0.13524696219E+01 -0.31265778300E+03  0.32424806281E+03  0.76743668211E+02 0.  0.
         -6    2    1    2    0  502  0.28106421787E+02 -0.18951436316E+02  0.10936728273E+02  0.17553944948E+03  0.17188763310E+03 0.  0.
        -24    2    5    5    0    0 -0.17618480087E+02  0.23480344116E+02  0.52780128988E+02  0.10027868396E+03  0.80052077056E+02 0.  0.
          5    1    3    3  501    0 -0.66713379408E+02  0.20303905938E+02 -0.80577220961E+02  0.10666631205E+03  0.47000000000E+01 0. -1.
        -13    1    4    4    0    0  0.49127662856E+02  0.19951895649E+02 -0.27230493962E+03  0.27741951182E+03  0.00000000000E+00 0.  1.
         14    1    4    4    0    0 -0.10520705236E+02 -0.21304365270E+02 -0.40352843379E+02  0.46828550982E+02  0.00000000000E+00 0. -1.
         -5    1    5    5    0  502  0.45724901875E+02 -0.42431780433E+02 -0.41843400715E+02  0.75260765512E+02  0.47000000000E+01 0.  1.
         13    1    6    6    0    0 -0.11536947587E+02 -0.29529555871E+02  0.16352387905E+02  0.35672067780E+02  0.00000000000E+00 0. -1.
        -14    1    6    6    0    0 -0.60815325003E+01  0.53009899987E+02  0.36427741083E+02  0.64606616183E+02  0.00000000000E+00 0.  1.
</event>
<event>
12    1  0.8563264E-002  0.1784366E+03  0.7818608E-02  0.1169634E+00
         21   -1    0    0  503  502  0.00000000000E+00  0.00000000000E+00  0.37759187160E+03  0.37759187160E+03  0.00000000000E+00 0. -1.
         21   -1    0    0  501  503 -0.00000000000E+00 -0.00000000000E+00 -0.22314592343E+03  0.22314592343E+03  0.00000000000E+00 0. -1.
          6    2    1    2  501    0  0.17504170226E+02 -0.46348656772E+02 -0.16009388645E+03  0.23972833148E+03  0.17142061275E+03 0.  0.
         24    2    3    3    0    0  0.75629007646E+02 -0.89093962015E+01 -0.97885691918E+02  0.14660398222E+03  0.78179247780E+02 0.  0.
         -6    2    1    2    0  502 -0.17504170226E+02  0.46348656772E+02  0.31453983462E+03  0.36100946356E+03  0.17011152594E+03 0.  0.
        -24    2    5    5    0    0  0.55998346425E+02  0.24639933799E+02  0.15820544731E+03  0.18683593152E+03  0.78331096058E+02 0.  0.
          5    1    3    3  501    0 -0.58124837420E+02 -0.37439260571E+02 -0.62208194531E+02  0.93124349254E+02  0.47000000000E+01 0. -1.
        -13    1    4    4    0    0  0.78552234265E+01 -0.29750586177E+01  0.13608524002E+02  0.15992105377E+02  0.00000000000E+00 0.  1.
         14    1    4    4    0    0  0.67773784219E+02 -0.59343375838E+01 -0.11149421592E+03  0.13061187685E+03  0.00000000000E+00 0. -1.
         -5    1    5    5    0  502 -0.73502516651E+02  0.21708722973E+02  0.15633438731E+03  0.17417353204E+03  0.47000000000E+01 0.  1.
         11    1    6    6    0    0  0.42262113879E+02  0.50769631137E+02  0.83231888187E+02  0.10626000624E+03  0.00000000000E+00 0. -1.
        -12    1    6    6    0    0  0.13736232545E+02 -0.26129697337E+02  0.74973559118E+02  0.80575925278E+02  0.00000000000E+00 0.  1.
</event>
<event>
12    1  0.8563264E-002  0.2172661E+03  0.7818608E-02  0.1136030E+00
         21   -1    0    0  503  502  0.00000000000E+00  0.00000000000E+00  0.32823920943E+03  0.32823920943E+03  0.00000000000E+00 0.  1.
         21   -1    0    0  501  503 -0.00000000000E+00 -0.00000000000E+00 -0.42160866758E+03  0.42160866758E+03  0.00000000000E+00 0. -1.
          6    2    1    2  501    0  0.13210904674E+03  0.12655162314E+02 -0.35117879546E+03  0.41269777151E+03  0.17140580758E+03 0.  0.
         24    2    3    3    0    0  0.11854741578E+02 -0.25757897808E+02 -0.17743311377E+03  0.19788084248E+03  0.82887355849E+02 0.  0.
         -6    2    1    2    0  502 -0.13210904674E+03 -0.12655162314E+02  0.25780933731E+03  0.33715010550E+03  0.17202205054E+03 0.  0.
        -24    2    5    5    0    0 -0.13342045624E+03 -0.37313626800E+02  0.12892021538E+03  0.20583272121E+03  0.80952839956E+02 0.  0.
          5    1    3    3  501    0  0.12025430516E+03  0.38413060122E+02 -0.17374568169E+03  0.21481692904E+03  0.47000000000E+01 0. -1.
        -11    1    4    4    0    0 -0.65229754222E+01 -0.35737670985E+02 -0.25187515160E+02  0.44205669950E+02  0.00000000000E+00 0.  1.
         12    1    4    4    0    0  0.18377717000E+02  0.99797731775E+01 -0.15224559861E+03  0.15367517253E+03  0.00000000000E+00 0. -1.
         -5    1    5    5    0  502  0.13114095085E+01  0.24658464486E+02  0.12888912193E+03  0.13131738429E+03  0.47000000000E+01 0.  1.
         13    1    6    6    0    0 -0.25578001791E+02  0.13485211185E+02 -0.17354631663E+01  0.28967169843E+02  0.00000000000E+00 0. -1.
        -14    1    6    6    0    0 -0.10784245445E+03 -0.50798837985E+02  0.13065567855E+03  0.17686555137E+03  0.00000000000E+00 0.  1.
</event>
<event>
12    1  0.8563264E-002  0.2856812E+03  0.7818608E-02  0.1092913E+00
         21   -1    0    0  503  502  0.00000000000E+00  0.00000000000E+00  0.10724741742E+04  0.10724741742E+04  0.00000000000E+00 0.  1.
         21   -1    0    0  501  503 -0.00000000000E+00 -0.00000000000E+00 -0.10813107299E+03  0.10813107299E+03  0.00000000000E+00 0.  1.
          6    2    1    2  501    0 -0.10308725978E+03 -0.20081195864E+03  0.15676433634E+03  0.32398560076E+03  0.17157851406E+03 0.  0.
         24    2    3    3    0    0 -0.13239290597E+03 -0.19928575961E+03  0.12929766756E+03  0.28351761247E+03  0.80135224537E+02 0.  0.
         -6    2    1    2    0  502  0.10308725978E+03  0.20081195864E+03  0.80757876490E+03  0.85661964645E+03  0.17510377299E+03 0.  0.
        -24    2    5    5    0    0  0.11295459543E+03  0.19396916201E+03  0.55901010937E+03  0.60771674433E+03  0.80278032584E+02 0.  0.
          5    1    3    3  501    0  0.29305646189E+02 -0.15261990327E+01  0.27466668780E+02  0.40467988286E+02  0.47000000000E+01 0. -1.
        -11    1    4    4    0    0 -0.33935037231E+02 -0.60478957630E+02 -0.72263581649E+00  0.69352817321E+02  0.00000000000E+00 0.  1.
         12    1    4    4    0    0 -0.98457868741E+02 -0.13880680198E+03  0.13002030337E+03  0.21416479515E+03  0.00000000000E+00 0. -1.
         -5    1    5    5    0  502 -0.98673356434E+01  0.68427966344E+01  0.24856865552E+03  0.24890290213E+03  0.47000000000E+01 0.  1.
         11    1    6    6    0    0  0.88647202595E+01 -0.73689269219E+01  0.32901577991E+02  0.34862561346E+02  0.00000000000E+00 0. -1.
        -12    1    6    6    0    0  0.10408987517E+03  0.20133808893E+03  0.52610853138E+03  0.57285418298E+03  0.00000000000E+00 0.  1.
</event>
<event>
12    1  0.8563264E-002  0.1776416E+03  0.7818608E-02  0.1170221E+00
         21   -1    0    0  501  502  0.00000000000E+00  0.00000000000E+00  0.36087238351E+03  0.36087238351E+03  0.00000000000E+00 0. -1.
         21   -1    0    0  502  503 -0.00000000000E+00 -0.00000000000E+00 -0.96882657603E+02  0.96882657603E+02  0.00000000000E+00 0. -1.
         -6    2    1    2    0  503 -0.44192432535E+02 -0.62364920854E+01  0.59532163769E+02  0.18690560726E+03  0.17145775741E+03 0.  0.
        -24    2    3    3    0    0 -0.20145874308E+02  0.28757274352E+02 -0.27413814630E+02  0.90032010181E+02  0.78239430883E+02 0.  0.
          6    2    1    2  501    0  0.44192432535E+02  0.62364920854E+01  0.20445756213E+03  0.27084943385E+03  0.17194375875E+03 0.  0.
         24    2    5    5    0    0  0.33504855932E+02 -0.37039329820E+02  0.34604177296E+02  0.95181328042E+02  0.73263557086E+02 0.  0.
          5    1    5    5  501    0  0.10687576603E+02  0.43275821906E+02  0.16985338484E+03  0.17566810580E+03  0.47000000000E+01 0. -1.
        -13    1    6    6    0    0  0.28627736464E+02 -0.45115358498E+02  0.52527138901E+02  0.74926918985E+02  0.00000000000E+00 0.  1.
         14    1    6    6    0    0  0.48771194680E+01  0.80760286776E+01 -0.17922961606E+02  0.20254409057E+02  0.00000000000E+00 0. -1.
         -5    1    3    3    0  503 -0.24046558227E+02 -0.34993766437E+02  0.86945978399E+02  0.96873597083E+02  0.47000000000E+01 0.  1.
         11    1    4    4    0    0 -0.32949056400E+02 -0.17768620168E+02 -0.13740121122E+02  0.39876748974E+02  0.00000000000E+00 0. -1.
        -12    1    4    4    0    0  0.12803182092E+02  0.46525894520E+02 -0.13673693508E+02  0.50155261207E+02  0.00000000000E+00 0.  1.
</event>
<event>
12    1  0.8563264E-002  0.1820445E+03  0.7818608E-02  0.1165914E+00
         21   -1    0    0  501  502  0.00000000000E+00  0.00000000000E+00  0.66035883770E+02  0.66035883770E+02  0.00000000000E+00 0. -1.
         21   -1    0    0  502  503 -0.00000000000E+00 -0.00000000000E+00 -0.64853097198E+03  0.64853097198E+03  0.00000000000E+00 0. -1.
         -6    2    1    2    0  503  0.16921515468E+02 -0.56115114053E+02 -0.46146865961E+03  0.49596313072E+03  0.17201993929E+03 0.  0.
        -24    2    3    3    0    0 -0.23819537645E+02  0.25654904223E+02 -0.27050542110E+03  0.28421984803E+03  0.79888639292E+02 0.  0.
          6    2    1    2  501    0 -0.16921515468E+02  0.56115114053E+02 -0.12102642860E+03  0.21860372504E+03  0.17235123576E+03 0.  0.
         24    2    5    5    0    0 -0.69038274879E+02  0.36359283796E+02 -0.11831547532E+03  0.16260471872E+03  0.79708606393E+02 0.  0.
          5    1    5    5  501    0  0.52116759411E+02  0.19755830257E+02 -0.27109532772E+01  0.55999006316E+02  0.47000000000E+01 0. -1.
        -13    1    6    6    0    0 -0.20047998302E+02  0.51209160394E+02 -0.36197642101E+02  0.65837448597E+02  0.00000000000E+00 0.  1.
         14    1    6    6    0    0 -0.48990276578E+02 -0.14849876598E+02 -0.82117833222E+02  0.96767270124E+02  0.00000000000E+00 0. -1.
         -5    1    3    3    0  503  0.40741053112E+02 -0.81770018276E+02 -0.19096323852E+03  0.21174328268E+03  0.47000000000E+01 0.  1.
         11    1    4    4    0    0  0.26543197871E+02  0.13934216315E+02 -0.15194317143E+03  0.15487230573E+03  0.00000000000E+00 0. -1.
        -12    1    4    4    0    0 -0.50362735516E+02  0.11720687908E+02 -0.11856224967E+03  0.12934754230E+03  0.00000000000E+00 0.  1.
</event>
<event>
12    1  0.8563264E-002  0.1987988E+03  0.7818608E-02  0.1150870E+00
         21   -1    0    0  501  502  0.00000000000E+00  0.00000000000E+00  0.10043360751E+04  0.10043360751E+04  0.00000000000E+00 0.  1.
         21   -1    0    0  502  503 -0.00000000000E+00 -0.00000000000E+00 -0.40035406245E+02  0.40035406245E+02  0.00000000000E+00 0.  1.
         -6    2    1    2    0  503  0.42358745221E+02 -0.89295158796E+02  0.55489967698E+03  0.58925595782E+03  0.17187508150E+03 0.  0.
        -24    2    3    3    0    0  0.63452443400E+02 -0.42938542903E+02  0.50821712154E+03  0.52000835193E+03  0.79082946392E+02 0.  0.
          6    2    1    2  501    0 -0.42358745221E+02  0.89295158796E+02  0.40940099187E+03  0.45511552352E+03  0.17249080821E+03 0.  0.
         24    2    5    5    0    0 -0.26293471221E+02  0.11295689119E+03  0.20574641973E+03  0.24940882609E+03  0.80140922173E+02 0.  0.
          5    1    5    5  501    0 -0.16065274000E+02 -0.23661732393E+02  0.20365457215E+03  0.20570669742E+03  0.47000000000E+01 0. -1.
        -13    1    6    6    0    0 -0.35834850851E+02  0.16098900839E+02  0.33781535412E+02  0.51812192374E+02  0.00000000000E+00 0.  1.
         14    1    6    6    0    0  0.95413796306E+01  0.96857990350E+02  0.17196488432E+03  0.19759663372E+03  0.00000000000E+00 0. -1.
         -5    1    3    3    0  503 -0.21093698179E+02 -0.46356615893E+02  0.46682555436E+02  0.69247605893E+02  0.47000000000E+01 0.  1.
         11    1    4    4    0    0  0.62935527782E+02 -0.20081055406E+02  0.19358315851E+03  0.20454478410E+03  0.00000000000E+00 0. -1.
        -12    1    4    4    0    0  0.51691561818E+00 -0.22857487497E+02  0.31463396303E+03  0.31546356783E+03  0.00000000000E+00 0.  1.
</event>
<event>
12    1  0.8563264E-002  0.1843738E+03  0.7818608E-02  0.1163873E+00
         21   -1    0    0  501  502  0.00000000000E+00  0.00000000000E+00  0.38944067048E+03  0.38944067048E+03  0.00000000000E+00 0.  1.
         21   -1    0    0  502  503 -0.00000000000E+00 -0.00000000000E+00 -0.14779774698E+03  0.14779774698E+03  0.00000000000E+00 0.  1.
         -6    2    1    2    0  503  0.63572226663E+02  0.18339328283E+02 -0.51534151815E+02  0.19144046931E+03  0.17209278172E+03 0.  0.
        -24    2    3    3    0    0  0.20472108548E+02  0.65963968503E+02 -0.67928335733E+02  0.12498307089E+03  0.78969341173E+02 0.  0.
          6    2    1    2  501    0 -0.63572226663E+02 -0.18339328283E+02  0.29317707531E+03  0.34579794815E+03  0.17101363831E+03 0.  0.
         24    2    5    5    0    0 -0.70065407462E+01  0.48430094722E+02  0.17195881242E+03  0.19621924000E+03  0.80855372673E+02 0.  0.
          5    1    5    5  501    0 -0.56565685917E+02 -0.66769423005E+02  0.12121826289E+03  0.14957870815E+03  0.47000000000E+01 0. -1.
        -11    1    6    6    0    0  0.29711780586E+02  0.12445224339E+02  0.25766108294E+02  0.41250040619E+02  0.00000000000E+00 0.  1.
         12    1    6    6    0    0 -0.36718321332E+02  0.35984870383E+02  0.14619270412E+03  0.15496919938E+03  0.00000000000E+00 0. -1.
         -5    1    3    3    0  503  0.43100118115E+02 -0.47624640220E+02  0.16394183918E+02  0.66457398414E+02  0.47000000000E+01 0.  1.
         11    1    4    4    0    0  0.49841920122E+02  0.31633745712E+02 -0.31277176747E+02  0.66806980583E+02  0.00000000000E+00 0. -1.
        -12    1    4    4    0    0 -0.29369811575E+02  0.34330222791E+02 -0.36651158986E+02  0.58176090310E+02  0.00000000000E+00 0.  1.
</event>
<event>
12    1  0.8563264E-002  0.2015600E+03  0.7818608E-02  0.1148744E+00
         21   -1    0    0  501  502  0.00000000000E+00  0.00000000000E+00  0.15516700378E+03  0.15516700378E+03  0.00000000000E+00 0. -1.
         21   -1    0    0  502  503 -0.00000000000E+00 -0.00000000000E+00 -0.27075300792E+03  0.27075300792E+03  0.00000000000E+00 0. -1.
         -6    2    1    2    0  503  0.90764450832E+02  0.49102216625E+02 -0.10026217663E+03  0.22377829756E+03  0.17139139181E+03 0.  0.
        -24    2    3    3    0    0  0.37864898138E+02  0.74347112517E+02 -0.91502248890E+01  0.11533870519E+03  0.79107816612E+02 0.  0.
          6    2    1    2  501    0 -0.90764450832E+02 -0.49102216625E+02 -0.15323827507E+02  0.20214171413E+03  0.17313936494E+03 0.  0.
         24    2    5    5    0    0 -0.14072055580E+02 -0.84556663704E+02 -0.11001626010E+02  0.11740970877E+03  0.79474221065E+02 0.  0.
          5    1    5    5  501    0 -0.76692395252E+02  0.35454447079E+02 -0.43222014977E+01  0.84732005364E+02  0.47000000000E+01 0. -1.
        -11    1    6    6    0    0  0.19017099138E+02  0.44453612966E+01 -0.11083691357E+02  0.22455723342E+02  0.00000000000E+00 0.  1.
         12    1    6    6    0    0 -0.33089154718E+02 -0.89002025000E+02  0.82065347726E-01  0.94953985429E+02  0.00000000000E+00 0. -1.
         -5    1    3    3    0  503  0.52899552693E+02 -0.25244895893E+02 -0.91111951739E+02  0.10843959237E+03  0.47000000000E+01 0.  1.
         13    1    4    4    0    0  0.55318915612E+02  0.28229878628E+02 -0.19219366579E+02  0.65011479936E+02  0.00000000000E+00 0. -1.
        -14    1    4    4    0    0 -0.17454017473E+02  0.46117233889E+02  0.10069141690E+02  0.50327225255E+02  0.00000000000E+00 0.  1.
</event>
<event>
12    1  0.8563264E-002  0.1930553E+03  0.7818608E-02  0.1156701E+00
         21   -1    0    0  503  502  0.00000000000E+00  0.00000000000E+00  0.29037601440E+03  0.29037601440E+03  0.00000000000E+00 0. -1.
         21   -1    0    0  501  503 -0.00000000000E+00 -0.00000000000E+00 -0.12549364931E+03  0.12549364931E+03  0.00000000000E+00 0. -1.
          6    2    1    2  501    0  0.36327538345E+02  0.83879943691E+02  0.82059046259E+02  0.20579811098E+03  0.16511705064E+03 0.  0.
         24    2    3    3    0    0  0.52189526845E+02  0.10160996048E+03  0.21539497680E+02  0.14060101032E+03  0.79097176693E+02 0.  0.
         -6    2    1    2    0  502 -0.36327538345E+02 -0.83879943691E+02  0.82823318833E+02  0.21007155273E+03  0.17004358302E+03 0.  0.
        -24    2    5    5    0    0 -0.70896583520E+02 -0.77315749227E+01  0.55837108356E+02  0.12207190212E+03  0.81839255940E+02 0.  0.
          5    1    3    3  501    0 -0.15861988500E+02 -0.17730016788E+02  0.60519548579E+02  0.65197100661E+02  0.47000000000E+01 0. -1.
        -13    1    4    4    0    0  0.84547587062E+01  0.83846820382E+02 -0.84204302756E+01  0.84691651767E+02  0.00000000000E+00 0.  1.
         14    1    4    4    0    0  0.43734768139E+02  0.17763140097E+02  0.29959927956E+02  0.55909358549E+02  0.00000000000E+00 0. -1.
         -5    1    5    5    0  502  0.34569045175E+02 -0.76148368768E+02  0.26986210477E+02  0.87999650603E+02  0.47000000000E+01 0.  1.
         11    1    6    6    0    0 -0.78512627385E+02 -0.20504079270E+02  0.20443930491E+02  0.83681564395E+02  0.00000000000E+00 0. -1.
        -12    1    6    6    0    0  0.76160438657E+01  0.12772504348E+02  0.35393177864E+02  0.38390337727E+02  0.00000000000E+00 0.  1.
</event>
<event>
12    1  0.8563264E-002  0.2666845E+03  0.7818608E-02  0.1103258E+00
         21   -1    0    0  501  502  0.00000000000E+00  0.00000000000E+00  0.45331816099E+03  0.45331816099E+03  0.00000000000E+00 0.  1.
         21   -1    0    0  502  503 -0.00000000000E+00 -0.00000000000E+00 -0.23865830335E+03  0.23865830335E+03  0.00000000000E+00 0. -1.
         -6    2    1    2    0  503 -0.17106057208E+03  0.10914434111E+03 -0.95580734159E+02  0.28286786442E+03  0.17234948640E+03 0.  0.
        -24    2    3    3    0    0 -0.21747108013E+02  0.77474540484E+02 -0.33313023863E+02  0.11795320598E+03  0.79548476489E+02 0.  0.
          6    2    1    2  501    0  0.17106057208E+03 -0.10914434111E+03  0.31024059180E+03  0.40910859992E+03  0.17305032567E+03 0.  0.
         24    2    5    5    0    0  0.93797012984E+02 -0.12734767331E+03  0.25964239315E+03  0.31485741121E+03  0.81888384594E+02 0.  0.
          5    1    5    5  501    0  0.77263559095E+02  0.18203332200E+02  0.50598198647E+02  0.94251188712E+02  0.47000000000E+01 0. -1.
        -11    1    6    6    0    0  0.50187491364E+02 -0.17539579788E+02  0.12434091874E+03  0.13522974977E+03  0.00000000000E+00 0.  1.
         12    1    6    6    0    0  0.43609521620E+02 -0.10980809352E+03  0.13530147441E+03  0.17962766144E+03  0.00000000000E+00 0. -1.
         -5    1    3    3    0  503 -0.14931346407E+03  0.31669800623E+02 -0.62267710296E+02  0.16491465844E+03  0.47000000000E+01 0.  1.
         11    1    4    4    0    0 -0.44244735911E+02  0.78174287219E+02 -0.32177862065E+02  0.95416092171E+02  0.00000000000E+00 0. -1.
        -12    1    4    4    0    0  0.22497627898E+02 -0.69974673445E+00 -0.11351617979E+01  0.22537113809E+02  0.00000000000E+00 0.  1.
</event>
<event>
12    1  0.8563264E-002  0.1805179E+03  0.7818608E-02  0.1167501E+00
         21   -1    0    0  501  502  0.00000000000E+00  0.00000000000E+00  0.22910419049E+02  0.22910419049E+02  0.00000000000E+00 0.  1.
         21   -1    0    0  502  503 -0.00000000000E+00 -0.00000000000E+00 -0.17388145374E+04  0.17388145374E+04  0.00000000000E+00 0.  1.
         -6    2    1    2    0  503  0.45631485160E+02 -0.32222752025E+02 -0.12359583553E+04  0.12489534141E+04  0.17079530598E+03 0.  0.
        -24    2    3    3    0    0  0.13045059826E+02  0.29834305330E+02 -0.97442941353E+03  0.97815380031E+03  0.78815707479E+02 0.  0.
          6    2    1    2  501    0 -0.45631485160E+02  0.32222752025E+02 -0.47994576307E+03  0.51277154230E+03  0.17165716098E+03 0.  0.
         24    2    5    5    0    0 -0.50197428607E+02  0.37063466497E+02 -0.13908041806E+03  0.17180885550E+03  0.79255521918E+02 0.  0.
          5    1    5    5  501    0  0.45659434470E+01 -0.48407144718E+01 -0.34086534502E+03  0.34096268680E+03  0.47000000000E+01 0. -1.
        -11    1    6    6    0    0 -0.41562724325E+01  0.52229862985E+02 -0.72629084282E+02  0.89555664654E+02  0.00000000000E+00 0.  1.
         12    1    6    6    0    0 -0.46041156174E+02 -0.15166396488E+02 -0.66451333773E+02  0.82253190847E+02  0.00000000000E+00 0. -1.
         -5    1    3    3    0  503  0.32586425334E+02 -0.62057057355E+02 -0.26152894175E+03  0.27079961384E+03  0.47000000000E+01 0.  1.
         13    1    4    4    0    0  0.14965012270E+02  0.44923917558E+02 -0.31408569556E+03  0.31763490696E+03  0.00000000000E+00 0. -1.
        -14    1    4    4    0    0 -0.19199524445E+01 -0.15089612227E+02 -0.66034371796E+03  0.66051889335E+03  0.00000000000E+00 0.  1.
</event>
<event>
12    1  0.8563264E-002  0.1856167E+03  0.7818608E-02  0.1162928E+00
         21   -1    0    0  501  502  0.00000000000E+00  0.00000000000E+00  0.18478353582E+03  0.18478353582E+03  0.00000000000E+00 0. -1.
         21   -1    0    0  502  503 -0.00000000000E+00 -0.00000000000E+00 -0.35108893460E+03  0.35108893460E+03  0.00000000000E+00 0. -1.
         -6    2    1    2    0  503 -0.23200095849E+02 -0.63496401236E+02 -0.26747820938E+03  0.32447353904E+03  0.17078772682E+03 0.  0.
        -24    2    3    3    0    0 -0.65717215812E+02 -0.55597779002E+02 -0.25265968893E+03  0.27851951559E+03  0.79538271739E+02 0.  0.
          6    2    1    2  501    0  0.23200095849E+02  0.63496401236E+02  0.10117281059E+03  0.21139893137E+03  0.17286854302E+03 0.  0.
         24    2    5    5    0    0 -0.51965896653E+02  0.53127364735E+02  0.44429111610E+02  0.11653386551E+03  0.77995029036E+02 0.  0.
          5    1    5    5  501    0  0.75165992502E+02  0.10369036501E+02  0.56743698981E+02  0.94865065861E+02  0.47000000000E+01 0. -1.
        -11    1    6    6    0    0 -0.41015306131E+02  0.13691709505E+01  0.48429730666E+02  0.63478884508E+02  0.00000000000E+00 0.  1.
         12    1    6    6    0    0 -0.10950590523E+02  0.51758193784E+02 -0.40006190558E+01  0.53054981005E+02  0.00000000000E+00 0. -1.
         -5    1    3    3    0  503  0.42517119963E+02 -0.78986222339E+01 -0.14818520445E+02  0.45954023451E+02  0.47000000000E+01 0.  1.
         11    1    4    4    0    0 -0.24541211543E+02 -0.47332280320E+02 -0.55592314461E+02  0.77026756724E+02  0.00000000000E+00 0. -1.
        -12    1    4    4    0    0 -0.41176004270E+02 -0.82654986822E+01 -0.19706737447E+03  0.20149275887E+03  0.00000000000E+00 0.  1.
</event>
<event>
12    1  0.8563264E-002  0.1737211E+03  0.7818608E-02  0.1174269E+00
         21   -1    0    0  501  502  0.00000000000E+00  0.00000000000E+00  0.97989075219E+02  0.97989075219E+02  0.00000000000E+00 0. -1.
         21   -1    0    0  502  503 -0.00000000000E+00 -0.00000000000E+00 -0.34701075364E+03  0.34701075364E+03  0.00000000000E+00 0. -1.
         -6    2    1    2    0  503  0.51424152088E+01  0.84075859263E+01 -0.48572002057E+02  0.18038369084E+03  0.17344135782E+03 0.  0.
        -24    2    3    3    0    0  0.43728128409E+02  0.37437386538E+01  0.23891929917E+02  0.98020348443E+02  0.84326743092E+02 0.  0.
          6    2    1    2  501    0 -0.51424152088E+01 -0.84075859263E+01 -0.20044967637E+03  0.26461613802E+03  0.17246592651E+03 0.  0.
         24    2    5    5    0    0 -0.69538711690E+02 -0.26317609180E+01 -0.10581755396E+03  0.14990967897E+03  0.80205975680E+02 0.  0.
          5    1    5    5  501    0  0.64396296482E+02 -0.57758250082E+01 -0.94632122413E+02  0.11470645905E+03  0.47000000000E+01 0. -1.
        -11    1    6    6    0    0 -0.38693861494E+02  0.11440973016E+02 -0.16718705112E+01  0.40384476373E+02  0.00000000000E+00 0.  1.
         12    1    6    6    0    0 -0.30844850196E+02 -0.14072733934E+02 -0.10414568344E+03  0.10952520260E+03  0.00000000000E+00 0. -1.
         -5    1    3    3    0  503 -0.38585713200E+02  0.46638472725E+01 -0.72463931973E+02  0.82363342402E+02  0.47000000000E+01 0.  1.
         13    1    4    4    0    0  0.61846509968E+02  0.20649567174E+02  0.31061490006E+02  0.72223345125E+02  0.00000000000E+00 0. -1.
        -14    1    4    4    0    0 -0.18118381560E+02 -0.16905828520E+02 -0.71695600888E+01  0.25797003318E+02  0.00000000000E+00 0.  1.
</event>
<event>
12    1  0.8563264E-002  0.2729587E+03  0.7818608E-02  0.1099855E+00
         21   -1    0    0  501  502  0.00000000000E+00  0.00000000000E+00  0.61878384675E+03  0.61878384675E+03  0.00000000000E+00 0. -1.
         21   -1    0    0  502  503 -0.00000000000E+00 -0.00000000000E+00 -0.12822784291E+03  0.12822784291E+03  0.00000000000E+00 0. -1.
         -6    2    1    2    0  503  0.12638083156E+03  0.16791589927E+03  0.34287337219E+03  0.43825629082E+03  0.17417968676E+03 0.  0.
        -24    2    3    3    0    0  0.13066550626E+03  0.16699350235E+03  0.21730166703E+03  0.31252024830E+03  0.74084996783E+02 0.  0.
          6    2    1    2  501    0 -0.12638083156E+03 -0.16791589927E+03  0.14768263166E+03  0.30875539883E+03  0.17132388275E+03 0.  0.
         24    2    5    5    0    0 -0.97558263959E+02 -0.12452123138E+03  0.17550850015E+03  0.24950840261E+03  0.80175167074E+02 0.  0.
          5    1    5    5  501    0 -0.28822567598E+02 -0.43394667890E+02 -0.27825868493E+02  0.59246996225E+02  0.47000000000E+01 0. -1.
        -13    1    6    6    0    0  0.31202743058E+01 -0.19002610576E+02  0.61343272684E+02  0.64294886453E+02  0.00000000000E+00 0.  1.
         14    1    6    6    0    0 -0.10067853826E+03 -0.10551862081E+03  0.11416522747E+03  0.18521351616E+03  0.00000000000E+00 0. -1.
         -5    1    3    3    0  503 -0.42846747061E+01  0.92239692052E+00  0.12557170516E+03  0.12573604253E+03  0.47000000000E+01 0.  1.
         11    1    4    4    0    0  0.15476853189E+02  0.22907797012E+02  0.73796375806E+02  0.78804855375E+02  0.00000000000E+00 0. -1.
        -12    1    4    4    0    0  0.11518865307E+03  0.14408570534E+03  0.14350529122E+03  0.23371539292E+03  0.00000000000E+00 0.  1.
</event>
<event>
12    1  0.8563264E-002  0.2626942E+03  0.7818608E-02  0.1105661E+00
         21   -1    0    0  501  502  0.00000000000E+00  0.00000000000E+00  0.11900006175E+03  0.11900006175E+03  0.00000000000E+00 0.  1.
         21   -1    0    0  502  503 -0.00000000000E+00 -0.00000000000E+00 -0.14036755218E+04  0.14036755218E+04  0.00000000000E+00 0. -1.
         -6    2    1    2    0  503 -0.15455870641E+03  0.12140333790E+03 -0.58863762581E+02  0.26920842985E+03  0.17430166945E+03 0.  0.
        -24    2    3    3    0    0 -0.27527140482E+02  0.26788983504E+02  0.26317870365E+02  0.89300410591E+02  0.76200655711E+02 0.  0.
          6    2    1    2  501    0  0.15455870641E+03 -0.12140333790E+03 -0.12258116975E+04  0.12534671537E+04  0.17302723367E+03 0.  0.
         24    2    5    5    0    0  0.81517990979E+02 -0.87414454975E+02 -0.42525508817E+03  0.44885347935E+03  0.79630936933E+02 0.  0.
          5    1    5    5  501    0  0.73040715432E+02 -0.33988882929E+02 -0.80055660930E+03  0.80461367436E+03  0.47000000000E+01 0. -1.
        -11    1    6    6    0    0  0.27867823315E+01  0.11257887147E+02 -0.11750515281E+02  0.16510020840E+02  0.00000000000E+00 0.  1.
         12    1    6    6    0    0  0.78731208648E+02 -0.98672342122E+02 -0.41350457289E+03  0.43234345851E+03  0.00000000000E+00 0. -1.
         -5    1    3    3    0  503 -0.12703156593E+03  0.94614354400E+02 -0.85181632946E+02  0.17990801926E+03  0.47000000000E+01 0.  1.
         11    1    4    4    0    0 -0.44276363225E+02 -0.81478471093E+01  0.56060143950E+01  0.45367512058E+02  0.00000000000E+00 0. -1.
        -12    1    4    4    0    0  0.16749222743E+02  0.34936830613E+02  0.20711855970E+02  0.43932898533E+02  0.00000000000E+00 0.  1.
</event>
<event>
12    1  0.8563264E-002  0.1992513E+03  0.7818608E-02  0.1150485E+00
         21   -1    0    0  503  502  0.00000000000E+00  0.00000000000E+00  0.48338612455E+03  0.48338612455E+03  0.00000000000E+00 0. -1.
         21   -1    0    0  501  503 -0.00000000000E+00 -0.00000000000E+00 -0.96396121777E+02  0.96396121777E+02  0.00000000000E+00 0.  1.
          6    2    1    2  501    0  0.65333884767E+02 -0.74406693181E+02  0.80902137956E+02  0.21455510470E+03  0.17229005931E+03 0.  0.
         24    2    3    3    0    0 -0.24246888008E+02 -0.17208756133E+02  0.69969343411E+01  0.85015967852E+02  0.79339175909E+02 0.  0.
         -6    2    1    2    0  502 -0.65333884767E+02  0.74406693181E+02  0.30608786482E+03  0.36522714163E+03  0.17290520959E+03 0.  0.
        -24    2    5    5    0    0 -0.34146406561E+01  0.35878332002E+02  0.26913073754E+03  0.28333485467E+03  0.80922008783E+02 0.  0.
          5    1    3    3  501    0  0.89580772775E+02 -0.57197937049E+02  0.73905203615E+02  0.12953913685E+03  0.47000000000E+01 0. -1.
        -11    1    4    4    0    0  0.51720140036E+01  0.21978353485E+02 -0.19032787817E+02  0.29530404041E+02  0.00000000000E+00 0.  1.
         12    1    4    4    0    0 -0.29418902012E+02 -0.39187109617E+02  0.26029722158E+02  0.55485563810E+02  0.00000000000E+00 0. -1.
         -5    1    5    5    0  502 -0.61919244111E+02  0.38528361179E+02  0.36957127279E+02  0.81892286958E+02  0.47000000000E+01 0.  1.
         11    1    6    6    0    0 -0.26696543455E+02 -0.22635625534E+01  0.19459043598E+03  0.19642623787E+03  0.00000000000E+00 0. -1.
        -12    1    6    6    0    0  0.23281902799E+02  0.38141894555E+02  0.74540301556E+02  0.86908616801E+02  0.00000000000E+00 0.  1.
</event>
<event>
12    1  0.8563264E-002  0.5561574E+03  0.7818608E-02  0.1000113E+00
         21   -1    0    0  501  502  0.00000000000E+00  0.00000000000E+00  0.69618317617E+03  0.69618317617E+03  0.00000000000E+00 0.  1.
         21   -1    0    0  502  503 -0.00000000000E+00 -0.00000000000E+00 -0.59051059127E+03  0.59051059127E+03  0.00000000000E+00 0.  1.
         -6    2    1    2    0  503 -0.38544041517E+03  0.36187714456E+03 -0.26779728983E+03  0.61727339708E+03  0.17260265611E+03 0.  0.
        -24    2    3    3    0    0 -0.37343931463E+03  0.37207295886E+03 -0.27423131950E+03  0.59962494725E+03  0.80324668356E+02 0.  0.
          6    2    1    2  501    0  0.38544041517E+03 -0.36187714456E+03  0.37346987472E+03  0.66942037036E+03  0.17065902709E+03 0.  0.
         24    2    5    5    0    0  0.22916599892E+03 -0.30243276460E+03  0.23622986356E+03  0.45305901025E+03  0.73995176650E+02 0.  0.
          5    1    5    5  501    0  0.15627441626E+03 -0.59444379956E+02  0.13724001117E+03  0.21636136011E+03  0.47000000000E+01 0. -1.
        -13    1    6    6    0    0  0.17676744222E+03 -0.27395312575E+03  0.21067447239E+03  0.38817621908E+03  0.00000000000E+00 0.  1.
         14    1    6    6    0    0  0.52398556696E+02 -0.28479638849E+02  0.25555391168E+02  0.64882791174E+02  0.00000000000E+00 0. -1.
         -5    1    3    3    0  503 -0.12001100546E+02 -0.10195814304E+02  0.64340296643E+01  0.17648449829E+02  0.47000000000E+01 0.  1.
         11    1    4    4    0    0 -0.13752596830E+03  0.88343776036E+02 -0.69282904530E+02  0.17753347735E+03  0.00000000000E+00 0. -1.
        -12    1    4    4    0    0 -0.23591334633E+03  0.28372918283E+03 -0.20494841497E+03  0.42209146990E+03  0.00000000000E+00 0.  1.
</event>
<event>
12    1  0.8563264E-002  0.1916205E+03  0.7818608E-02  0.1157160E+00
         21   -1    0    0  503  502  0.00000000000E+00  0.00000000000E+00  0.19609507544E+03  0.19609507544E+03  0.00000000000E+00 0.  1.
         21   -1    0    0  501  503 -0.00000000000E+00 -0.00000000000E+00 -0.29380482511E+03  0.29380482511E+03  0.00000000000E+00 0.  1.
          6    2    1    2  501    0  0.53017063518E+02 -0.64779554381E+02 -0.19677554807E+03  0.27418612020E+03  0.17161064216E+03 0.  0.
         24    2    3    3    0    0  0.60969962342E+01  0.22266933987E+02 -0.63129200636E+02  0.10786708932E+03  0.84362451794E+02 0.  0.
         -6    2    1    2    0  502 -0.53017063518E+02  0.64779554381E+02  0.99065798409E+02  0.21571378035E+03  0.17236937932E+03 0.  0.
        -24    2    5    5    0    0  0.37197506315E+01 -0.20615941327E+02  0.70455231302E+02  0.10916749314E+03  0.80713991103E+02 0.  0.
          5    1    3    3  501    0  0.46920067283E+02 -0.87046488368E+02 -0.13364634744E+03  0.16631903088E+03  0.47000000000E+01 0. -1.
        -11    1    4    4    0    0  0.40882327509E+02  0.17821182530E+02 -0.56826093513E+02  0.72236861458E+02  0.00000000000E+00 0.  1.
         12    1    4    4    0    0 -0.34785331275E+02  0.44457514578E+01 -0.63031071231E+01  0.35630227860E+02  0.00000000000E+00 0. -1.
         -5    1    5    5    0  502 -0.56736814149E+02  0.85395495708E+02  0.28610567107E+02  0.10654628721E+03  0.47000000000E+01 0.  1.
         11    1    6    6    0    0  0.30194586249E+02  0.18502781928E+02  0.37459645993E+02  0.51548919055E+02  0.00000000000E+00 0. -1.
        -12    1    6    6    0    0 -0.26474835618E+02 -0.39118723255E+02  0.32995585310E+02  0.57618574089E+02  0.00000000000E+00 0.  1.
</event>
<event>
12    1  0.8563264E-002  0.2333144E+03  0.7818608E-02  0.1124517E+00
         21   -1    0    0  501  502  0.00000000000E+00  0.00000000000E+00  0.89440227329E+03  0.89440227329E+03  0.00000000000E+00 0.  1.
         21   -1    0    0  502  503 -0.00000000000E+00 -0.00000000000E+00 -0.10625661510E+03  0.10625661510E+03  0.00000000000E+00 0. -1.
         -6    2    1    2    0  503  0.31303046557E+02 -0.15365379414E+03  0.66555074863E+02  0.24262153227E+03  0.17276070373E+03 0.  0.
        -24    2    3    3    0    0 -0.16167655002E+02 -0.16304309846E+03  0.36222207146E+02  0.18531708737E+03  0.78650680574E+02 0.  0.
          6    2    1    2  501    0 -0.31303046557E+02  0.15365379414E+03  0.72159058332E+03  0.75803735612E+03  0.17128424959E+03 0.  0.
         24    2    5    5    0    0 -0.81491456402E+02  0.13692721076E+03  0.54057356239E+03  0.56938978274E+03  0.81209788954E+02 0.  0.
          5    1    5    5  501    0  0.50188409845E+02  0.16726583381E+02  0.18101702093E+03  0.18864757338E+03  0.47000000000E+01 0. -1.
        -11    1    6    6    0    0 -0.67187400253E+02  0.10537606323E+03  0.28129234187E+03  0.30780455332E+03  0.00000000000E+00 0.  1.
         12    1    6    6    0    0 -0.14304056149E+02  0.31551147532E+02  0.25928122052E+03  0.26158522942E+03  0.00000000000E+00 0. -1.
         -5    1    3    3    0  503  0.47470701559E+02  0.93893043179E+01  0.30332867717E+02  0.57304444906E+02  0.47000000000E+01 0.  1.
         11    1    4    4    0    0 -0.10094000124E+01 -0.72481412149E+01 -0.18183601546E+02  0.19600964380E+02  0.00000000000E+00 0. -1.
        -12    1    4    4    0    0 -0.15158254990E+02 -0.15579495725E+03  0.54405808692E+02  0.16571612299E+03  0.00000000000E+00 0.  1.
</event>
<event>
12    1  0.8563264E-002  0.2578505E+03  0.7818608E-02  0.1108574E+00
         21   -1    0    0  501  502  0.00000000000E+00  0.00000000000E+00  0.52729156213E+03  0.52729156213E+03  0.00000000000E+00 0. -1.
         21   -1    0    0  502  503 -0.00000000000E+00 -0.00000000000E+00 -0.41386194099E+03  0.41386194099E+03  0.00000000000E+00 0.  1.
         -6    2    1    2    0  503  0.18719940447E+03  0.43535042035E+02 -0.33594238992E+03  0.42349047282E+03  0.17189524223E+03 0.  0.
        -24    2    3    3    0    0  0.52573147173E+02  0.64623095683E+02 -0.20079440603E+03  0.23151130022E+03  0.79617889569E+02 0.  0.
          6    2    1    2  501    0 -0.18719940447E+03 -0.43535042035E+02  0.44937201106E+03  0.51766303030E+03  0.17058983467E+03 0.  0.
         24    2    5    5    0    0 -0.64283383083E+02 -0.70336091799E+02  0.28194333375E+03  0.30818487734E+03  0.80039715280E+02 0.  0.
          5    1    5    5  501    0 -0.12291602138E+03  0.26801049765E+02  0.16742867731E+03  0.20947815296E+03  0.47000000000E+01 0. -1.
        -11    1    6    6    0    0  0.15799245750E+02 -0.20132995461E+02  0.99168314046E+02  0.10241732365E+03  0.00000000000E+00 0.  1.
         12    1    6    6    0    0 -0.80082628833E+02 -0.50203096338E+02  0.18277501971E+03  0.20576755369E+03  0.00000000000E+00 0. -1.
         -5    1    3    3    0  503  0.13462625729E+03 -0.21088053648E+02 -0.13514798390E+03  0.19197917260E+03  0.47000000000E+01 0.  1.
         13    1    4    4    0    0 -0.79384931130E+00  0.49297159694E+02 -0.47464275417E+02  0.68437545189E+02  0.00000000000E+00 0. -1.
        -14    1    4    4    0    0  0.53366996485E+02  0.15325935989E+02 -0.15333013061E+03  0.16307375503E+03  0.00000000000E+00 0.  1.
</event>
<event>
12    1  0.8563264E-002  0.1832626E+03  0.7818608E-02  0.1164903E+00
         21   -1    0    0  503  502  0.00000000000E+00  0.00000000000E+00  0.28444321014E+03  0.28444321014E+03  0.00000000000E+00 0. -1.
         21   -1    0    0  501  503 -0.00000000000E+00 -0.00000000000E+00 -0.47999948121E+03  0.47999948121E+03  0.00000000000E+00 0. -1.
          6    2    1    2  501    0  0.51561911469E+02 -0.33533114005E+02 -0.42988986483E+03  0.46695754390E+03  0.17164192807E+03 0.  0.
         24    2    3    3    0    0  0.32640562342E+02 -0.17087439690E+02 -0.43250670488E+03  0.44131742868E+03  0.79634390718E+02 0.  0.
         -6    2    1    2    0  502 -0.51561911469E+02  0.33533114005E+02  0.23433359376E+03  0.29748514745E+03  0.17263278756E+03 0.  0.
        -24    2    5    5    0    0 -0.14104439204E+02  0.84137837841E+02  0.16850493995E+03  0.20627439170E+03  0.82928275762E+02 0.  0.
          5    1    3    3  501    0  0.18921349128E+02 -0.16445674315E+02  0.26168400518E+01  0.25640115217E+02  0.47000000000E+01 0. -1.
        -11    1    4    4    0    0 -0.24800583921E+02  0.54054002314E+01 -0.10262531052E+03  0.10571774531E+03  0.00000000000E+00 0.  1.
         12    1    4    4    0    0  0.57441146263E+02 -0.22492839921E+02 -0.32988139436E+03  0.33559968337E+03  0.00000000000E+00 0. -1.
         -5    1    5    5    0  502 -0.37457472265E+02 -0.50604723836E+02  0.65828653812E+02  0.91210755757E+02  0.47000000000E+01 0.  1.
         11    1    6    6    0    0 -0.15155732674E+02  0.76208538177E+02  0.17778492342E+03  0.19402297936E+03  0.00000000000E+00 0. -1.
        -12    1    6    6    0    0  0.10512934703E+01  0.79292996644E+01 -0.92799834691E+01  0.12251412340E+02  0.00000000000E+00 0.  1.
</event>
<event>
12    1  0.8563264E-002  0.2351860E+03  0.7818608E-02  0.1124311E+00
         21   -1    0    0  503  502  0.00000000000E+00  0.00000000000E+00  0.87713496132E+02  0.87713496132E+02  0.00000000000E+00 0. -1.
         21   -1    0    0  501  503 -0.00000000000E+00 -0.00000000000E+00 -0.76459711226E+03  0.76459711226E+03  0.00000000000E+00 0. -1.
          6    2    1    2  501    0 -0.13046998403E+03 -0.90898170219E+02 -0.14330286645E+03  0.26919753615E+03  0.16323819361E+03 0.  0.
         24    2    3    3    0    0 -0.11425344484E+03 -0.12076592677E+03 -0.88021812509E+02  0.20413492054E+03  0.79277787440E+02 0.  0.
         -6    2    1    2    0  502  0.13046998403E+03  0.90898170219E+02 -0.53358074968E+03  0.58311307224E+03  0.17328457667E+03 0.  0.
        -24    2    5    5    0    0  0.11229883492E+03  0.11174197733E+03 -0.29065979830E+03  0.33857813901E+03  0.71096695027E+02 0.  0.
          5    1    3    3  501    0 -0.16216539193E+02  0.29867756550E+02 -0.55281053938E+02  0.65062615604E+02  0.47000000000E+01 0. -1.
        -11    1    4    4    0    0  0.11995727987E+01 -0.33749863109E+02  0.19926407282E+01  0.33829910609E+02  0.00000000000E+00 0.  1.
         12    1    4    4    0    0 -0.11545301764E+03 -0.87016063660E+02 -0.90014453237E+02  0.17030500993E+03  0.00000000000E+00 0. -1.
         -5    1    5    5    0  502  0.18171149116E+02 -0.20843807111E+02 -0.24292095137E+03  0.24453493323E+03  0.47000000000E+01 0.  1.
         11    1    6    6    0    0  0.24613904717E+02  0.59060734853E+00 -0.87900421134E+02  0.91283498827E+02  0.00000000000E+00 0. -1.
        -12    1    6    6    0    0  0.87684930200E+02  0.11115136998E+03 -0.20275937717E+03  0.24729464018E+03  0.00000000000E+00 0.  1.
</event>
<event>
12    1  0.8563264E-002  0.2210904E+03  0.7818608E-02  0.1133125E+00
         21   -1    0    0  501  502  0.00000000000E+00  0.00000000000E+00  0.31022284228E+02  0.31022284228E+02  0.00000000000E+00 0. -1.
         21   -1    0    0  502  503 -0.00000000000E+00 -0.00000000000E+00 -0.16254787549E+04  0.16254787549E+04  0.00000000000E+00 0.  1.
         -6    2    1    2    0  503  0.94083332470E+02 -0.10205636128E+03 -0.94559702916E+03  0.97109972963E+03  0.17208651606E+03 0.  0.
        -24    2    3    3    0    0 -0.14702722499E+02 -0.34512708005E+02 -0.28325745412E+03  0.29647957465E+03  0.79107874474E+02 0.  0.
          6    2    1    2  501    0 -0.94083332470E+02  0.10205636128E+03 -0.64885944149E+03  0.68540130947E+03  0.17172421463E+03 0.  0.
         24    2    5    5    0    0 -0.13163893390E+02  0.11224252094E+03 -0.38398183627E+03  0.40821193519E+03  0.80145254686E+02 0.  0.
          5    1    5    5  501    0 -0.80919439080E+02 -0.10186159658E+02 -0.26487760522E+03  0.27718937429E+03  0.47000000000E+01 0. -1.
        -11    1    6    6    0    0  0.23001894660E+02  0.29417602270E+01 -0.56041824872E+02  0.60650039128E+02  0.00000000000E+00 0.  1.
         12    1    6    6    0    0 -0.36165788050E+02  0.10930076071E+03 -0.32794001140E+03  0.34756189606E+03  0.00000000000E+00 0. -1.
         -5    1    3    3    0  503  0.10878605497E+03 -0.67543653273E+02 -0.66233957504E+03  0.67462015499E+03  0.47000000000E+01 0.  1.
         13    1    4    4    0    0  0.13121308006E+02 -0.42071781007E+02 -0.81318890528E+02  0.92493056159E+02  0.00000000000E+00 0. -1.
        -14    1    4    4    0    0 -0.27824030505E+02  0.75590730020E+01 -0.20193856359E+03  0.20398651849E+03  0.00000000000E+00 0.  1.
</event>
<event>
12    1  0.8563264E-002  0.2267163E+03  0.7818608E-02  0.1129175E+00
         21   -1    0    0  503  502  0.00000000000E+00  0.00000000000E+00  0.61300809301E+02  0.61300809301E+02  0.00000000000E+00 0.  1.
         21   -1    0    0  501  503 -0.00000000000E+00 -0.00000000000E+00 -0.83567504533E+03  0.83567504533E+03  0.00000000000E+00 0.  1.
          6    2    1    2  501    0 -0.14214744292E+03 -0.36132567090E+02 -0.40608984149E+03  0.46509057106E+03  0.17288383960E+03 0.  0.
         24    2    3    3    0    0 -0.15044547382E+03  0.19231981326E+02 -0.32366070044E+03  0.36533715592E+03  0.75573003038E+02 0.  0.
         -6    2    1    2    0  502  0.14214744292E+03  0.36132567090E+02 -0.36828439455E+03  0.43188528358E+03  0.17140608207E+03 0.  0.
        -24    2    5    5    0    0  0.75712283602E+02 -0.33521803694E+02 -0.12253660251E+03  0.16791666981E+03  0.79528157492E+02 0.  0.
          5    1    3    3  501    0  0.82980308984E+01 -0.55364548416E+02 -0.82429141048E+02  0.99753415140E+02  0.47000000000E+01 0. -1.
        -13    1    4    4    0    0 -0.86520666339E+00  0.13584681801E+02 -0.65675357139E+02  0.67071191264E+02  0.00000000000E+00 0.  1.
         14    1    4    4    0    0 -0.14958026716E+03  0.56472995249E+01 -0.25798534330E+03  0.29826596465E+03  0.00000000000E+00 0. -1.
         -5    1    5    5    0  502  0.66435159319E+02  0.69654370784E+02 -0.24574779204E+03  0.26396861377E+03  0.47000000000E+01 0.  1.
         13    1    6    6    0    0 -0.15359593287E+02  0.22317067848E+01 -0.86266377669E+01  0.17757153496E+02  0.00000000000E+00 0. -1.
        -14    1    6    6    0    0  0.91071876889E+02 -0.35753510479E+02 -0.11390996474E+03  0.15015951631E+03  0.00000000000E+00 0.  1.
</event>
<event>
12    1  0.8563264E-002  0.2986724E+03  0.7818608E-02  0.1085993E+00
         21   -1    0    0  503  502  0.00000000000E+00  0.00000000000E+00  0.94733452292E+02  0.94733452292E+02  0.00000000000E+00 0. -1.
         21   -1    0    0  501  503 -0.00000000000E+00 -0.00000000000E+00 -0.98770828212E+03  0.98770828212E+03  0.00000000000E+00 0. -1.
          6    2    1    2  501    0  0.10247144979E+03 -0.22195188570E+03 -0.32638121198E+03  0.44194696785E+03  0.17038013167E+03 0.  0.
         24    2    3    3    0    0  0.81733765661E+02 -0.64004645832E+02 -0.11994445748E+03  0.18114895072E+03  0.87471517261E+02 0.  0.
         -6    2    1    2    0  502 -0.10247144979E+03  0.22195188570E+03 -0.56659361786E+03  0.64049476657E+03  0.17158723910E+03 0.  0.
        -24    2    5    5    0    0 -0.13511772926E+03  0.21259070300E+03 -0.49244611640E+03  0.55880417178E+03  0.79418619253E+02 0.  0.
          5    1    3    3  501    0  0.20737684134E+02 -0.15794723987E+03 -0.20643675450E+03  0.26079801712E+03  0.47000000000E+01 0. -1.
        -13    1    4    4    0    0  0.37538627845E+02 -0.34349235056E+02 -0.10585774792E+01  0.50893409354E+02  0.00000000000E+00 0.  1.
         14    1    4    4    0    0  0.44195137816E+02 -0.29655410776E+02 -0.11888588000E+03  0.13025554137E+03  0.00000000000E+00 0. -1.
         -5    1    5    5    0  502  0.32646279463E+02  0.93611826981E+01 -0.74147501459E+02  0.81690594789E+02  0.47000000000E+01 0.  1.
         11    1    6    6    0    0 -0.11500596441E+03  0.17898347842E+03 -0.33728544207E+03  0.39877678823E+03  0.00000000000E+00 0. -1.
        -12    1    6    6    0    0 -0.20111764847E+02  0.33607224582E+02 -0.15516067433E+03  0.16002738356E+03  0.00000000000E+00 0.  1.
</event>
<event>
12    1  0.8563264E-002  0.1951976E+03  0.7818608E-02  0.1154628E+00
         21   -1    0    0  503  502  0.00000000000E+00  0.00000000000E+00  0.72281690362E+02  0.72281690362E+02  0.00000000000E+00 0.  1.
         21   -1    0    0  501  503 -0.00000000000E+00 -0.00000000000E+00 -0.52196496329E+03  0.52196496329E+03  0.00000000000E+00 0. -1.
          6    2    1    2  501    0 -0.63458450047E+02  0.68427224648E+02 -0.19590984230E+03  0.27408564081E+03  0.16743061917E+03 0.  0.
         24    2    3    3    0    0 -0.65295174426E+02  0.10159392954E+03 -0.12108023568E+03  0.19207976360E+03  0.87460995829E+02 0.  0.
         -6    2    1    2    0  502  0.63458450047E+02 -0.68427224648E+02 -0.25377343063E+03  0.32016101284E+03  0.17144346034E+03 0.  0.
        -24    2    5    5    0    0  0.73504429336E+02 -0.52669223041E+02 -0.26962064276E+03  0.29521185561E+03  0.79232572235E+02 0.  0.
          5    1    3    3  501    0  0.18367243788E+01 -0.33166704893E+02 -0.74829606621E+02  0.82005877210E+02  0.47000000000E+01 0. -1.
        -11    1    4    4    0    0 -0.79165861452E+02  0.47666272947E+02 -0.86218172040E+02  0.12638386126E+03  0.00000000000E+00 0.  1.
         12    1    4    4    0    0  0.13870687025E+02  0.53927656593E+02 -0.34862063636E+02  0.65695902347E+02  0.00000000000E+00 0. -1.
         -5    1    5    5    0  502 -0.10045979288E+02 -0.15758001607E+02  0.15847212125E+02  0.24949157233E+02  0.47000000000E+01 0.  1.
         13    1    6    6    0    0  0.86164340576E+02 -0.49671718879E+02 -0.18922290142E+03  0.21376828498E+03  0.00000000000E+00 0. -1.
        -14    1    6    6    0    0 -0.12659911240E+02 -0.29975041620E+01 -0.80397741337E+02  0.81443570624E+02  0.00000000000E+00 0.  1.
</event>
<event>
12    1  0.8563264E-002  0.1918925E+03  0.7818608E-02  0.1156863E+00
         21   -1    0    0  501  502  0.00000000000E+00  0.00000000000E+00  0.74206011936E+03  0.74206011936E+03  0.00000000000E+00 0. -1.
         21   -1    0    0  502  503 -0.00000000000E+00 -0.00000000000E+00 -0.55723040738E+02  0.55723040738E+02  0.00000000000E+00 0. -1.
         -6    2    1    2    0  503 -0.13586334841E+01  0.83687437011E+02  0.20961719135E+03  0.28389157115E+03  0.17219066253E+03 0.  0.
        -24    2    3    3    0    0 -0.34614938390E+02  0.36797084642E+01  0.47475028949E+02  0.99991083737E+02  0.80824527461E+02 0.  0.
          6    2    1    2  501    0  0.13586334841E+01 -0.83687437011E+02  0.47671988727E+03  0.51389158895E+03  0.17267681162E+03 0.  0.
         24    2    5    5    0    0  0.28952729203E+02 -0.66266995586E+02  0.14502160134E+03  0.18055879910E+03  0.79628134751E+02 0.  0.
          5    1    5    5  501    0 -0.27594095719E+02 -0.17420441425E+02  0.33169828594E+03  0.33333278985E+03  0.47000000000E+01 0. -1.
        -11    1    6    6    0    0  0.15438745072E+02  0.97381238508E+01  0.72068299100E+02  0.74343968422E+02  0.00000000000E+00 0.  1.
         12    1    6    6    0    0  0.13513984130E+02 -0.76005119437E+02  0.72953302238E+02  0.10621483067E+03  0.00000000000E+00 0. -1.
         -5    1    3    3    0  503  0.33256304906E+02  0.80007728547E+02  0.16214216240E+03  0.18390048742E+03  0.47000000000E+01 0.  1.
         11    1    4    4    0    0 -0.14189970884E+02 -0.36246392945E+02  0.69381234120E+01  0.39538510742E+02  0.00000000000E+00 0. -1.
        -12    1    4    4    0    0 -0.20424967506E+02  0.39926101409E+02  0.40536905537E+02  0.60452572996E+02  0.00000000000E+00 0.  1.
</event>
<event>
12    1  0.8563264E-002  0.1876843E+03  0.7818608E-02  0.1160770E+00
         21   -1    0    0  501  502  0.00000000000E+00  0.00000000000E+00  0.20434726799E+03  0.20434726799E+03  0.00000000000E+00 0.  1.
         21   -1    0    0  502  503 -0.00000000000E+00 -0.00000000000E+00 -0.22906446010E+03  0.22906446010E+03  0.00000000000E+00 0. -1.
         -6    2    1    2    0  503 -0.72767963888E+02  0.13378314978E+02  0.96190668825E+02  0.21089821510E+03  0.17248552543E+03 0.  0.
        -24    2    3    3    0    0 -0.60009308648E+02  0.58688060338E+02  0.11130742160E+03  0.16123572903E+03  0.81007485225E+02 0.  0.
          6    2    1    2  501    0  0.72767963888E+02 -0.13378314978E+02 -0.12090786094E+03  0.22251351299E+03  0.17152083472E+03 0.  0.
         24    2    5    5    0    0  0.33635150741E+02  0.23512673582E+02 -0.39041656406E+00  0.90457212492E+02  0.80611324777E+02 0.  0.
          5    1    5    5  501    0  0.39132813147E+02 -0.36890988560E+02 -0.12051744437E+03  0.13205630049E+03  0.47000000000E+01 0. -1.
        -13    1    6    6    0    0 -0.25141444132E+02 -0.40032490731E+01 -0.20208267709E+01  0.25538244987E+02  0.00000000000E+00 0.  1.
         14    1    6    6    0    0  0.58776594873E+02  0.27515922655E+02  0.16304102068E+01  0.64918967505E+02  0.00000000000E+00 0. -1.
         -5    1    3    3    0  503 -0.12758655240E+02 -0.45309745360E+02 -0.15116752774E+02  0.49662486069E+02  0.47000000000E+01 0.  1.
         13    1    4    4    0    0 -0.47939195292E+02  0.19129863515E+02  0.11052936073E+02  0.52785277485E+02  0.00000000000E+00 0. -1.
        -14    1    4    4    0    0 -0.12070113356E+02  0.39558196824E+02  0.10025448553E+03  0.10845045155E+03  0.00000000000E+00 0.  1.
</event>
<event>
12    1  0.8563264E-002  0.3237985E+03  0.7818608E-02  0.1073918E+00
         21   -1    0    0  501  502  0.00000000000E+00  0.00000000000E+00  0.82229108776E+02  0.82229108776E+02  0.00000000000E+00 0.  1.
         21   -1    0    0  502  503 -0.00000000000E+00 -0.00000000000E+00 -0.17115294434E+04  0.17115294434E+04  0.00000000000E+00 0.  1.
         -6    2    1    2    0  503  0.98243361045E+02 -0.25587454636E+03 -0.12676646820E+04  0.13083650968E+04  0.17240051939E+03 0.  0.
        -24    2    3    3    0    0  0.20205949416E+02 -0.40430075703E+02 -0.37783853651E+03  0.38949687081E+03  0.83084181915E+02 0.  0.
          6    2    1    2  501    0 -0.98243361045E+02  0.25587454636E+03 -0.36163565262E+03  0.48539345537E+03  0.17234535040E+03 0.  0.
         24    2    5    5    0    0 -0.51956135685E+02  0.44614050119E+02 -0.11396199141E+03  0.15655027548E+03  0.82648652519E+02 0.  0.
          5    1    5    5  501    0 -0.46287225360E+02  0.21126049624E+03 -0.24767366122E+03  0.32884317989E+03  0.47000000000E+01 0. -1.
        -13    1    6    6    0    0 -0.70214926370E+02  0.50315516265E+02 -0.80877281860E+02  0.11833394181E+03  0.00000000000E+00 0.  1.
         14    1    6    6    0    0  0.18258790685E+02 -0.57014661460E+01 -0.33084709550E+02  0.38216333674E+02  0.00000000000E+00 0. -1.
         -5    1    3    3    0  503  0.78037411630E+02 -0.21544447066E+03 -0.88982614550E+03  0.91886822601E+03  0.47000000000E+01 0.  1.
         11    1    4    4    0    0  0.23570964385E+02  0.21820560108E+02 -0.11932088307E+03  0.12356860581E+03  0.00000000000E+00 0. -1.
        -12    1    4    4    0    0 -0.33650149689E+01 -0.62250635810E+02 -0.25851765344E+03  0.26592826500E+03  0.00000000000E+00 0.  1.
</event>
<event>
12    1  0.8563264E-002  0.1986893E+03  0.7818608E-02  0.1150908E+00
         21   -1    0    0  501  502  0.00000000000E+00  0.00000000000E+00  0.10798181297E+04  0.10798181297E+04  0.00000000000E+00 0.  1.
         21   -1    0    0  502  503 -0.00000000000E+00 -0.00000000000E+00 -0.43524609074E+02  0.43524609074E+02  0.00000000000E+00 0.  1.
         -6    2    1    2    0  503 -0.97327142974E+02 -0.90600552833E+01  0.29234647570E+03  0.35332023517E+03  0.17266751103E+03 0.  0.
        -24    2    3    3    0    0 -0.95315182868E+02  0.53016866351E+02  0.19336694316E+03  0.23637311017E+03  0.81152327769E+02 0.  0.
          6    2    1    2  501    0  0.97327142974E+02  0.90600552833E+01  0.74394704493E+03  0.77002250361E+03  0.17298205989E+03 0.  0.
         24    2    5    5    0    0  0.10533875437E+03  0.45412896139E+02  0.39366166892E+03  0.41773334737E+03  0.79831420023E+02 0.  0.
          5    1    5    5  501    0 -0.80116113953E+01 -0.36352840856E+02  0.35028537601E+03  0.35228915624E+03  0.47000000000E+01 0. -1.
        -11    1    6    6    0    0  0.13761157749E+02  0.12492792856E+02  0.20130684341E+03  0.20216301477E+03  0.00000000000E+00 0.  1.
         12    1    6    6    0    0  0.91577596620E+02  0.32920103283E+02  0.19235482551E+03  0.21557033260E+03  0.00000000000E+00 0. -1.
         -5    1    3    3    0  503 -0.20119601062E+01 -0.62076921635E+02  0.98979532542E+02  0.11694712500E+03  0.47000000000E+01 0.  1.
         13    1    4    4    0    0 -0.16354286953E+02  0.15864085345E+02  0.12064883656E+03  0.12278140604E+03  0.00000000000E+00 0. -1.
        -14    1    4    4    0    0 -0.78960895915E+02  0.37152781006E+02  0.72718106598E+02  0.11359170413E+03  0.00000000000E+00 0.  1.
</event>
<event>
12    1  0.8563264E-002  0.2341959E+03  0.7818608E-02  0.1123733E+00
         21   -1    0    0  503  502  0.00000000000E+00  0.00000000000E+00  0.25136916998E+03  0.25136916998E+03  0.00000000000E+00 0. -1.
         21   -1    0    0  501  503 -0.00000000000E+00 -0.00000000000E+00 -0.29717072821E+03  0.29717072821E+03  0.00000000000E+00 0.  1.
          6    2    1    2  501    0  0.15855598203E+03 -0.11192172265E+02  0.11854382121E+03  0.26248875162E+03  0.17199547384E+03 0.  0.
         24    2    3    3    0    0  0.11566460627E+03  0.51013454555E+02  0.42392504861E+02  0.15510940954E+03  0.79253585231E+02 0.  0.
         -6    2    1    2    0  502 -0.15855598203E+03  0.11192172265E+02 -0.16434537944E+03  0.28605114657E+03  0.17190285208E+03 0.  0.
        -24    2    5    5    0    0 -0.51401862273E+02 -0.49604810506E+02 -0.10428071485E+03  0.14890840186E+03  0.78717570992E+02 0.  0.
          5    1    3    3  501    0  0.42891375766E+02 -0.62205626819E+02  0.76151316345E+02  0.10737934207E+03  0.47000000000E+01 0. -1.
        -11    1    4    4    0    0  0.52483986233E+02  0.41545028231E+02 -0.15707431229E+02  0.68755229455E+02  0.00000000000E+00 0.  1.
         12    1    4    4    0    0  0.63180620033E+02  0.94684263237E+01  0.58099936091E+02  0.86354180087E+02  0.00000000000E+00 0. -1.
         -5    1    5    5    0  502 -0.10715411976E+03  0.60796982771E+02 -0.60064664587E+02  0.13714274471E+03  0.47000000000E+01 0.  1.
         11    1    6    6    0    0  0.98063421243E+01 -0.64958768852E+01  0.78071278338E+01  0.14117790457E+02  0.00000000000E+00 0. -1.
        -12    1    6    6    0    0 -0.61208204397E+02 -0.43108933621E+02 -0.11208784269E+03  0.13479061140E+03  0.00000000000E+00 0.  1.
</event>
<event>
12    1  0.8563264E-002  0.1769855E+03  0.7818608E-02  0.1171271E+00
         21   -1    0    0  503  502  0.00000000000E+00  0.00000000000E+00  0.47507820675E+03  0.47507820675E+03  0.00000000000E+00 0. -1.
         21   -1    0    0  501  503 -0.00000000000E+00 -0.00000000000E+00 -0.66458230567E+02  0.66458230567E+02  0.00000000000E+00 0.  1.
          6    2    1    2  501    0  0.40199849565E+02 -0.11980870941E+02  0.16529117962E+03  0.24064978049E+03  0.16979862666E+03 0.  0.
         24    2    3    3    0    0 -0.31495688573E+02 -0.42986884395E+02  0.86883087513E+02  0.12987278844E+03  0.80488630578E+02 0.  0.
         -6    2    1    2    0  502 -0.40199849565E+02  0.11980870941E+02  0.24332879656E+03  0.30088665683E+03  0.17194274585E+03 0.  0.
        -24    2    5    5    0    0 -0.14588382579E+02 -0.57673429456E+02  0.11162284324E+03  0.14963779917E+03  0.79954777434E+02 0.  0.
          5    1    3    3  501    0  0.71695538138E+02  0.31006013454E+02  0.78408092110E+02  0.11077699205E+03  0.47000000000E+01 0. -1.
        -11    1    4    4    0    0  0.13015954773E+02 -0.82286842212E+01 -0.95498740807E+01  0.18119779734E+02  0.00000000000E+00 0.  1.
         12    1    4    4    0    0 -0.44511643346E+02 -0.34758200174E+02  0.96432961594E+02  0.11175300870E+03  0.00000000000E+00 0. -1.
         -5    1    5    5    0  502 -0.25611466986E+02  0.69654300398E+02  0.13170595331E+03  0.15124885766E+03  0.47000000000E+01 0.  1.
         13    1    6    6    0    0  0.27594324748E+02 -0.32037933805E+02  0.81486981952E+02  0.91804162152E+02  0.00000000000E+00 0. -1.
        -14    1    6    6    0    0 -0.42182707327E+02 -0.25635495651E+02  0.30135861291E+02  0.57833637015E+02  0.00000000000E+00 0.  1.
</event>
<event>
12    1  0.8563264E-002  0.1838713E+03  0.7818608E-02  0.1164116E+00
         21   -1    0    0  501  502  0.00000000000E+00  0.00000000000E+00  0.14345893905E+04  0.14345893905E+04  0.00000000000E+00 0. -1.
         21   -1    0    0  502  503 -0.00000000000E+00 -0.00000000000E+00 -0.34783923178E+02  0.34783923178E+02  0.00000000000E+00 0.  1.
         -6    2    1    2    0  503 -0.62461024754E+02  0.16513156463E+02  0.28265761005E+03  0.33720022881E+03  0.17214704715E+03 0.  0.
        -24    2    3    3    0    0  0.27267259930E+02  0.33287603309E+02  0.16592835780E+03  0.18894249556E+03  0.79469986206E+02 0.  0.
          6    2    1    2  501    0  0.62461024754E+02 -0.16513156463E+02  0.11171478573E+04  0.11321730849E+04  0.17211186807E+03 0.  0.
         24    2    5    5    0    0 -0.32602860199E+02 -0.42694648959E+01  0.58624478233E+03  0.59266662968E+03  0.80558142348E+02 0.  0.
          5    1    5    5  501    0  0.95063884953E+02 -0.12243691567E+02  0.53090307497E+03  0.53950645521E+03  0.47000000000E+01 0. -1.
        -13    1    6    6    0    0 -0.46350924782E+02 -0.21178922927E+02  0.52841751537E+03  0.53086912281E+03  0.00000000000E+00 0.  1.
         14    1    6    6    0    0  0.13748064583E+02  0.16909458031E+02  0.57827266966E+02  0.61797506871E+02  0.00000000000E+00 0. -1.
         -5    1    3    3    0  503 -0.89728284684E+02 -0.16774446846E+02  0.11672925224E+03  0.14825773325E+03  0.47000000000E+01 0.  1.
         11    1    4    4    0    0  0.46996502982E+01  0.47037869766E+01  0.14835769037E+03  0.14850662146E+03  0.00000000000E+00 0. -1.
        -12    1    4    4    0    0  0.22567609632E+02  0.28583816332E+02  0.17570667436E+02  0.40435874106E+02  0.00000000000E+00 0.  1.
</event>
<event>
12    1  0.8563264E-002  0.1766814E+03  0.7818608E-02  0.1171071E+00
         21   -1    0    0  501  502  0.00000000000E+00  0.00000000000E+00  0.22325068657E+03  0.22325068657E+03  0.00000000000E+00 0. -1.
         21   -1    0    0  502  503 -0.00000000000E+00 -0.00000000000E+00 -0.15594932220E+03  0.15594932220E+03  0.00000000000E+00 0. -1.
         -6    2    1    2    0  503  0.14431615125E+01 -0.41635933977E+02 -0.27421461915E+02  0.17872871554E+03  0.17162862079E+03 0.  0.
        -24    2    3    3    0    0  0.54622651095E+01  0.79119080722E+01  0.44205515246E+02  0.91415167323E+02  0.79436582309E+02 0.  0.
          6    2    1    2  501    0 -0.14431615125E+01  0.41635933977E+02  0.94722826288E+02  0.20047129323E+03  0.17169942305E+03 0.  0.
         24    2    5    5    0    0 -0.11434461039E+02  0.90705652895E+02  0.85604848407E+02  0.14935484870E+03  0.81365953523E+02 0.  0.
          5    1    5    5  501    0  0.99912995263E+01 -0.49069718918E+02  0.91179778806E+01  0.51116444532E+02  0.47000000000E+01 0. -1.
        -13    1    6    6    0    0 -0.21257629992E+02  0.92865377756E+02  0.41147012611E+02  0.10377351235E+03  0.00000000000E+00 0.  1.
         14    1    6    6    0    0  0.98231689529E+01 -0.21597248602E+01  0.44457835796E+02  0.45581336350E+02  0.00000000000E+00 0. -1.
         -5    1    3    3    0  503 -0.40191035970E+01 -0.49547842049E+02 -0.71626977162E+02  0.87313548220E+02  0.47000000000E+01 0.  1.
         11    1    4    4    0    0  0.41938561589E+02  0.79314348987E+00  0.16563018746E+02  0.45097734031E+02  0.00000000000E+00 0. -1.
        -12    1    4    4    0    0 -0.36476296479E+02  0.71187645824E+01  0.27642496500E+02  0.46317433292E+02  0.00000000000E+00 0.  1.
</event>
<event>
12    1  0.8563264E-002  0.2096689E+03  0.7818608E-02  0.1142029E+00
         21   -1    0    0  503  502  0.00000000000E+00  0.00000000000E+00  0.64093621832E+02  0.64093621832E+02  0.00000000000E+00 0.  1.
         21   -1    0    0  501  503 -0.00000000000E+00 -0.00000000000E+00 -0.16968291585E+04  0.16968291585E+04  0.00000000000E+00 0.  1.
          6    2    1    2  501    0 -0.87652396057E+02  0.80538472292E+02 -0.14962839219E+04  0.15107626855E+04  0.17137365331E+03 0.  0.
         24    2    3    3    0    0 -0.49253845074E+02  0.10434819768E+03 -0.13516959498E+04  0.13592070080E+04  0.83947972490E+02 0.  0.
         -6    2    1    2    0  502  0.87652396057E+02 -0.80538472292E+02 -0.13645161477E+03  0.25016009479E+03  0.17260255443E+03 0.  0.
        -24    2    5    5    0    0  0.54150153378E+02 -0.30537945536E+02  0.77126943364E+00  0.10024457561E+03  0.78635709793E+02 0.  0.
          5    1    3    3  501    0 -0.38398550983E+02 -0.23809725390E+02 -0.14458797201E+03  0.15155567753E+03  0.47000000000E+01 0. -1.
        -11    1    4    4    0    0 -0.59318722828E+02  0.94598368620E+02 -0.13178930106E+04  0.13226146640E+04  0.00000000000E+00 0.  1.
         12    1    4    4    0    0  0.10064877754E+02  0.97498290615E+01 -0.33802939262E+02  0.36592343922E+02  0.00000000000E+00 0. -1.
         -5    1    5    5    0  502  0.33502242680E+02 -0.50000526756E+02 -0.13722288420E+03  0.14991551918E+03  0.47000000000E+01 0.  1.
         11    1    6    6    0    0  0.98476583866E+01 -0.48961051857E+02 -0.10325106799E+02  0.50997733333E+02  0.00000000000E+00 0. -1.
        -12    1    6    6    0    0  0.44302494991E+02  0.18423106322E+02  0.11096376232E+02  0.49246842279E+02  0.00000000000E+00 0.  1.
</event>
<event>
12    1  0.8563264E-002  0.1984486E+03  0.7818608E-02  0.1151283E+00
         21   -1    0    0  501  502  0.00000000000E+00  0.00000000000E+00  0.12461560146E+03  0.12461560146E+03  0.00000000000E+00 0.  1.
         21   -1    0    0  502  503 -0.00000000000E+00 -0.00000000000E+00 -0.31605392013E+03  0.31605392013E+03  0.00000000000E+00 0. -1.
         -6    2    1    2    0  503 -0.18229644828E+02 -0.97404687614E+02 -0.11228124097E+03  0.22801075748E+03  0.17193555575E+03 0.  0.
        -24    2    3    3    0    0  0.35375805102E+02 -0.31297575189E+01 -0.65435249712E+02  0.10978240384E+03  0.80679373565E+02 0.  0.
          6    2    1    2  501    0  0.18229644828E+02  0.97404687614E+02 -0.79157077690E+02  0.21265876412E+03  0.17069831249E+03 0.  0.
         24    2    5    5    0    0 -0.66724725757E+01  0.72122256295E+02  0.12686863026E+02  0.11408535882E+03  0.87225975840E+02 0.  0.
          5    1    5    5  501    0  0.24902117404E+02  0.25282431319E+02 -0.91843940715E+02  0.98573405291E+02  0.47000000000E+01 0. -1.
        -13    1    6    6    0    0  0.27065641009E+02  0.73763356055E+02  0.15866123792E+02  0.80158065745E+02  0.00000000000E+00 0.  1.
         14    1    6    6    0    0 -0.33738113585E+02 -0.16410997600E+01 -0.31792607667E+01  0.33927293079E+02  0.00000000000E+00 0. -1.
         -5    1    3    3    0  503 -0.53605449930E+02 -0.94274930095E+02 -0.46845991263E+02  0.11822835364E+03  0.47000000000E+01 0.  1.
         13    1    4    4    0    0 -0.65736975805E+01  0.23607891013E+00 -0.67334707608E+02  0.67655244303E+02  0.00000000000E+00 0. -1.
        -14    1    4    4    0    0  0.41949502682E+02 -0.33658364290E+01  0.18994578958E+01  0.42127159535E+02  0.00000000000E+00 0.  1.
</event>
<event>
12    1  0.8563264E-002  0.1983573E+03  0.7818608E-02  0.1154780E+00
         21   -1    0    0  501  502  0.00000000000E+00  0.00000000000E+00  0.24425655071E+02  0.24425655071E+02  0.00000000000E+00 0. -1.
         21   -1    0    0  502  503 -0.00000000000E+00 -0.00000000000E+00 -0.34430018428E+04  0.34430018428E+04  0.00000000000E+00 0. -1.
         -6    2    1    2    0  503  0.61499452136E+02  0.10719414249E+02 -0.29859875973E+04  0.29915299019E+04  0.17097407509E+03 0.  0.
        -24    2    3    3    0    0  0.89765216554E+02  0.46921396633E+02 -0.25527008140E+04  0.25557902278E+04  0.74315754937E+02 0.  0.
          6    2    1    2  501    0 -0.61499452136E+02 -0.10719414249E+02 -0.43258859039E+03  0.47589759592E+03  0.18827783941E+03 0.  0.
         24    2    5    5    0    0 -0.73879024513E+02 -0.58479631686E+02 -0.39560010963E+03  0.41405481226E+03  0.77871453246E+02 0.  0.
          5    1    5    5  501    0  0.12379572377E+02  0.47760217437E+02 -0.36988480760E+02  0.61842783660E+02  0.47000000000E+01 0. -1.
        -11    1    6    6    0    0 -0.85045989873E+01  0.16672046264E+02 -0.11005904993E+03  0.11163906037E+03  0.00000000000E+00 0.  1.
         12    1    6    6    0    0 -0.65374425525E+02 -0.75151677950E+02 -0.28554105971E+03  0.30241575189E+03  0.00000000000E+00 0. -1.
         -5    1    3    3    0  503 -0.28265764419E+02 -0.36201982384E+02 -0.43328678334E+03  0.43573967410E+03  0.47000000000E+01 0.  1.
         13    1    4    4    0    0  0.20101302745E+02  0.23847387383E+02 -0.25248673765E+03  0.25440580368E+03  0.00000000000E+00 0. -1.
        -14    1    4    4    0    0  0.69663913809E+02  0.23074009250E+02 -0.23002140763E+04  0.23013844242E+04  0.00000000000E+00 0.  1.
</event>
<event>
12    1  0.8563264E-002  0.2084932E+03  0.7818608E-02  0.1145800E+00
         21   -1    0    0  501  502  0.00000000000E+00  0.00000000000E+00  0.11962765342E+03  0.11962765342E+03  0.00000000000E+00 0.  1.
         21   -1    0    0  502  503 -0.00000000000E+00 -0.00000000000E+00 -0.34204501772E+03  0.34204501772E+03  0.00000000000E+00 0.  1.
         -6    2    1    2    0  503 -0.61654818336E+02 -0.59805751732E+02 -0.13917355755E+03  0.25067645082E+03  0.18997725998E+03 0.  0.
        -24    2    3    3    0    0 -0.10648798452E+03 -0.83141267001E+02 -0.10068543006E+03  0.18697413516E+03  0.81053132376E+02 0.  0.
          6    2    1    2  501    0  0.61654818336E+02  0.59805751732E+02 -0.83243806752E+02  0.21099622031E+03  0.17381550293E+03 0.  0.
         24    2    5    5    0    0  0.48303380568E+02  0.31562349090E+01  0.15749422308E+02  0.96065032003E+02  0.81469427870E+02 0.  0.
          5    1    5    5  501    0  0.13351437768E+02  0.56649516823E+02 -0.98993229060E+02  0.11493118831E+03  0.47000000000E+01 0. -1.
        -11    1    6    6    0    0 -0.27434082581E+01 -0.15032861252E+01 -0.28304179706E+02  0.28476529755E+02  0.00000000000E+00 0.  1.
         12    1    6    6    0    0  0.51046788826E+02  0.46595210343E+01  0.44053602014E+02  0.67588502248E+02  0.00000000000E+00 0. -1.
         -5    1    3    3    0  503  0.44833166181E+02  0.23335515269E+02 -0.38488127484E+02  0.63702315656E+02  0.47000000000E+01 0.  1.
         13    1    4    4    0    0 -0.55328756891E+02 -0.18642667488E+02 -0.85075553044E+02  0.10318270260E+03  0.00000000000E+00 0. -1.
        -14    1    4    4    0    0 -0.51159227627E+02 -0.64498599513E+02 -0.15609877020E+02  0.83791432564E+02  0.00000000000E+00 0.  1.
</event>
<event>
12    1  0.8563264E-002  0.1855119E+03  0.7818608E-02  0.1163302E+00
         21   -1    0    0  501  502  0.00000000000E+00  0.00000000000E+00  0.32824429552E+03  0.32824429552E+03  0.00000000000E+00 0.  1.
         21   -1    0    0  502  503 -0.00000000000E+00 -0.00000000000E+00 -0.15275057603E+03  0.15275057603E+03  0.00000000000E+00 0.  1.
         -6    2    1    2    0  503 -0.10827470769E+01 -0.62868213971E+02 -0.48868824614E+02  0.19184061640E+03  0.17453101562E+03 0.  0.
        -24    2    3    3    0    0 -0.28310988832E+02 -0.67142536370E+01 -0.85767765579E+02  0.11918893882E+03  0.77480966921E+02 0.  0.
          6    2    1    2  501    0  0.10827470769E+01  0.62868213971E+02  0.22436254411E+03  0.28915425515E+03  0.17122513659E+03 0.  0.
         24    2    5    5    0    0  0.27073739224E+02  0.10157698395E+03  0.13598253746E+03  0.18911918069E+03  0.78891970356E+02 0.  0.
          5    1    5    5  501    0 -0.25990992147E+02 -0.38708769981E+02  0.88380006648E+02  0.10003507446E+03  0.47000000000E+01 0. -1.
        -13    1    6    6    0    0 -0.36143496456E+01  0.41003980647E+02  0.10817619726E+03  0.11574316225E+03  0.00000000000E+00 0.  1.
         14    1    6    6    0    0  0.30688088870E+02  0.60573003304E+02  0.27806340200E+02  0.73376018447E+02  0.00000000000E+00 0. -1.
         -5    1    3    3    0  503  0.27228241755E+02 -0.56153960334E+02  0.36898940965E+02  0.72651677576E+02  0.47000000000E+01 0.  1.
         13    1    4    4    0    0  0.10783257368E+02 -0.14317185911E+02  0.62017993631E+01  0.18966358829E+02  0.00000000000E+00 0. -1.
        -14    1    4    4    0    0 -0.39094246200E+02  0.76029322744E+01 -0.91969564942E+02  0.10022257999E+03  0.00000000000E+00 0.  1.
</event>
<event>
12    1  0.8563264E-002  0.3543694E+03  0.7818608E-02  0.1061724E+00
         21   -1    0    0  501  502  0.00000000000E+00  0.00000000000E+00  0.65242522859E+03  0.65242522859E+03  0.00000000000E+00 0. -1.
         21   -1    0    0  502  503 -0.00000000000E+00 -0.00000000000E+00 -0.37940088153E+03  0.37940088153E+03  0.00000000000E+00 0.  1.
         -6    2    1    2    0  503  0.60866746722E+02  0.29367316927E+03 -0.22927248877E+03  0.42207053510E+03  0.18875638080E+03 0.  0.
        -24    2    3    3    0    0  0.19707023089E+02  0.28117866018E+03 -0.23932178816E+03  0.37764853576E+03  0.76770388674E+02 0.  0.
          6    2    1    2  501    0 -0.60866746722E+02 -0.29367316927E+03  0.50229683583E+03  0.60975557502E+03  0.17190421397E+03 0.  0.
         24    2    5    5    0    0 -0.57522349308E+01 -0.15546998488E+03  0.37512111013E+03  0.41396618616E+03  0.80300383619E+02 0.  0.
          5    1    5    5  501    0 -0.55114511791E+02 -0.13820318439E+03  0.12717572570E+03  0.19578938887E+03  0.47000000000E+01 0. -1.
        -13    1    6    6    0    0 -0.27198600713E+02 -0.13528329937E+02  0.85162328479E+02  0.90417928441E+02  0.00000000000E+00 0.  1.
         14    1    6    6    0    0  0.21446365782E+02 -0.14194165494E+03  0.28995878165E+03  0.32354825771E+03  0.00000000000E+00 0. -1.
         -5    1    3    3    0  503  0.41159723633E+02  0.12494509087E+02  0.10049299392E+02  0.44421999337E+02  0.47000000000E+01 0.  1.
         11    1    4    4    0    0  0.23433141452E+02  0.16717103268E+03 -0.95035920298E+02  0.19371910704E+03  0.00000000000E+00 0. -1.
        -12    1    4    4    0    0 -0.37261183627E+01  0.11400762750E+03 -0.14428586786E+03  0.18392942873E+03  0.00000000000E+00 0.  1.
</event>
<event>
12    1  0.8563264E-002  0.1875360E+03  0.7818608E-02  0.1160887E+00
         21   -1    0    0  501  502  0.00000000000E+00  0.00000000000E+00  0.14971403056E+03  0.14971403056E+03  0.00000000000E+00 0.  1.
         21   -1    0    0  502  503 -0.00000000000E+00 -0.00000000000E+00 -0.29105129227E+03  0.29105129227E+03  0.00000000000E+00 0.  1.
         -6    2    1    2    0  503  0.74320508176E+02  0.58581741946E+01 -0.16844122811E+03  0.25207579214E+03  0.17208108994E+03 0.  0.
        -24    2    3    3    0    0  0.17045350656E+01  0.55189607090E+02 -0.10092557888E+03  0.14122849757E+03  0.81918971451E+02 0.  0.
          6    2    1    2  501    0 -0.74320508176E+02 -0.58581741946E+01  0.27103966397E+02  0.18868953069E+03  0.17120530908E+03 0.  0.
         24    2    5    5    0    0 -0.11700850001E+03  0.74765746897E+01  0.19207985694E+02  0.14303302309E+03  0.79640509397E+02 0.  0.
          5    1    5    5  501    0  0.42687991833E+02 -0.13334748884E+02  0.78959807025E+01  0.45656507596E+02  0.47000000000E+01 0. -1.
        -13    1    6    6    0    0 -0.58989277959E+01 -0.83857546355E+01 -0.21357573008E+02  0.23691014219E+02  0.00000000000E+00 0.  1.
         14    1    6    6    0    0 -0.11110957221E+03  0.15862329325E+02  0.40565558702E+02  0.11934200887E+03  0.00000000000E+00 0. -1.
         -5    1    3    3    0  503  0.72615973111E+02 -0.49331432895E+02 -0.67515649224E+02  0.11084729457E+03  0.47000000000E+01 0.  1.
         11    1    4    4    0    0  0.79657665233E+00  0.92091160205E+01  0.14377287204E+02  0.17092359100E+02  0.00000000000E+00 0. -1.
        -12    1    4    4    0    0  0.90795841328E+00  0.45980491070E+02 -0.11530286609E+03  0.12413613847E+03  0.00000000000E+00 0.  1.
</event>
<event>
12    1  0.8563264E-002  0.2788566E+03  0.7818608E-02  0.1096380E+00
         21   -1    0    0  503  502  0.00000000000E+00  0.00000000000E+00  0.96999473273E+02  0.96999473273E+02  0.00000000000E+00 0.  1.
         21   -1    0    0  501  503 -0.00000000000E+00 -0.00000000000E+00 -0.80529481733E+03  0.80529481733E+03  0.00000000000E+00 0. -1.
          6    2    1    2  501    0 -0.26681173287E+02  0.21846956609E+03 -0.38997014001E+03  0.47941392161E+03  0.17123131087E+03 0.  0.
         24    2    3    3    0    0  0.93998457774E+01  0.35651651045E+02 -0.81234332369E+02  0.11876988809E+03  0.78408368418E+02 0.  0.
         -6    2    1    2    0  502  0.26681173287E+02 -0.21846956609E+03 -0.31832520406E+03  0.42288036900E+03  0.17045830761E+03 0.  0.
        -24    2    5    5    0    0 -0.21154324374E+02 -0.21017612885E+03 -0.28589901174E+03  0.36430935325E+03  0.79759321543E+02 0.  0.
          5    1    3    3  501    0 -0.36081019065E+02  0.18281791504E+03 -0.30873580764E+03  0.36064403352E+03  0.47000000000E+01 0. -1.
        -11    1    4    4    0    0 -0.23974978811E+02  0.18466372203E+02 -0.11043377770E+01  0.30282438364E+02  0.00000000000E+00 0.  1.
         12    1    4    4    0    0  0.33374824589E+02  0.17185278842E+02 -0.80129994592E+02  0.88487449724E+02  0.00000000000E+00 0. -1.
         -5    1    5    5    0  502  0.47835497661E+02 -0.82934372314E+01 -0.32426192315E+02  0.58571015747E+02  0.47000000000E+01 0.  1.
         11    1    6    6    0    0 -0.44945101328E+02 -0.18789790688E+03 -0.24402847039E+03  0.31124842153E+03  0.00000000000E+00 0. -1.
        -12    1    6    6    0    0  0.23790776954E+02 -0.22278221977E+02 -0.41870541352E+02  0.53060931726E+02  0.00000000000E+00 0.  1.
</event>
<event>
12    1  0.8563264E-002  0.1782019E+03  0.7818608E-02  0.1169654E+00
         21   -1    0    0  503  502  0.00000000000E+00  0.00000000000E+00  0.94026219411E+02  0.94026219411E+02  0.00000000000E+00 0.  1.
         21   -1    0    0  501  503 -0.00000000000E+00 -0.00000000000E+00 -0.58341481155E+03  0.58341481155E+03  0.00000000000E+00 0.  1.
          6    2    1    2  501    0 -0.38519511224E+02  0.26433424777E+02 -0.46468080821E+03  0.49753437241E+03  0.17155092400E+03 0.  0.
         24    2    3    3    0    0 -0.21228936118E+02  0.54372183471E+02 -0.13906092662E+03  0.17022727577E+03  0.78945437109E+02 0.  0.
         -6    2    1    2    0  502  0.38519511224E+02 -0.26433424777E+02 -0.24707783937E+02  0.17990665855E+03  0.17196933597E+03 0.  0.
        -24    2    5    5    0    0  0.67977585724E+02 -0.60132250085E+02 -0.33248266982E+02  0.13409815682E+03  0.92951754928E+02 0.  0.
          5    1    3    3  501    0 -0.17290575106E+02 -0.27938758694E+02 -0.32561988159E+03  0.32730709664E+03  0.47000000000E+01 0. -1.
        -13    1    4    4    0    0  0.78798205671E+01  0.18064412102E+02  0.37181584081E+01  0.20055903338E+02  0.00000000000E+00 0.  1.
         14    1    4    4    0    0 -0.29108756685E+02  0.36307771369E+02 -0.14277908502E+03  0.15017137243E+03  0.00000000000E+00 0. -1.
         -5    1    5    5    0  502 -0.29458074500E+02  0.33698825309E+02  0.85404830447E+01  0.45808501734E+02  0.47000000000E+01 0.  1.
         11    1    6    6    0    0  0.19700838787E+02  0.17577966675E+02 -0.33447672552E+02  0.42612847364E+02  0.00000000000E+00 0. -1.
        -12    1    6    6    0    0  0.48276746937E+02 -0.77710216760E+02  0.19940556992E+00  0.91485309457E+02  0.00000000000E+00 0.  1.
</event>
<event>
12    1  0.8563264E-002  0.2180899E+03  0.7818608E-02  0.1136654E+00
         21   -1    0    0  503  502  0.00000000000E+00  0.00000000000E+00  0.37718726980E+03  0.37718726980E+03  0.00000000000E+00 0.  1.
         21   -1    0    0  501  503 -0.00000000000E+00 -0.00000000000E+00 -0.18970253087E+03  0.18970253087E+03  0.00000000000E+00 0.  1.
          6    2    1    2  501    0  0.12622562428E+02 -0.12226889233E+03 -0.76432465411E+02  0.22452229823E+03  0.17163720320E+03 0.  0.
         24    2    3    3    0    0  0.69587545856E+01 -0.12826881912E+03 -0.10822188611E+03  0.19134497000E+03  0.91649368167E+02 0.  0.
         -6    2    1    2    0  502 -0.12622562428E+02  0.12226889233E+03  0.26391720435E+03  0.34236750244E+03  0.18015050614E+03 0.  0.
        -24    2    5    5    0    0 -0.23427819011E+02  0.15320249108E+03  0.25373167509E+03  0.30773404885E+03  0.79376419036E+02 0.  0.
          5    1    3    3  501    0  0.56638078422E+01  0.59999267949E+01  0.31789420695E+02  0.33177328237E+02  0.47000000000E+01 0. -1.
        -13    1    4    4    0    0 -0.40083839393E+02 -0.65706615029E+02 -0.36517628860E+02  0.85191611422E+02  0.00000000000E+00 0.  1.
         14    1    4    4    0    0  0.47042593978E+02 -0.62562204095E+02 -0.71704257246E+02  0.10615335857E+03  0.00000000000E+00 0. -1.
         -5    1    5    5    0  502  0.10805256583E+02 -0.30933598752E+02  0.10185529257E+02  0.34633453593E+02  0.47000000000E+01 0.  1.
         13    1    6    6    0    0 -0.22696493195E+02  0.16564849168E+02  0.91025286204E+02  0.95263464979E+02  0.00000000000E+00 0. -1.
        -14    1    6    6    0    0 -0.73132581623E+00  0.13663764191E+03  0.16270638888E+03  0.21247058387E+03  0.00000000000E+00 0.  1.
</event>
<event>
12    1  0.8563264E-002  0.1845327E+03  0.7818608E-02  0.1165816E+00
         21   -1    0    0  501  502  0.00000000000E+00  0.00000000000E+00  0.10435542526E+03  0.10435542526E+03  0.00000000000E+00 0. -1.
         21   -1    0    0  502  503 -0.00000000000E+00 -0.00000000000E+00 -0.47103823864E+03  0.47103823864E+03  0.00000000000E+00 0. -1.
         -6    2    1    2    0  503 -0.35919324756E+02  0.16190449717E+02 -0.35504088459E+03  0.40013289794E+03  0.18027750203E+03 0.  0.
        -24    2    3    3    0    0 -0.73905344131E+02  0.60792300937E+02 -0.25907954283E+03  0.28760320448E+03  0.80222752184E+02 0.  0.
          6    2    1    2  501    0  0.35919324756E+02 -0.16190449717E+02 -0.11641928791E+02  0.17526076596E+03  0.17037744283E+03 0.  0.
         24    2    5    5    0    0 -0.37016894890E+02  0.22691131808E+02  0.61896769529E+01  0.90575904966E+02  0.79249886369E+02 0.  0.
          5    1    5    5  501    0  0.72936219647E+02 -0.38881581525E+02 -0.17831605744E+02  0.84684860994E+02  0.47000000000E+01 0. -1.
        -13    1    6    6    0    0  0.22255113068E+02 -0.88221355408E+00 -0.10525601748E+02  0.24634460631E+02  0.00000000000E+00 0.  1.
         14    1    6    6    0    0 -0.59272007958E+02  0.23573345362E+02  0.16715278700E+02  0.65941444335E+02  0.00000000000E+00 0. -1.
         -5    1    3    3    0  503  0.37986019375E+02 -0.44601851220E+02 -0.95961341756E+02  0.11252969347E+03  0.47000000000E+01 0.  1.
         13    1    4    4    0    0 -0.16604454452E+02 -0.15936379798E+02 -0.93825316103E+02  0.96606759859E+02  0.00000000000E+00 0. -1.
        -14    1    4    4    0    0 -0.57300889679E+02  0.76728680735E+02 -0.16525422673E+03  0.19099644462E+03  0.00000000000E+00 0.  1.
</event>
<event>
12    1  0.8563264E-002  0.2016325E+03  0.7818608E-02  0.1148386E+00
         21   -1    0    0  503  502  0.00000000000E+00  0.00000000000E+00  0.26569550607E+03  0.26569550607E+03  0.00000000000E+00 0.  1.
         21   -1    0    0  501  503 -0.00000000000E+00 -0.00000000000E+00 -0.20085665665E+03  0.20085665665E+03  0.00000000000E+00 0. -1.
          6    2    1    2  501    0 -0.11254680767E+02  0.10607137553E+03 -0.81505795004E+02  0.21740879084E+03  0.17101340056E+03 0.  0.
         24    2    3    3    0    0 -0.66742439790E+02  0.91028267924E+02 -0.31510921643E+02  0.14107554874E+03  0.78540902966E+02 0.  0.
         -6    2    1    2    0  502  0.11254680767E+02 -0.10607137553E+03  0.14634464443E+03  0.24914337187E+03  0.17110774456E+03 0.  0.
        -24    2    5    5    0    0  0.13921128467E+02  0.52841202076E+01  0.20910273714E+02  0.81324935067E+02  0.77167258424E+02 0.  0.
          5    1    3    3  501    0  0.55487759024E+02  0.15043107609E+02 -0.49994873361E+02  0.76333242106E+02  0.47000000000E+01 0. -1.
        -13    1    4    4    0    0 -0.18707354703E+02 -0.40971300437E+01  0.15465078047E+02  0.24615447052E+02  0.00000000000E+00 0.  1.
         14    1    4    4    0    0 -0.48035085088E+02  0.95125397968E+02 -0.46975999690E+02  0.11646010169E+03  0.00000000000E+00 0. -1.
         -5    1    5    5    0  502 -0.26664477003E+01 -0.11135549574E+03  0.12543437071E+03  0.16781843680E+03  0.47000000000E+01 0.  1.
         11    1    6    6    0    0  0.42341138920E+02  0.18061017130E+02  0.48997349730E+01  0.46292329684E+02  0.00000000000E+00 0. -1.
        -12    1    6    6    0    0 -0.28420010453E+02 -0.12776896923E+02  0.16010538741E+02  0.35032605383E+02  0.00000000000E+00 0.  1.
</event>
<event>
12    1  0.8563264E-002  0.1996554E+03  0.7818608E-02  0.1150272E+00
         21   -1    0    0  503  502  0.00000000000E+00  0.00000000000E+00  0.22119729290E+03  0.22119729290E+03  0.00000000000E+00 0.  1.
         21   -1    0    0  501  503 -0.00000000000E+00 -0.00000000000E+00 -0.18827010448E+03  0.18827010448E+03  0.00000000000E+00 0. -1.
          6    2    1    2  501    0  0.97287820313E+02 -0.23352199886E+02 -0.28473663145E+02  0.20167557596E+03  0.17277743842E+03 0.  0.
         24    2    3    3    0    0 -0.71846478178E+01  0.11757759501E+02 -0.29426790380E+02  0.91356927055E+02  0.85383183684E+02 0.  0.
         -6    2    1    2    0  502 -0.97287820313E+02  0.23352199886E+02  0.61400851561E+02  0.20779182142E+03  0.17145591636E+03 0.  0.
        -24    2    5    5    0    0 -0.12090113267E+03  0.14933950510E+02  0.10600356238E+02  0.15094786160E+03  0.88503009041E+02 0.  0.
          5    1    3    3  501    0  0.10447246813E+03 -0.35109959388E+02  0.95312723518E+00  0.11031864891E+03  0.47000000000E+01 0. -1.
        -13    1    4    4    0    0 -0.17275554124E+02  0.20314527549E+02  0.24267880427E+02  0.36056272967E+02  0.00000000000E+00 0.  1.
         14    1    4    4    0    0  0.10090906306E+02 -0.85567680474E+01 -0.53694670807E+02  0.55300654088E+02  0.00000000000E+00 0. -1.
         -5    1    5    5    0  502  0.23613312357E+02  0.84182493757E+01  0.50800495323E+02  0.56843959821E+02  0.47000000000E+01 0.  1.
         13    1    6    6    0    0 -0.83704488380E+02  0.51283576590E+02  0.12161855611E+02  0.98915910423E+02  0.00000000000E+00 0. -1.
        -14    1    6    6    0    0 -0.37196644290E+02 -0.36349626080E+02 -0.15614993737E+01  0.52031951173E+02  0.00000000000E+00 0.  1.
</event>
<event>
12    1  0.8563264E-002  0.2510707E+03  0.7818608E-02  0.1112834E+00
         21   -1    0    0  501  502  0.00000000000E+00  0.00000000000E+00  0.29598059744E+03  0.29598059744E+03  0.00000000000E+00 0. -1.
         21   -1    0    0  502  503 -0.00000000000E+00 -0.00000000000E+00 -0.23530791608E+03  0.23530791608E+03  0.00000000000E+00 0. -1.
         -6    2    1    2    0  503 -0.17880910276E+03 -0.33351427411E+02 -0.53411469299E+02  0.25668912310E+03  0.17306503958E+03 0.  0.
        -24    2    3    3    0    0 -0.13678657248E+03 -0.93009282251E+02 -0.45166625034E+02  0.18310230259E+03  0.64227223218E+02 0.  0.
          6    2    1    2  501    0  0.17880910276E+03  0.33351427411E+02  0.11408415066E+03  0.27459939043E+03  0.17118591897E+03 0.  0.
         24    2    5    5    0    0  0.81749149975E+02 -0.43102418951E+02  0.78744184002E+02  0.14600379058E+03  0.81090802854E+02 0.  0.
          5    1    5    5  501    0  0.97059952782E+02  0.76453846363E+02  0.35339966658E+02  0.12859559985E+03  0.47000000000E+01 0. -1.
        -13    1    6    6    0    0  0.81966401721E+02 -0.60449385079E+01  0.36851448109E+02  0.90072534773E+02  0.00000000000E+00 0.  1.
         14    1    6    6    0    0 -0.21725174632E+00 -0.37057480443E+02  0.41892735893E+02  0.55931255803E+02  0.00000000000E+00 0. -1.
         -5    1    3    3    0  503 -0.42022530276E+02  0.59657854840E+02 -0.82448442651E+01  0.73586820503E+02  0.47000000000E+01 0.  1.
         11    1    4    4    0    0 -0.12707679466E+03 -0.94956957346E+02 -0.24943951151E+02  0.16058498120E+03  0.00000000000E+00 0. -1.
        -12    1    4    4    0    0 -0.97097778231E+01  0.19476750948E+01 -0.20222673883E+02  0.22517321391E+02  0.00000000000E+00 0.  1.
</event>
<event>
12    1  0.8563264E-002  0.1723258E+03  0.7818608E-02  0.1175855E+00
         21   -1    0    0  501  502  0.00000000000E+00  0.00000000000E+00  0.65314297348E+02  0.65314297348E+02  0.00000000000E+00 0. -1.
         21   -1    0    0  502  503 -0.00000000000E+00 -0.00000000000E+00 -0.72605091104E+03  0.72605091104E+03  0.00000000000E+00 0. -1.
         -6    2    1    2    0  503 -0.95198229415E+00 -0.79499079142E+01 -0.57319025831E+03  0.59807646733E+03  0.17054114236E+03 0.  0.
        -24    2    3    3    0    0  0.12217545367E+02  0.36082604881E+02 -0.52034928625E+03  0.52788703101E+03  0.80312608092E+02 0.  0.
          6    2    1    2  501    0  0.95198229415E+00  0.79499079142E+01 -0.87546355375E+02  0.19328874106E+03  0.17213966938E+03 0.  0.
         24    2    5    5    0    0  0.32880987629E+02 -0.30423471870E+02 -0.10571212903E+03  0.13995898398E+03  0.80041963900E+02 0.  0.
          5    1    5    5  501    0 -0.31929005335E+02  0.38373379784E+02  0.18165773653E+02  0.53329757079E+02  0.47000000000E+01 0. -1.
        -11    1    6    6    0    0 -0.13767422681E+02  0.98592004476E+01  0.74202456264E+00  0.16949818914E+02  0.00000000000E+00 0.  1.
         12    1    6    6    0    0  0.46648410310E+02 -0.40282672318E+02 -0.10645415359E+03  0.12300916507E+03  0.00000000000E+00 0. -1.
         -5    1    3    3    0  503 -0.13169527661E+02 -0.44032512795E+02 -0.52840972067E+02  0.70189436320E+02  0.47000000000E+01 0.  1.
         13    1    4    4    0    0 -0.27506151399E+02  0.23875789858E+02 -0.37347329471E+03  0.37524517794E+03  0.00000000000E+00 0. -1.
        -14    1    4    4    0    0  0.39723696766E+02  0.12206815023E+02 -0.14687599154E+03  0.15264185307E+03  0.00000000000E+00 0.  1.
</event>
<event>
12    1  0.8563264E-002  0.3163892E+03  0.7818608E-02  0.1077690E+00
         21   -1    0    0  501  502  0.00000000000E+00  0.00000000000E+00  0.60653412304E+03  0.60653412304E+03  0.00000000000E+00 0.  1.
         21   -1    0    0  502  503 -0.00000000000E+00 -0.00000000000E+00 -0.23965138515E+03  0.23965138515E+03  0.00000000000E+00 0. -1.
         -6    2    1    2    0  503 -0.12408010902E+03  0.23492508381E+03 -0.54571805964E+02  0.32106111262E+03  0.17180363085E+03 0.  0.
        -24    2    3    3    0    0 -0.18191846957E+02  0.16428032799E+03 -0.27331609839E+01  0.18353896647E+03  0.79750314003E+02 0.  0.
          6    2    1    2  501    0  0.12408010902E+03 -0.23492508381E+03  0.42145454386E+03  0.52512439557E+03  0.16596996664E+03 0.  0.
         24    2    5    5    0    0  0.12800435035E+03 -0.24459972169E+03  0.35211166136E+03  0.45484265085E+03  0.81762322667E+02 0.  0.
          5    1    5    5  501    0 -0.39242413255E+01  0.96746378785E+01  0.69342882496E+02  0.70281744720E+02  0.47000000000E+01 0. -1.
        -13    1    6    6    0    0  0.11154011336E+03 -0.13025910185E+03  0.19242064223E+03  0.25774858692E+03  0.00000000000E+00 0.  1.
         14    1    6    6    0    0  0.16464236982E+02 -0.11434061983E+03  0.15969101913E+03  0.19709406393E+03  0.00000000000E+00 0. -1.
         -5    1    3    3    0  503 -0.10588826206E+03  0.70644755817E+02 -0.51838644980E+02  0.13752214615E+03  0.47000000000E+01 0.  1.
         11    1    4    4    0    0 -0.44097793327E+02  0.13914732407E+03 -0.11421236840E+02  0.14641392633E+03  0.00000000000E+00 0. -1.
        -12    1    4    4    0    0  0.25905946370E+02  0.25133003920E+02  0.86880758557E+01  0.37125040141E+02  0.00000000000E+00 0.  1.
</event>
<event>
12    1  0.8563264E-002  0.2196193E+03  0.7818608E-02  0.1134248E+00
         21   -1    0    0  501  502  0.00000000000E+00  0.00000000000E+00  0.24141822261E+03  0.24141822261E+03  0.00000000000E+00 0.  1.
         21   -1    0    0  502  503 -0.00000000000E+00 -0.00000000000E+00 -0.20326687369E+03  0.20326687369E+03  0.00000000000E+00 0.  1.
         -6    2    1    2    0  503 -0.12626233987E+02  0.13578446876E+03 -0.11585526854E+02  0.21992467538E+03  0.17215050005E+03 0.  0.
        -24    2    3    3    0    0 -0.20624107213E+02  0.15963007242E+03  0.17740556080E+02  0.18100568348E+03  0.80877786219E+02 0.  0.
          6    2    1    2  501    0  0.12626233987E+02 -0.13578446876E+03  0.49736875782E+02  0.22476042092E+03  0.17160025134E+03 0.  0.
         24    2    5    5    0    0  0.43735933626E+02 -0.15545477763E+03  0.30106451649E+02  0.18278211683E+03  0.80149136140E+02 0.  0.
          5    1    5    5  501    0 -0.31109699639E+02  0.19670308870E+02  0.19630424132E+02  0.41978304090E+02  0.47000000000E+01 0. -1.
        -13    1    6    6    0    0  0.14599468174E+02 -0.85613535004E+02 -0.23584814361E+02  0.89994807158E+02  0.00000000000E+00 0.  1.
         14    1    6    6    0    0  0.29136465452E+02 -0.69841242625E+02  0.53691266010E+02  0.92787309672E+02  0.00000000000E+00 0. -1.
         -5    1    3    3    0  503  0.79978732258E+01 -0.23845603662E+02 -0.29326082934E+02  0.38918991898E+02  0.47000000000E+01 0.  1.
         13    1    4    4    0    0  0.59643778427E+01 -0.17332679774E+01 -0.13178946740E+02  0.14569236703E+02  0.00000000000E+00 0. -1.
        -14    1    4    4    0    0 -0.26588485056E+02  0.16136334040E+03  0.30919502820E+02  0.16643644678E+03  0.00000000000E+00 0.  1.
</event>
<event>
12    1  0.8563264E-002  0.2851357E+03  0.7818608E-02  0.1093319E+00
         21   -1    0    0  501  502  0.00000000000E+00  0.00000000000E+00  0.12994004300E+04  0.12994004300E+04  0.00000000000E+00 0. -1.
         21   -1    0    0  502  503 -0.00000000000E+00 -0.00000000000E+00 -0.62885741678E+02  0.62885741678E+02  0.00000000000E+00 0.  1.
         -6    2    1    2    0  503  0.20703187951E+03 -0.84342685455E+02  0.69980123651E+03  0.75453319837E+03  0.17211243155E+03 0.  0.
        -24    2    3    3    0    0  0.85707955445E+02 -0.63613072861E+02  0.51740113264E+03  0.53443981073E+03  0.80805337533E+02 0.  0.
          6    2    1    2  501    0 -0.20703187951E+03  0.84342685455E+02  0.53671345183E+03  0.60775297333E+03  0.17699282327E+03 0.  0.
         24    2    5    5    0    0 -0.17942827154E+03  0.55517861398E+02  0.26842188533E+03  0.33646846527E+03  0.76707118556E+02 0.  0.
          5    1    5    5  501    0 -0.27603607971E+02  0.28824824057E+02  0.26829156651E+03  0.27128450806E+03  0.47000000000E+01 0. -1.
        -11    1    6    6    0    0 -0.61523261529E+01 -0.13696217882E+02  0.11362908295E+02  0.18829582744E+02  0.00000000000E+00 0.  1.
         12    1    6    6    0    0 -0.17327594539E+03  0.69214079281E+02  0.25705897703E+03  0.31763888253E+03  0.00000000000E+00 0. -1.
         -5    1    3    3    0  503  0.12132392407E+03 -0.20729612594E+02  0.18240010387E+03  0.22009338764E+03  0.47000000000E+01 0.  1.
         13    1    4    4    0    0  0.27182461551E+02  0.18006986902E+02  0.10278432952E+03  0.10783207402E+03  0.00000000000E+00 0. -1.
        -14    1    4    4    0    0  0.58525493894E+02 -0.81620059763E+02  0.41461680313E+03  0.42660773672E+03  0.00000000000E+00 0.  1.
</event>
<event>
12    1  0.8563264E-002  0.1924492E+03  0.7818608E-02  0.1156297E+00
         21   -1    0    0  501  502  0.00000000000E+00  0.00000000000E+00  0.15192210057E+03  0.15192210057E+03  0.00000000000E+00 0.  1.
         21   -1    0    0  502  503 -0.00000000000E+00 -0.00000000000E+00 -0.33870021124E+03  0.33870021124E+03  0.00000000000E+00 0.  1.
         -6    2    1    2    0  503  0.45682617923E+02  0.73252941128E+02 -0.22332852122E+03  0.29473302603E+03  0.17186923308E+03 0.  0.
        -24    2    3    3    0    0  0.47239522483E+02  0.97354560729E+01 -0.21022700862E+03  0.22968969823E+03  0.78965883316E+02 0.  0.
          6    2    1    2  501    0 -0.45682617923E+02 -0.73252941128E+02  0.36550410554E+02  0.19588928578E+03  0.17199937444E+03 0.  0.
         24    2    5    5    0    0  0.16655260107E+02 -0.90969117737E+02  0.42913728938E+02  0.13060180021E+03  0.81623918162E+02 0.  0.
          5    1    5    5  501    0 -0.62337878030E+02  0.17716176610E+02 -0.63633183841E+01  0.65287485568E+02  0.47000000000E+01 0. -1.
        -13    1    6    6    0    0 -0.51798524990E+01 -0.15551611538E+02  0.49177701917E+02  0.51837533305E+02  0.00000000000E+00 0.  1.
         14    1    6    6    0    0  0.21835112606E+02 -0.75417506200E+02 -0.62639729791E+01  0.78764266907E+02  0.00000000000E+00 0. -1.
         -5    1    3    3    0  503 -0.15569045601E+01  0.63517485055E+02 -0.13101512597E+02  0.65043327804E+02  0.47000000000E+01 0.  1.
         13    1    4    4    0    0  0.10680430523E+02 -0.30525613421E+02 -0.12053782924E+03  0.12480085316E+03  0.00000000000E+00 0. -1.
        -14    1    4    4    0    0  0.36559091960E+02  0.40261069494E+02 -0.89689179383E+02  0.10488884507E+03  0.00000000000E+00 0.  1.
</event>
<event>
12    1  0.8563264E-002  0.1991754E+03  0.7818608E-02  0.1150732E+00
         21   -1    0    0  501  502  0.00000000000E+00  0.00000000000E+00  0.27119698004E+03  0.27119698004E+03  0.00000000000E+00 0.  1.
         21   -1    0    0  502  503 -0.00000000000E+00 -0.00000000000E+00 -0.16393717855E+03  0.16393717855E+03  0.00000000000E+00 0. -1.
         -6    2    1    2    0  503 -0.57989709689E+02  0.86687718508E+02 -0.19965332722E+02  0.19879316222E+03  0.16805516911E+03 0.  0.
        -24    2    3    3    0    0  0.27693718158E+02  0.74290131736E+02 -0.19970115139E+02  0.11208999048E+03  0.76677211538E+02 0.  0.
          6    2    1    2  501    0  0.57989709689E+02 -0.86687718508E+02  0.12722513422E+03  0.23634099637E+03  0.16968578261E+03 0.  0.
         24    2    5    5    0    0  0.88044606645E+02 -0.83244566574E+02  0.50879399533E+02  0.15408582431E+03  0.80450092188E+02 0.  0.
          5    1    5    5  501    0 -0.30054896956E+02 -0.34431519337E+01  0.76345734682E+02  0.82255172059E+02  0.47000000000E+01 0. -1.
        -13    1    6    6    0    0  0.24321092759E+02  0.42261897862E+01  0.37703068781E+02  0.45065481565E+02  0.00000000000E+00 0.  1.
         14    1    6    6    0    0  0.63723513886E+02 -0.87470756360E+02  0.13176330751E+02  0.10902034275E+03  0.00000000000E+00 0. -1.
         -5    1    3    3    0  503 -0.85683427847E+02  0.12397586772E+02  0.47824163154E-02  0.86703171732E+02  0.47000000000E+01 0.  1.
         11    1    4    4    0    0  0.97515726567E+01  0.80858031926E+02 -0.34132400173E+02  0.88307050895E+02  0.00000000000E+00 0. -1.
        -12    1    4    4    0    0  0.17942145502E+02 -0.65679001903E+01  0.14162285034E+02  0.23782939589E+02  0.00000000000E+00 0.  1.
</event>
<event>
12    1  0.8563264E-002  0.1782437E+03  0.7818608E-02  0.1171080E+00
         21   -1    0    0  501  502  0.00000000000E+00  0.00000000000E+00  0.55664072793E+03  0.55664072793E+03  0.00000000000E+00 0. -1.
         21   -1    0    0  502  503 -0.00000000000E+00 -0.00000000000E+00 -0.74838959554E+02  0.74838959554E+02  0.00000000000E+00 0. -1.
         -6    2    1    2    0  503  0.36773280746E+02 -0.25850425572E+02  0.75537417602E+02  0.18783394216E+03  0.16599749905E+03 0.  0.
        -24    2    3    3    0    0 -0.24629538064E+01 -0.11629462429E+02 -0.21235297624E+02  0.82340974113E+02  0.78662491791E+02 0.  0.
          6    2    1    2  501    0 -0.36773280746E+02  0.25850425572E+02  0.40626435077E+03  0.44364574533E+03  0.17248277003E+03 0.  0.
         24    2    5    5    0    0 -0.38727102614E+02  0.40718964462E+02  0.11011426611E+03  0.14707896783E+03  0.79682172618E+02 0.  0.
          5    1    5    5  501    0  0.19538218679E+01 -0.14868538890E+02  0.29615008466E+03  0.29656677750E+03  0.47000000000E+01 0. -1.
        -11    1    6    6    0    0 -0.18847493381E+02  0.38118614053E+02  0.11808149822E+03  0.12550496790E+03  0.00000000000E+00 0.  1.
         12    1    6    6    0    0 -0.19879609233E+02  0.26003504089E+01 -0.79672321142E+01  0.21573999932E+02  0.00000000000E+00 0. -1.
         -5    1    3    3    0  503  0.39236234553E+02 -0.14220963142E+02  0.96772715226E+02  0.10549296804E+03  0.47000000000E+01 0.  1.
         13    1    4    4    0    0 -0.12304791190E+01 -0.41484902955E+02 -0.29989304934E+02  0.51204195750E+02  0.00000000000E+00 0. -1.
        -14    1    4    4    0    0 -0.12324746874E+01  0.29855440525E+02  0.87540073097E+01  0.31136778363E+02  0.00000000000E+00 0.  1.
</event>
<event>
12    1  0.8563264E-002  0.2062755E+03  0.7818608E-02  0.1145137E+00
         21   -1    0    0  503  502  0.00000000000E+00  0.00000000000E+00  0.40062290626E+03  0.40062290626E+03  0.00000000000E+00 0. -1.
         21   -1    0    0  501  503 -0.00000000000E+00 -0.00000000000E+00 -0.26682197714E+03  0.26682197714E+03  0.00000000000E+00 0. -1.
          6    2    1    2  501    0 -0.10576078137E+03  0.43425563464E+02 -0.19338838247E+03  0.28066013318E+03  0.16822580494E+03 0.  0.
         24    2    3    3    0    0 -0.10751285862E+02  0.16959843204E+02 -0.25598347690E+02  0.85973656106E+02  0.79579945405E+02 0.  0.
         -6    2    1    2    0  502  0.10576078137E+03 -0.43425563464E+02  0.32718931159E+03  0.38678475022E+03  0.17169296709E+03 0.  0.
        -24    2    5    5    0    0  0.18473401659E+02 -0.76523754718E+02  0.20183295492E+03  0.23041696876E+03  0.78474748794E+02 0.  0.
          5    1    3    3  501    0 -0.95009495506E+02  0.26465720259E+02 -0.16779003478E+03  0.19468647708E+03  0.47000000000E+01 0. -1.
        -11    1    4    4    0    0  0.24672963073E+02 -0.19075796410E+02 -0.13679629403E+02  0.34055445615E+02  0.00000000000E+00 0.  1.
         12    1    4    4    0    0 -0.35424248935E+02  0.36035639614E+02 -0.11918718287E+02  0.51918210491E+02  0.00000000000E+00 0. -1.
         -5    1    5    5    0  502  0.87287379709E+02  0.33098191254E+02  0.12535635667E+03  0.15636778146E+03  0.47000000000E+01 0.  1.
         13    1    6    6    0    0  0.14299755208E+02  0.91578429816E+01  0.77656131837E+02  0.79491030305E+02  0.00000000000E+00 0. -1.
        -14    1    6    6    0    0  0.41736464508E+01 -0.85681597699E+02  0.12417682308E+03  0.15092593846E+03  0.00000000000E+00 0.  1.
</event>
<event>
12    1  0.8563264E-002  0.1829060E+03  0.7818608E-02  0.1165286E+00
         21   -1    0    0  503  502  0.00000000000E+00  0.00000000000E+00  0.73555715951E+03  0.73555715951E+03  0.00000000000E+00 0. -1.
         21   -1    0    0  501  503 -0.00000000000E+00 -0.00000000000E+00 -0.47058479236E+02  0.47058479236E+02  0.00000000000E+00 0. -1.
          6    2    1    2  501    0 -0.41815235639E+02 -0.41629168201E+02  0.42090584651E+03  0.45848523889E+03  0.17194615749E+03 0.  0.
         24    2    3    3    0    0 -0.44514796443E+02  0.34865880851E+02  0.17905912593E+03  0.20477141110E+03  0.81682087842E+02 0.  0.
         -6    2    1    2    0  502  0.41815235639E+02  0.41629168201E+02  0.26759283377E+03  0.32413039986E+03  0.17312738042E+03 0.  0.
        -24    2    5    5    0    0  0.35592477108E+02  0.76383033926E+02  0.10007581056E+03  0.15286862079E+03  0.79072467165E+02 0.  0.
          5    1    3    3  501    0  0.26995608041E+01 -0.76495049053E+02  0.24184672058E+03  0.25371382779E+03  0.47000000000E+01 0. -1.
        -11    1    4    4    0    0  0.23649407326E+02  0.28675371334E+01  0.37415558059E+02  0.44355847652E+02  0.00000000000E+00 0.  1.
         12    1    4    4    0    0 -0.68164203769E+02  0.31998343718E+02  0.14164356787E+03  0.16041556345E+03  0.00000000000E+00 0. -1.
         -5    1    5    5    0  502  0.62227585302E+01 -0.34753865725E+02  0.16751702321E+03  0.17126177907E+03  0.47000000000E+01 0.  1.
         11    1    6    6    0    0  0.41442602228E+02  0.86763764822E+01  0.17223297060E+02  0.45710072740E+02  0.00000000000E+00 0. -1.
        -12    1    6    6    0    0 -0.58501251197E+01  0.67706657444E+02  0.82852513501E+02  0.10715854805E+03  0.00000000000E+00 0.  1.
</event>
<event>
12    1  0.8563264E-002  0.2095703E+03  0.7818608E-02  0.1142408E+00
         21   -1    0    0  503  502  0.00000000000E+00  0.00000000000E+00  0.18560039587E+04  0.18560039587E+04  0.00000000000E+00 0.  1.
         21   -1    0    0  501  503 -0.00000000000E+00 -0.00000000000E+00 -0.32386581325E+02  0.32386581325E+02  0.00000000000E+00 0.  1.
          6    2    1    2  501    0  0.95142717959E+01 -0.11790736947E+03  0.14136633672E+04  0.14291129472E+04  0.17299430898E+03 0.  0.
         24    2    3    3    0    0 -0.34000062844E+02 -0.13616821742E+03  0.11140648623E+04  0.11257842311E+04  0.80943374114E+02 0.  0.
         -6    2    1    2    0  502 -0.95142717959E+01  0.11790736947E+03  0.40995401013E+03  0.45927759278E+03  0.16994395449E+03 0.  0.
        -24    2    5    5    0    0  0.34313550678E+02  0.10844031713E+02  0.22483819925E+03  0.24093522458E+03  0.78756293823E+02 0.  0.
          5    1    3    3  501    0  0.43514334640E+02  0.18260847947E+02  0.29959850493E+03  0.30332871615E+03  0.47000000000E+01 0. -1.
        -13    1    4    4    0    0 -0.29236685944E+01 -0.12683372734E+03  0.95943223861E+03  0.96778384091E+03  0.00000000000E+00 0.  1.
         14    1    4    4    0    0 -0.31076394249E+02 -0.93344900815E+01  0.15463262366E+03  0.15800039015E+03  0.00000000000E+00 0. -1.
         -5    1    5    5    0  502 -0.43827822474E+02  0.10706333776E+03  0.18511581087E+03  0.21834236820E+03  0.47000000000E+01 0.  1.
         13    1    6    6    0    0  0.44184724385E+02  0.37471263043E+02  0.15935646088E+03  0.16956080634E+03  0.00000000000E+00 0. -1.
        -14    1    6    6    0    0 -0.98711737069E+01 -0.26627231330E+02  0.65481738377E+02  0.71374418243E+02  0.00000000000E+00 0.  1.
</event>
<event>
12    1  0.8563264E-002  0.2359228E+03  0.7818608E-02  0.1122633E+00
         21   -1    0    0  503  502  0.00000000000E+00  0.00000000000E+00  0.17969971038E+03  0.17969971038E+03  0.00000000000E+00 0. -1.
         21   -1    0    0  501  503 -0.00000000000E+00 -0.00000000000E+00 -0.67191055145E+03  0.67191055145E+03  0.00000000000E+00 0. -1.
          6    2    1    2  501    0 -0.12458315835E+03  0.10352812313E+03 -0.55890289256E+03  0.60644212472E+03  0.17076466762E+03 0.  0.
         24    2    3    3    0    0 -0.90730084586E+02  0.30377495757E+02 -0.18948673940E+03  0.22830533849E+03  0.84043814033E+02 0.  0.
         -6    2    1    2    0  502  0.12458315835E+03 -0.10352812313E+03  0.66692051481E+02  0.24516813711E+03  0.17152419683E+03 0.  0.
        -24    2    5    5    0    0  0.12968721198E+03 -0.10208209820E+03  0.56051173759E+01  0.18367142281E+03  0.80400537880E+02 0.  0.
          5    1    3    3  501    0 -0.33853073765E+02  0.73150627378E+02 -0.36941615316E+03  0.37813678624E+03  0.47000000000E+01 0. -1.
        -13    1    4    4    0    0 -0.51133317362E+02  0.46400481402E+02 -0.16547540385E+03  0.17930345813E+03  0.00000000000E+00 0.  1.
         14    1    4    4    0    0 -0.39596767224E+02 -0.16022985645E+02 -0.24011335545E+02  0.49001880354E+02  0.00000000000E+00 0. -1.
         -5    1    5    5    0  502 -0.51040536303E+01 -0.14460249385E+01  0.61086934105E+02  0.61496714302E+02  0.47000000000E+01 0.  1.
         11    1    6    6    0    0  0.27668334014E+02 -0.13041358209E+02  0.33556892347E+02  0.45405712801E+02  0.00000000000E+00 0. -1.
        -12    1    6    6    0    0  0.10201887797E+03 -0.89040739988E+02 -0.27951774971E+02  0.13826571001E+03  0.00000000000E+00 0.  1.
</event>
<event>
12    1  0.8563264E-002  0.2126979E+03  0.7818608E-02  0.1139515E+00
         21   -1    0    0  503  502  0.00000000000E+00  0.00000000000E+00  0.37169626301E+02  0.37169626301E+02  0.00000000000E+00 0. -1.
         21   -1    0    0  501  503 -0.00000000000E+00 -0.00000000000E+00 -0.15091800812E+04  0.15091800812E+04  0.00000000000E+00 0.  1.
          6    2    1    2  501    0 -0.12072579327E+03 -0.32631702240E+02 -0.10767960772E+04  0.10975348166E+04  0.17161974432E+03 0.  0.
         24    2    3    3    0    0 -0.73871891042E+01 -0.30085405445E+02 -0.67417454978E+03  0.67923073204E+03  0.76703074234E+02 0.  0.
         -6    2    1    2    0  502  0.12072579327E+03  0.32631702240E+02 -0.39521437769E+03  0.44881489089E+03  0.17204899534E+03 0.  0.
        -24    2    5    5    0    0  0.65931590303E+02  0.56913883559E+02 -0.36065899711E+03  0.37947375349E+03  0.79619423849E+02 0.  0.
          5    1    3    3  501    0 -0.11333860416E+03 -0.25462967950E+01 -0.40262152744E+03  0.41830408458E+03  0.47000000000E+01 0. -1.
        -13    1    4    4    0    0 -0.41739766188E+02 -0.16583647393E+02 -0.41903204030E+03  0.42143217276E+03  0.00000000000E+00 0.  1.
         14    1    4    4    0    0  0.34352577084E+02 -0.13501758052E+02 -0.25514250948E+03  0.25779855928E+03  0.00000000000E+00 0. -1.
         -5    1    5    5    0  502  0.54794202964E+02 -0.24282181319E+02 -0.34555380588E+02  0.69341137398E+02  0.47000000000E+01 0.  1.
         13    1    6    6    0    0  0.57291054880E+02  0.24159639552E+02 -0.10852608401E+03  0.12507543349E+03  0.00000000000E+00 0. -1.
        -14    1    6    6    0    0  0.86405354236E+01  0.32754244007E+02 -0.25213291310E+03  0.25439832000E+03  0.00000000000E+00 0.  1.
</event>
<event>
12    1  0.8563264E-002  0.1749146E+03  0.7818608E-02  0.1173119E+00
         21   -1    0    0  501  502  0.00000000000E+00  0.00000000000E+00  0.11732573235E+04  0.11732573235E+04  0.00000000000E+00 0. -1.
         21   -1    0    0  502  503 -0.00000000000E+00 -0.00000000000E+00 -0.57609603023E+02  0.57609603023E+02  0.00000000000E+00 0. -1.
         -6    2    1    2    0  503  0.15523454214E+02  0.29713224817E+02  0.10208630205E+03  0.20252589999E+03  0.17167199463E+03 0.  0.
        -24    2    3    3    0    0 -0.34540531871E+02  0.63494969561E+02  0.35398437160E+02  0.11243166985E+03  0.78505869408E+02 0.  0.
          6    2    1    2  501    0 -0.15523454214E+02 -0.29713224817E+02  0.10135614184E+04  0.10283410265E+04  0.17045428877E+03 0.  0.
         24    2    5    5    0    0 -0.72328843597E+02  0.49695025583E+01  0.61397424773E+03  0.62322161101E+03  0.78642494799E+02 0.  0.
          5    1    5    5  501    0  0.56805389383E+02 -0.34682727375E+02  0.39958717070E+03  0.40511941552E+03  0.47000000000E+01 0. -1.
        -11    1    6    6    0    0 -0.69799939591E+02  0.17357946315E+02  0.60031543983E+03  0.60460892912E+03  0.00000000000E+00 0.  1.
         12    1    6    6    0    0 -0.25289040064E+01 -0.12388443757E+02  0.13658807894E+02  0.18612681894E+02  0.00000000000E+00 0. -1.
         -5    1    3    3    0  503  0.50063986085E+02 -0.33781744744E+02  0.66687864886E+02  0.90094230136E+02  0.47000000000E+01 0.  1.
         13    1    4    4    0    0 -0.51793156588E+02  0.24595445290E+02  0.39582920807E+02  0.69672624595E+02  0.00000000000E+00 0. -1.
        -14    1    4    4    0    0  0.17252624717E+02  0.38899524271E+02 -0.41844836472E+01  0.42759045260E+02  0.00000000000E+00 0.  1.
</event>
<event>
12    1  0.8563264E-002  0.2334593E+03  0.7818608E-02  0.1124451E+00
         21   -1    0    0  501  502  0.00000000000E+00  0.00000000000E+00  0.58862835619E+03  0.58862835619E+03  0.00000000000E+00 0. -1.
         21   -1    0    0  502  503 -0.00000000000E+00 -0.00000000000E+00 -0.99425620432E+02  0.99425620432E+02  0.00000000000E+00 0. -1.
         -6    2    1    2    0  503  0.67093992139E+02 -0.14310416390E+03  0.15048909069E+03  0.27667799435E+03  0.17006863506E+03 0.  0.
        -24    2    3    3    0    0  0.24292488658E+02 -0.25535378787E+02  0.11778276537E+03  0.14727095571E+03  0.81078813523E+02 0.  0.
          6    2    1    2  501    0 -0.67093992139E+02  0.14310416390E+03  0.33871364507E+03  0.41137598228E+03  0.17182217531E+03 0.  0.
         24    2    5    5    0    0  0.24716288577E+02  0.32420190789E+02  0.13154486922E+03  0.15914382486E+03  0.79754251799E+02 0.  0.
          5    1    5    5  501    0 -0.91810280716E+02  0.11068397311E+03  0.20716877585E+03  0.25223215742E+03  0.47000000000E+01 0. -1.
        -11    1    6    6    0    0  0.18831094420E+02 -0.11461286804E+02  0.18756688410E+01  0.22124406113E+02  0.00000000000E+00 0.  1.
         12    1    6    6    0    0  0.58851941574E+01  0.43881477592E+02  0.12966920038E+03  0.13701941874E+03  0.00000000000E+00 0. -1.
         -5    1    3    3    0  503  0.42801503480E+02 -0.11756878511E+03  0.32706325319E+02  0.12940703864E+03  0.47000000000E+01 0.  1.
         11    1    4    4    0    0  0.45949853163E+02 -0.35455065702E+02  0.10564077191E+03  0.12053390967E+03  0.00000000000E+00 0. -1.
        -12    1    4    4    0    0 -0.21657364505E+02  0.99196869151E+01  0.12141993455E+02  0.26737046039E+02  0.00000000000E+00 0.  1.
</event>
<event>
12    1  0.8563264E-002  0.1739752E+03  0.7818608E-02  0.1174232E+00
         21   -1    0    0  503  502  0.00000000000E+00  0.00000000000E+00  0.58027363937E+02  0.58027363937E+02  0.00000000000E+00 0.  1.
         21   -1    0    0  501  503 -0.00000000000E+00 -0.00000000000E+00 -0.51639442169E+03  0.51639442169E+03  0.00000000000E+00 0.  1.
          6    2    1    2  501    0  0.23433117160E+01 -0.13719392466E+02 -0.22365619266E+03  0.28335396631E+03  0.17341760253E+03 0.  0.
         24    2    3    3    0    0  0.71442692291E+02  0.80320671238E+01 -0.12445555067E+03  0.16042834749E+03  0.71270598445E+02 0.  0.
         -6    2    1    2    0  502 -0.23433117160E+01  0.13719392466E+02 -0.23471086510E+03  0.29106781932E+03  0.17157381039E+03 0.  0.
        -24    2    5    5    0    0 -0.14332063239E+02 -0.40573901762E+01 -0.25180009289E+03  0.26324919479E+03  0.75332471923E+02 0.  0.
          5    1    3    3  501    0 -0.69099380575E+02 -0.21751459590E+02 -0.99200641989E+02  0.12292561882E+03  0.47000000000E+01 0. -1.
        -13    1    4    4    0    0  0.38504968007E+02  0.22880607295E+02 -0.11450463906E+03  0.12295310943E+03  0.00000000000E+00 0.  1.
         14    1    4    4    0    0  0.32937724284E+02 -0.14848540171E+02 -0.99509116087E+01  0.37475238065E+02  0.00000000000E+00 0. -1.
         -5    1    5    5    0  502  0.11988751523E+02  0.17776782642E+02  0.17089227795E+02  0.27818624531E+02  0.47000000000E+01 0.  1.
         11    1    6    6    0    0  0.10782419882E+02  0.27714685977E+02 -0.57082012820E+02  0.64363969617E+02  0.00000000000E+00 0. -1.
        -12    1    6    6    0    0 -0.25114483121E+02 -0.31772076153E+02 -0.19471808007E+03  0.19888522517E+03  0.00000000000E+00 0.  1.
</event>
<event>
12    1  0.8563264E-002  0.1751564E+03  0.7818608E-02  0.1172754E+00
         21   -1    0    0  501  502  0.00000000000E+00  0.00000000000E+00  0.90125750158E+02  0.90125750158E+02  0.00000000000E+00 0.  1.
         21   -1    0    0  502  503 -0.00000000000E+00 -0.00000000000E+00 -0.39953437662E+03  0.39953437662E+03  0.00000000000E+00 0.  1.
         -6    2    1    2    0  503  0.28036520150E+02  0.10777023516E+02 -0.24971387749E+03  0.30461083798E+03  0.17183873634E+03 0.  0.
        -24    2    3    3    0    0 -0.77322149454E+01  0.67193891169E+02 -0.11889771382E+03  0.15765089771E+03  0.78373037712E+02 0.  0.
          6    2    1    2  501    0 -0.28036520150E+02 -0.10777023516E+02 -0.59694748975E+02  0.18504928880E+03  0.17256183104E+03 0.  0.
         24    2    5    5    0    0 -0.81193335966E+02 -0.13885407415E+02 -0.14689007006E+02  0.11517142443E+03  0.79142452166E+02 0.  0.
          5    1    5    5  501    0  0.53156815816E+02  0.31083838984E+01 -0.45005741968E+02  0.69877864366E+02  0.47000000000E+01 0. -1.
        -11    1    6    6    0    0 -0.89286728843E+02 -0.49035438437E+01 -0.31199184852E+02  0.94707728434E+02  0.00000000000E+00 0.  1.
         12    1    6    6    0    0  0.80933928769E+01 -0.89818635710E+01  0.16510177846E+02  0.20463696000E+02  0.00000000000E+00 0. -1.
         -5    1    3    3    0  503  0.35768735096E+02 -0.56416867652E+02 -0.13081616367E+03  0.14695994027E+03  0.47000000000E+01 0.  1.
         13    1    4    4    0    0 -0.39208982135E+02  0.35213569806E+02 -0.89950426340E+02  0.10425170971E+03  0.00000000000E+00 0. -1.
        -14    1    4    4    0    0  0.31476767189E+02  0.31980321363E+02 -0.28947287480E+02  0.53399188005E+02  0.00000000000E+00 0.  1.
</event>
<event>
12    1  0.8563264E-002  0.2023260E+03  0.7818608E-02  0.1150664E+00
         21   -1    0    0  503  502  0.00000000000E+00  0.00000000000E+00  0.14225102231E+03  0.14225102231E+03  0.00000000000E+00 0.  1.
         21   -1    0    0  501  503 -0.00000000000E+00 -0.00000000000E+00 -0.34073579572E+03  0.34073579572E+03  0.00000000000E+00 0. -1.
          6    2    1    2  501    0 -0.13502939251E+02  0.98378315826E+02 -0.21257171759E+03  0.29346639808E+03  0.17628150580E+03 0.  0.
         24    2    3    3    0    0 -0.73438616408E+02  0.48020703025E+02 -0.97128433899E+02  0.15390488364E+03  0.80954074864E+02 0.  0.
         -6    2    1    2    0  502  0.13502939251E+02 -0.98378315826E+02  0.14086944188E+02  0.18952041995E+03  0.16080710553E+03 0.  0.
        -24    2    5    5    0    0 -0.24548299461E+02 -0.75707724935E+02 -0.41288924127E+02  0.11845404780E+03  0.77409996540E+02 0.  0.
          5    1    3    3  501    0  0.59935677157E+02  0.50357612801E+02 -0.11544328369E+03  0.13956151444E+03  0.47000000000E+01 0. -1.
        -11    1    4    4    0    0 -0.65993479805E+02  0.56569308145E+02 -0.40036205716E+02  0.95698086548E+02  0.00000000000E+00 0.  1.
         12    1    4    4    0    0 -0.74451366026E+01 -0.85486051202E+01 -0.57092228184E+02  0.58206797090E+02  0.00000000000E+00 0. -1.
         -5    1    5    5    0  502  0.38051238711E+02 -0.22670590892E+02  0.55375868315E+02  0.71066372150E+02  0.47000000000E+01 0.  1.
         13    1    6    6    0    0  0.39852241313E+01  0.14117760645E+02  0.18801311659E+01  0.14789458077E+02  0.00000000000E+00 0. -1.
        -14    1    6    6    0    0 -0.28533523592E+02 -0.89825485580E+02 -0.43169055293E+02  0.10366458973E+03  0.00000000000E+00 0.  1.
</event>
<event>
12    1  0.8563264E-002  0.2172548E+03  0.7818608E-02  0.1137296E+00
         21   -1    0    0  503  502  0.00000000000E+00  0.00000000000E+00  0.63874714570E+02  0.63874714570E+02  0.00000000000E+00 0. -1.
         21   -1    0    0  501  503 -0.00000000000E+00 -0.00000000000E+00 -0.92478505834E+03  0.92478505834E+03  0.00000000000E+00 0. -1.
          6    2    1    2  501    0  0.15025915945E+02  0.12489571387E+03 -0.67114901363E+03  0.70543648165E+03  0.17712965210E+03 0.  0.
         24    2    3    3    0    0 -0.42537057378E+02  0.13028284563E+03 -0.51913722490E+03  0.54273371278E+03  0.79204820510E+02 0.  0.
         -6    2    1    2    0  502 -0.15025915945E+02 -0.12489571387E+03 -0.18976133014E+03  0.28322329126E+03  0.16846766100E+03 0.  0.
        -24    2    5    5    0    0 -0.63651733560E+02 -0.35402704543E+02 -0.91239246483E+02  0.14144120556E+03  0.79850609627E+02 0.  0.
          5    1    3    3  501    0  0.57562973324E+02 -0.53871317589E+01 -0.15201178873E+03  0.16270276887E+03  0.47000000000E+01 0. -1.
        -13    1    4    4    0    0 -0.64350511446E+01  0.15056775255E+02 -0.21322427357E+03  0.21385206850E+03  0.00000000000E+00 0.  1.
         14    1    4    4    0    0 -0.36102006234E+02  0.11522607037E+03 -0.30591295133E+03  0.32888164428E+03  0.00000000000E+00 0. -1.
         -5    1    5    5    0  502  0.48625817615E+02 -0.89493009325E+02 -0.98522083657E+02  0.14178208570E+03  0.47000000000E+01 0.  1.
         13    1    6    6    0    0  0.83476950586E+01 -0.25615749132E+02 -0.52710424534E+02  0.59196617056E+02  0.00000000000E+00 0. -1.
        -14    1    6    6    0    0 -0.71999428619E+02 -0.97869554110E+01 -0.38528821949E+02  0.82244588505E+02  0.00000000000E+00 0.  1.
</event>
<event>
12    1  0.8563264E-002  0.2643418E+03  0.7818608E-02  0.1105720E+00
         21   -1    0    0  503  502  0.00000000000E+00  0.00000000000E+00  0.17684237410E+04  0.17684237410E+04  0.00000000000E+00 0. -1.
         21   -1    0    0  501  503 -0.00000000000E+00 -0.00000000000E+00 -0.39386804266E+02  0.39386804266E+02  0.00000000000E+00 0. -1.
          6    2    1    2  501    0  0.10378723247E+03  0.15970552569E+03  0.10227583776E+04  0.10563670326E+04  0.18330020190E+03 0.  0.
         24    2    3    3    0    0 -0.17383554954E+02  0.10154527840E+03  0.44979578561E+03  0.46783224524E+03  0.77052770151E+02 0.  0.
         -6    2    1    2    0  502 -0.10378723247E+03 -0.15970552569E+03  0.70627855907E+03  0.75144351262E+03  0.17193110568E+03 0.  0.
        -24    2    5    5    0    0 -0.12841871951E+03 -0.16455133369E+03  0.67478688445E+03  0.71089714929E+03  0.80429525005E+02 0.  0.
          5    1    3    3  501    0  0.12117078742E+03  0.58160247282E+02  0.57296259201E+03  0.58853478736E+03  0.47000000000E+01 0. -1.
        -11    1    4    4    0    0 -0.19605447237E+02  0.27879692046E+01  0.26035581752E+02  0.32710821616E+02  0.00000000000E+00 0.  1.
         12    1    4    4    0    0  0.22218922829E+01  0.98757309199E+02  0.42376020386E+03  0.43512142363E+03  0.00000000000E+00 0. -1.
         -5    1    5    5    0  502  0.24631487047E+02  0.48458080094E+01  0.31491674617E+02  0.40546363334E+02  0.47000000000E+01 0.  1.
         13    1    6    6    0    0 -0.67979021964E+02 -0.79778727411E+02  0.46537882111E+03  0.47703588954E+03  0.00000000000E+00 0. -1.
        -14    1    6    6    0    0 -0.60439697549E+02 -0.84772606284E+02  0.20940806334E+03  0.23386125975E+03  0.00000000000E+00 0.  1.
</event>
<event>
12    1  0.8563264E-002  0.2212695E+03  0.7818608E-02  0.1133034E+00
         21   -1    0    0  503  502  0.00000000000E+00  0.00000000000E+00  0.13298030747E+03  0.13298030747E+03  0.00000000000E+00 0. -1.
         21   -1    0    0  501  503 -0.00000000000E+00 -0.00000000000E+00 -0.36737787519E+03  0.36737787519E+03  0.00000000000E+00 0. -1.
          6    2    1    2  501    0 -0.11928994511E+03  0.69280074540E+02 -0.11982975241E+03  0.25118757637E+03  0.17235489325E+03 0.  0.
         24    2    3    3    0    0 -0.12815836842E+03  0.51075907191E+01 -0.10402417668E+03  0.18433951854E+03  0.81910767810E+02 0.  0.
         -6    2    1    2    0  502  0.11928994511E+03 -0.69280074540E+02 -0.11456781531E+03  0.24917060629E+03  0.17300400863E+03 0.  0.
        -24    2    5    5    0    0  0.83518118112E+02 -0.82066687294E+02 -0.14281224804E+03  0.20160003710E+03  0.80851837020E+02 0.  0.
          5    1    3    3  501    0  0.88684233069E+01  0.64172483821E+02 -0.15805575725E+02  0.66848057831E+02  0.47000000000E+01 0. -1.
        -11    1    4    4    0    0 -0.84564504132E+02  0.41234976808E+02 -0.77135527179E+02  0.12166087384E+03  0.00000000000E+00 0.  1.
         12    1    4    4    0    0 -0.43593864287E+02 -0.36127386088E+02 -0.26888649504E+02  0.62678644698E+02  0.00000000000E+00 0. -1.
         -5    1    5    5    0  502  0.35771826999E+02  0.12786612754E+02  0.28244432737E+02  0.47570569191E+02  0.47000000000E+01 0.  1.
         11    1    6    6    0    0  0.39981566618E+02  0.57149217344E+01 -0.64784731493E+02  0.76342959297E+02  0.00000000000E+00 0. -1.
        -12    1    6    6    0    0  0.43536551495E+02 -0.87781609029E+02 -0.78027516550E+02  0.12525707780E+03  0.00000000000E+00 0.  1.
</event>
<event>
12    1  0.8563264E-002  0.2870108E+03  0.7818608E-02  0.1091929E+00
         21   -1    0    0  501  502  0.00000000000E+00  0.00000000000E+00  0.35185509351E+03  0.35185509351E+03  0.00000000000E+00 0.  1.
         21   -1    0    0  502  503 -0.00000000000E+00 -0.00000000000E+00 -0.25751188708E+03  0.25751188708E+03  0.00000000000E+00 0. -1.
         -6    2    1    2    0  503 -0.21853234914E+03 -0.71408928314E+02 -0.44770970754E+02  0.29048172886E+03  0.17181260813E+03 0.  0.
        -24    2    3    3    0    0 -0.21142171982E+03 -0.10576031743E+03 -0.47678892879E+02  0.25496940713E+03  0.82775197921E+02 0.  0.
          6    2    1    2  501    0  0.21853234914E+03  0.71408928314E+02  0.13911417719E+03  0.31888525173E+03  0.17169573906E+03 0.  0.
         24    2    5    5    0    0  0.14797396414E+03  0.58457325837E+02  0.16495513407E+03  0.24249104545E+03  0.79234827290E+02 0.  0.
          5    1    5    5  501    0  0.70558385002E+02  0.12951602477E+02 -0.25840956887E+02  0.76394206283E+02  0.47000000000E+01 0. -1.
        -13    1    6    6    0    0  0.10828218548E+03  0.12423583874E+02  0.13839002962E+03  0.17615668431E+03  0.00000000000E+00 0.  1.
         14    1    6    6    0    0  0.39691778662E+02  0.46033741963E+02  0.26565104451E+02  0.66334361133E+02  0.00000000000E+00 0. -1.
         -5    1    3    3    0  503 -0.71106293291E+01  0.34351389119E+02  0.29079221242E+01  0.35512321734E+02  0.47000000000E+01 0.  1.
         11    1    4    4    0    0 -0.15529013682E+03 -0.33464234576E+02 -0.33505912043E+02  0.16235001611E+03  0.00000000000E+00 0. -1.
        -12    1    4    4    0    0 -0.56131582992E+02 -0.72296082857E+02 -0.14172980836E+02  0.92619391012E+02  0.00000000000E+00 0.  1.
</event>
<event>
12    1  0.8563264E-002  0.1750444E+03  0.7818608E-02  0.1172826E+00
         21   -1    0    0  503  502  0.00000000000E+00  0.00000000000E+00  0.14744451662E+03  0.14744451662E+03  0.00000000000E+00 0.  1.
         21   -1    0    0  501  503 -0.00000000000E+00 -0.00000000000E+00 -0.24215595029E+03  0.24215595029E+03  0.00000000000E+00 0.  1.
          6    2    1    2  501    0 -0.24937381196E+02  0.11224758898E+02 -0.12148125519E+03  0.21306864167E+03  0.17289500429E+03 0.  0.
         24    2    3    3    0    0 -0.64180827880E+02 -0.34597834961E+02 -0.10270602465E+03  0.14970968416E+03  0.80921401243E+02 0.  0.
         -6    2    1    2    0  502  0.24937381196E+02 -0.11224758898E+02  0.26769821529E+02  0.17653182523E+03  0.17233396004E+03 0.  0.
        -24    2    5    5    0    0 -0.22041326200E+01  0.14824382504E+02 -0.46370469101E+02  0.94149717630E+02  0.80556367892E+02 0.  0.
          5    1    3    3  501    0  0.39243446684E+02  0.45822593860E+02 -0.18775230542E+02  0.63358957517E+02  0.47000000000E+01 0. -1.
        -13    1    4    4    0    0 -0.44700631491E+02 -0.61238320527E+02 -0.74522803230E+02  0.10631051951E+03  0.00000000000E+00 0.  1.
         14    1    4    4    0    0 -0.19480196389E+02  0.26640485566E+02 -0.28183221420E+02  0.43399164648E+02  0.00000000000E+00 0. -1.
         -5    1    5    5    0  502  0.27141513816E+02 -0.26049141403E+02  0.73140290630E+02  0.82382107605E+02  0.47000000000E+01 0.  1.
         13    1    6    6    0    0 -0.14105857812E+02 -0.27001746800E+02 -0.39875396345E+02  0.50180840851E+02  0.00000000000E+00 0. -1.
        -14    1    6    6    0    0  0.11901725192E+02  0.41826129304E+02 -0.64950727560E+01  0.43968876779E+02  0.00000000000E+00 0.  1.
</event>
<event>
12    1  0.8563264E-002  0.2436366E+03  0.7818608E-02  0.1117632E+00
         21   -1    0    0  503  502  0.00000000000E+00  0.00000000000E+00  0.37073614533E+02  0.37073614533E+02  0.00000000000E+00 0. -1.
         21   -1    0    0  501  503 -0.00000000000E+00 -0.00000000000E+00 -0.16070068148E+04  0.16070068148E+04  0.00000000000E+00 0. -1.
          6    2    1    2  501    0  0.16410678775E+03 -0.67781318069E+02 -0.86785294634E+03  0.90140308620E+03  0.16683357718E+03 0.  0.
         24    2    3    3    0    0  0.66780063616E+02 -0.49331374885E+02 -0.67235928259E+03  0.68219370182E+03  0.80175310868E+02 0.  0.
         -6    2    1    2    0  502 -0.16410678775E+03  0.67781318069E+02 -0.70208025389E+03  0.74267734309E+03  0.16470460886E+03 0.  0.
        -24    2    5    5    0    0 -0.28886287617E+02  0.59461029822E+01 -0.18058201637E+03  0.20037606224E+03  0.81675748722E+02 0.  0.
          5    1    3    3  501    0  0.97326724135E+02 -0.18449943185E+02 -0.19549366375E+03  0.21920938438E+03  0.47000000000E+01 0. -1.
        -13    1    4    4    0    0  0.28442327830E+02 -0.53016253758E+02 -0.21631195639E+03  0.22452294237E+03  0.00000000000E+00 0.  1.
         14    1    4    4    0    0  0.38337735787E+02  0.36848788735E+01 -0.45604732620E+03  0.45767075944E+03  0.00000000000E+00 0. -1.
         -5    1    5    5    0  502 -0.13522050013E+03  0.61835215087E+02 -0.52149823752E+03  0.54230128085E+03  0.47000000000E+01 0.  1.
         13    1    6    6    0    0 -0.52239928682E+02  0.23581409606E+02 -0.11207915583E+03  0.12588419360E+03  0.00000000000E+00 0. -1.
        -14    1    6    6    0    0  0.23353641065E+02 -0.17635306624E+02 -0.68502860541E+02  0.74491868637E+02  0.00000000000E+00 0.  1.
</event>
<event>
12    1  0.8563264E-002  0.3081276E+03  0.7818608E-02  0.1081315E+00
         21   -1    0    0  503  502  0.00000000000E+00  0.00000000000E+00  0.17220985006E+04  0.17220985006E+04  0.00000000000E+00 0.  1.
         21   -1    0    0  501  503 -0.00000000000E+00 -0.00000000000E+00 -0.11457463718E+03  0.11457463718E+03  0.00000000000E+00 0. -1.
          6    2    1    2  501    0  0.18419445097E+03 -0.17618977837E+03  0.14209053878E+03  0.33931152900E+03  0.17312469127E+03 0.  0.
         24    2    3    3    0    0  0.78664708420E+02 -0.68813914471E+02 -0.12701741610E+01  0.13136805897E+03  0.79576770474E+02 0.  0.
         -6    2    1    2    0  502 -0.18419445097E+03  0.17618977837E+03  0.14654333246E+04  0.14973616087E+04  0.17212357404E+03 0.  0.
        -24    2    5    5    0    0 -0.34032087026E+01  0.52795342369E+02  0.27996383147E+03  0.29184442959E+03  0.63202010599E+02 0.  0.
          5    1    3    3  501    0  0.10552974255E+03 -0.10737586390E+03  0.14336071295E+03  0.20794347003E+03  0.47000000000E+01 0. -1.
        -13    1    4    4    0    0 -0.10301047385E+02 -0.18400588741E+02  0.17499609428E+02  0.27403094230E+02  0.00000000000E+00 0.  1.
         14    1    4    4    0    0  0.88965755805E+02 -0.50413325730E+02 -0.18769783589E+02  0.10396496474E+03  0.00000000000E+00 0. -1.
         -5    1    5    5    0  502 -0.18079124227E+03  0.12339443600E+03  0.11854694931E+04  0.12055171792E+04  0.47000000000E+01 0.  1.
         11    1    6    6    0    0 -0.65936394047E+01  0.67068519535E+02  0.21805888353E+03  0.22823527133E+03  0.00000000000E+00 0. -1.
        -12    1    6    6    0    0  0.31904307021E+01 -0.14273177166E+02  0.61904947942E+02  0.63609158257E+02  0.00000000000E+00 0.  1.
</event>
<event>
12    1  0.8563264E-002  0.1839342E+03  0.7818608E-02  0.1164068E+00
         21   -1    0    0  501  502  0.00000000000E+00  0.00000000000E+00  0.51121608274E+03  0.51121608274E+03  0.00000000000E+00 0. -1.
         21   -1    0    0  502  503 -0.00000000000E+00 -0.00000000000E+00 -0.85895546109E+02  0.85895546109E+02  0.00000000000E+00 0. -1.
         -6    2    1    2    0  503  0.38543666435E+02 -0.52856575224E+02  0.69476293502E+02  0.19654089153E+03  0.17181948352E+03 0.  0.
        -24    2    3    3    0    0 -0.27162851995E+02  0.18038179498E+02  0.21387482970E+02  0.88475927226E+02  0.79418944985E+02 0.  0.
          6    2    1    2  501    0 -0.38543666435E+02  0.52856575224E+02  0.35584424313E+03  0.40057073732E+03  0.17190799418E+03 0.  0.
         24    2    5    5    0    0  0.45522312331E+02  0.27183812172E+02  0.18522694681E+03  0.20858497912E+03  0.79921405928E+02 0.  0.
          5    1    5    5  501    0 -0.84065978766E+02  0.25672763052E+02  0.17061729633E+03  0.19198575821E+03  0.47000000000E+01 0. -1.
        -11    1    6    6    0    0  0.35216624982E+02 -0.14350793640E+02  0.14481666364E+03  0.14972649071E+03  0.00000000000E+00 0.  1.
         12    1    6    6    0    0  0.10305687349E+02  0.41534605813E+02  0.40410283171E+02  0.58858488408E+02  0.00000000000E+00 0. -1.
         -5    1    3    3    0  503  0.65706518431E+02 -0.70894754722E+02  0.48088810532E+02  0.10806496430E+03  0.47000000000E+01 0.  1.
         13    1    4    4    0    0  0.12563757287E+02 -0.16681404520E+02 -0.13824438053E+02  0.25044607032E+02  0.00000000000E+00 0. -1.
        -14    1    4    4    0    0 -0.39726609282E+02  0.34719584017E+02  0.35211921023E+02  0.63431320194E+02  0.00000000000E+00 0.  1.
</event>
<event>
12    1  0.8563264E-002  0.2380819E+03  0.7818608E-02  0.1121390E+00
         21   -1    0    0  501  502  0.00000000000E+00  0.00000000000E+00  0.68396341222E+03  0.68396341222E+03  0.00000000000E+00 0.  1.
         21   -1    0    0  502  503 -0.00000000000E+00 -0.00000000000E+00 -0.88963471292E+02  0.88963471292E+02  0.00000000000E+00 0. -1.
         -6    2    1    2    0  503 -0.22006615034E+02  0.16287091479E+03  0.19226607004E+03  0.30602163072E+03  0.17225495867E+03 0.  0.
        -24    2    3    3    0    0  0.31743894500E+02  0.15992732886E+03  0.16915090908E+03  0.24724933588E+03  0.77044004947E+02 0.  0.
          6    2    1    2  501    0  0.22006615034E+02 -0.16287091479E+03  0.40273387089E+03  0.46690525280E+03  0.16969006553E+03 0.  0.
         24    2    5    5    0    0 -0.47754028822E+02 -0.12783503008E+03  0.26320170937E+03  0.30695096324E+03  0.79507935686E+02 0.  0.
          5    1    5    5  501    0  0.69760643856E+02 -0.35035884714E+02  0.13953216152E+03  0.15995428956E+03  0.47000000000E+01 0. -1.
        -13    1    6    6    0    0  0.18537182047E+02 -0.97105413431E+01  0.22316837925E+02  0.30593512162E+02  0.00000000000E+00 0.  1.
         14    1    6    6    0    0 -0.66291210869E+02 -0.11812448873E+03  0.24088487145E+03  0.27635745108E+03  0.00000000000E+00 0. -1.
         -5    1    3    3    0  503 -0.53750509534E+02  0.29435859263E+01  0.23115160967E+02  0.58772294832E+02  0.47000000000E+01 0.  1.
         11    1    4    4    0    0  0.18482530513E+02  0.12074054004E+03  0.72319273394E+02  0.14195055212E+03  0.00000000000E+00 0. -1.
        -12    1    4    4    0    0  0.13261363987E+02  0.39186788825E+02  0.96831635682E+02  0.10529878376E+03  0.00000000000E+00 0.  1.
</event>
<event>
12    1  0.8563264E-002  0.1898644E+03  0.7818608E-02  0.1158662E+00
         21   -1    0    0  501  502  0.00000000000E+00  0.00000000000E+00  0.77841576154E+02  0.77841576154E+02  0.00000000000E+00 0.  1.
         21   -1    0    0  502  503 -0.00000000000E+00 -0.00000000000E+00 -0.46713355417E+03  0.46713355417E+03  0.00000000000E+00 0.  1.
         -6    2    1    2    0  503 -0.63564974423E+02 -0.48235389246E+02 -0.22267237325E+03  0.29262859147E+03  0.17228275592E+03 0.  0.
        -24    2    3    3    0    0  0.85971982031E+01  0.24560049808E+02 -0.79323487896E+02  0.11634033878E+03  0.81029320813E+02 0.  0.
          6    2    1    2  501    0  0.63564974423E+02  0.48235389246E+02 -0.16661960477E+03  0.25234653885E+03  0.17189975052E+03 0.  0.
         24    2    5    5    0    0  0.13603915452E+02 -0.24619804156E+02 -0.29157138319E+02  0.88877868153E+02  0.79107113840E+02 0.  0.
          5    1    5    5  501    0  0.49961058971E+02  0.72855193402E+02 -0.13746246645E+03  0.16346867070E+03  0.47000000000E+01 0. -1.
        -11    1    6    6    0    0  0.61181343442E+01  0.15293952744E+02  0.19483371183E+02  0.25513492725E+02  0.00000000000E+00 0.  1.
         12    1    6    6    0    0  0.74857811079E+01 -0.39913756900E+02 -0.48640509502E+02  0.63364375428E+02  0.00000000000E+00 0. -1.
         -5    1    3    3    0  503 -0.72162172626E+02 -0.72795439054E+02 -0.14334888535E+03  0.17628825269E+03  0.47000000000E+01 0.  1.
         11    1    4    4    0    0 -0.16074133666E+02  0.48262649714E+02 -0.46080698238E+02  0.68637394186E+02  0.00000000000E+00 0. -1.
        -12    1    4    4    0    0  0.24671331870E+02 -0.23702599906E+02 -0.33242789658E+02  0.47702944592E+02  0.00000000000E+00 0.  1.
</event>
<event>
12    1  0.8563264E-002  0.1731598E+03  0.7818608E-02  0.1175143E+00
         21   -1    0    0  501  502  0.00000000000E+00  0.00000000000E+00  0.11479924101E+03  0.11479924101E+03  0.00000000000E+00 0.  1.
         21   -1    0    0  502  503 -0.00000000000E+00 -0.00000000000E+00 -0.26066777927E+03  0.26066777927E+03  0.00000000000E+00 0.  1.
         -6    2    1    2    0  503  0.14964096931E+02 -0.17234452654E+02 -0.54238692687E+02  0.18145567802E+03  0.17164899285E+03 0.  0.
        -24    2    3    3    0    0 -0.24478893840E+02  0.44021165942E+02 -0.54189765568E+02  0.10844819399E+03  0.79293132062E+02 0.  0.
          6    2    1    2  501    0 -0.14964096931E+02  0.17234452654E+02 -0.91629845567E+02  0.19401134226E+03  0.16947985654E+03 0.  0.
         24    2    5    5    0    0 -0.34354039806E+02  0.33684622274E+02 -0.12242723081E+03  0.15379757717E+03  0.79689485324E+02 0.  0.
          5    1    5    5  501    0  0.19389942876E+02 -0.16450169620E+02  0.30797385240E+02  0.40213765092E+02  0.47000000000E+01 0. -1.
        -13    1    6    6    0    0  0.63785541410E+01 -0.20564475013E+02 -0.50641866502E+02  0.55028921743E+02  0.00000000000E+00 0.  1.
         14    1    6    6    0    0 -0.40732593947E+02  0.54249097287E+02 -0.71785364305E+02  0.98768655425E+02  0.00000000000E+00 0. -1.
         -5    1    3    3    0  503  0.39442990771E+02 -0.61255618597E+02 -0.48927118374E-01  0.73007484030E+02  0.47000000000E+01 0.  1.
         13    1    4    4    0    0 -0.78953187573E+01  0.59644188257E+02 -0.13266024009E+02  0.61609679792E+02  0.00000000000E+00 0. -1.
        -14    1    4    4    0    0 -0.16583575083E+02 -0.15623022315E+02 -0.40923741559E+02  0.46838514195E+02  0.00000000000E+00 0.  1.
</event>
<event>
12    1  0.8563264E-002  0.1981203E+03  0.7818608E-02  0.1151479E+00
         21   -1    0    0  503  502  0.00000000000E+00  0.00000000000E+00  0.61840281272E+03  0.61840281272E+03  0.00000000000E+00 0.  1.
         21   -1    0    0  501  503 -0.00000000000E+00 -0.00000000000E+00 -0.10456534488E+03  0.10456534488E+03  0.00000000000E+00 0.  1.
          6    2    1    2  501    0  0.48550654805E+02 -0.83322097664E+02  0.29451881614E+02  0.19963170630E+03  0.17229528951E+03 0.  0.
         24    2    3    3    0    0  0.78350779762E+02 -0.46807834198E+02  0.58449877206E+02  0.14409511806E+03  0.94958922030E+02 0.  0.
         -6    2    1    2    0  502 -0.48550654805E+02  0.83322097664E+02  0.48438558623E+03  0.52333645130E+03  0.17306619274E+03 0.  0.
        -24    2    5    5    0    0 -0.10535180695E+02  0.68239237013E+02  0.46715097096E+03  0.47870696641E+03  0.78503162534E+02 0.  0.
          5    1    3    3  501    0 -0.29800124958E+02 -0.36514263466E+02 -0.28997995592E+02  0.55536588231E+02  0.47000000000E+01 0. -1.
        -13    1    4    4    0    0  0.80795762539E+01 -0.74927988161E+01 -0.25495146436E+02  0.27774522108E+02  0.00000000000E+00 0.  1.
         14    1    4    4    0    0  0.70271203509E+02 -0.39315035382E+02  0.83945023642E+02  0.11632059596E+03  0.00000000000E+00 0. -1.
         -5    1    5    5    0  502 -0.38015474110E+02  0.15082860651E+02  0.17234615271E+02  0.44629484881E+02  0.47000000000E+01 0.  1.
         11    1    6    6    0    0  0.22552814966E+02  0.35294761116E+02  0.97462407596E+02  0.10608143343E+03  0.00000000000E+00 0. -1.
        -12    1    6    6    0    0 -0.33087995661E+02  0.32944475897E+02  0.36968856336E+03  0.37262553298E+03  0.00000000000E+00 0.  1.
</event>
<event>
12    1  0.8563264E-002  0.1881885E+03  0.7818608E-02  0.1160341E+00
         21   -1    0    0  501  502  0.00000000000E+00  0.00000000000E+00  0.81104623250E+03  0.81104623250E+03  0.00000000000E+00 0.  1.
         21   -1    0    0  502  503 -0.00000000000E+00 -0.00000000000E+00 -0.63059359931E+02  0.63059359931E+02  0.00000000000E+00 0.  1.
         -6    2    1    2    0  503  0.60240282767E+02 -0.43045196953E+02  0.13083767858E+03  0.22920164770E+03  0.17301189706E+03 0.  0.
        -24    2    3    3    0    0  0.63713352010E+02  0.36480321543E+02  0.68422537076E+02  0.12793906729E+03  0.79350842941E+02 0.  0.
          6    2    1    2  501    0 -0.60240282767E+02  0.43045196953E+02  0.61714919399E+03  0.64490394473E+03  0.17189005102E+03 0.  0.
         24    2    5    5    0    0 -0.42432297052E+02  0.79686997991E+02  0.26612704425E+03  0.29149428789E+03  0.77426085467E+02 0.  0.
          5    1    5    5  501    0 -0.17807985714E+02 -0.36641801038E+02  0.35102214975E+03  0.35340965684E+03  0.47000000000E+01 0. -1.
        -11    1    6    6    0    0 -0.27097348698E+02  0.77216522345E+02  0.26327776344E+03  0.27570244531E+03  0.00000000000E+00 0.  1.
         12    1    6    6    0    0 -0.15334948355E+02  0.24704756458E+01  0.28492808113E+01  0.15791842581E+02  0.00000000000E+00 0. -1.
         -5    1    3    3    0  503 -0.34730692434E+01 -0.79525518496E+02  0.62415141503E+02  0.10126258041E+03  0.47000000000E+01 0.  1.
         11    1    4    4    0    0  0.27822188879E+02 -0.20670449031E+02  0.44351504362E+02  0.56288521000E+02  0.00000000000E+00 0. -1.
        -12    1    4    4    0    0  0.35891163131E+02  0.57150770574E+02  0.24071032714E+02  0.71650546292E+02  0.00000000000E+00 0.  1.
</event>
<event>
12    1  0.8563264E-002  0.3368912E+03  0.7818608E-02  0.1068784E+00
         21   -1    0    0  501  502  0.00000000000E+00  0.00000000000E+00  0.72234963815E+03  0.72234963815E+03  0.00000000000E+00 0.  1.
         21   -1    0    0  502  503 -0.00000000000E+00 -0.00000000000E+00 -0.20688408123E+03  0.20688408123E+03  0.00000000000E+00 0. -1.
         -6    2    1    2    0  503  0.10642358920E+03 -0.26788476154E+03  0.21805706348E+02  0.33157517880E+03  0.16241423757E+03 0.  0.
        -24    2    3    3    0    0  0.77872356152E+02 -0.26102634943E+03  0.53073195422E+02  0.28842478369E+03  0.78569923155E+02 0.  0.
          6    2    1    2  501    0 -0.10642358920E+03  0.26788476154E+03  0.49365985057E+03  0.59765854058E+03  0.17437734157E+03 0.  0.
         24    2    5    5    0    0 -0.13804295772E+03  0.24904995717E+03  0.40431707440E+03  0.50091787707E+03  0.79778967009E+02 0.  0.
          5    1    5    5  501    0  0.31619368518E+02  0.18834804373E+02  0.89342776176E+02  0.96740663508E+02  0.47000000000E+01 0. -1.
        -13    1    6    6    0    0 -0.85504664180E+02  0.80021615251E+02  0.13595969666E+03  0.17944231837E+03  0.00000000000E+00 0.  1.
         14    1    6    6    0    0 -0.52538293540E+02  0.16902834191E+03  0.26835737773E+03  0.32147555870E+03  0.00000000000E+00 0. -1.
         -5    1    3    3    0  503  0.28551233051E+02 -0.68584121056E+01 -0.31267489074E+02  0.43150395112E+02  0.47000000000E+01 0.  1.
         11    1    4    4    0    0  0.87013061656E+02 -0.21594268265E+03  0.24096357042E+02  0.23405800459E+03  0.00000000000E+00 0. -1.
        -12    1    4    4    0    0 -0.91407055046E+01 -0.45083666785E+02  0.28976838380E+02  0.54366779107E+02  0.00000000000E+00 0.  1.
</event>
<event>
12    1  0.8563264E-002  0.2293490E+03  0.7818608E-02  0.1127100E+00
         21   -1    0    0  503  502  0.00000000000E+00  0.00000000000E+00  0.49319291628E+02  0.49319291628E+02  0.00000000000E+00 0. -1.
         21   -1    0    0  501  503 -0.00000000000E+00 -0.00000000000E+00 -0.10671768766E+04  0.10671768766E+04  0.00000000000E+00 0. -1.
          6    2    1    2  501    0 -0.12376605513E+03  0.87392939908E+02 -0.52280351723E+03  0.57089797113E+03  0.17217843495E+03 0.  0.
         24    2    3    3    0    0 -0.95844369294E+02  0.82686382247E+02 -0.52138241423E+03  0.54215981255E+03  0.77938819256E+02 0.  0.
         -6    2    1    2    0  502  0.12376605513E+03 -0.87392939908E+02 -0.49505406771E+03  0.54559819707E+03  0.17217229841E+03 0.  0.
        -24    2    5    5    0    0  0.10254477705E+03 -0.31838461039E+02 -0.17741313484E+03  0.22240399075E+03  0.80367877815E+02 0.  0.
          5    1    3    3  501    0 -0.27921685832E+02  0.47065576607E+01 -0.14211030055E+01  0.28738158579E+02  0.47000000000E+01 0. -1.
        -13    1    4    4    0    0 -0.36842466369E+02  0.24379470974E+02 -0.66908811091E+02  0.80178020272E+02  0.00000000000E+00 0.  1.
         14    1    4    4    0    0 -0.59001902925E+02  0.58306911273E+02 -0.45447360314E+03  0.46198179228E+03  0.00000000000E+00 0. -1.
         -5    1    5    5    0  502  0.21221278076E+02 -0.55554478869E+02 -0.31764093287E+03  0.32319420632E+03  0.47000000000E+01 0.  1.
         13    1    6    6    0    0  0.58082991006E+02 -0.84231785990E+01 -0.15797461182E+03  0.16852466218E+03  0.00000000000E+00 0. -1.
        -14    1    6    6    0    0  0.44461786045E+02 -0.23415282440E+02 -0.19438523022E+02  0.53879328571E+02  0.00000000000E+00 0.  1.
</event>
<event>
12    1  0.8563264E-002  0.1829918E+03  0.7818608E-02  0.1165392E+00
         21   -1    0    0  503  502  0.00000000000E+00  0.00000000000E+00  0.21946235227E+03  0.21946235227E+03  0.00000000000E+00 0.  1.
         21   -1    0    0  501  503 -0.00000000000E+00 -0.00000000000E+00 -0.27196955080E+03  0.27196955080E+03  0.00000000000E+00 0.  1.
          6    2    1    2  501    0 -0.44614088802E+02  0.36075044758E+02 -0.19005249649E+03  0.26251114381E+03  0.17175658191E+03 0.  0.
         24    2    3    3    0    0  0.34616707060E+02  0.31937532510E+02 -0.14273482559E+03  0.17001417089E+03  0.79456060037E+02 0.  0.
         -6    2    1    2    0  502  0.44614088802E+02 -0.36075044758E+02  0.13754529796E+03  0.22892075926E+03  0.17376472385E+03 0.  0.
        -24    2    5    5    0    0 -0.39812848451E+02 -0.74955442317E+01  0.42686594432E+02  0.98671155731E+02  0.79199782475E+02 0.  0.
          5    1    3    3  501    0 -0.79230795862E+02  0.41375122489E+01 -0.47317670896E+02  0.92496972921E+02  0.47000000000E+01 0. -1.
        -11    1    4    4    0    0 -0.16637383165E+02  0.17093720655E+02 -0.96516825752E+02  0.99420799925E+02  0.00000000000E+00 0.  1.
         12    1    4    4    0    0  0.51254090225E+02  0.14843811854E+02 -0.46217999840E+02  0.70593370966E+02  0.00000000000E+00 0. -1.
         -5    1    5    5    0  502  0.84426937253E+02 -0.28579500527E+02  0.94858703530E+02  0.13024960353E+03  0.47000000000E+01 0.  1.
         13    1    6    6    0    0 -0.58304823985E+01  0.50636049085E+01 -0.22667629696E+02  0.23946942513E+02  0.00000000000E+00 0. -1.
        -14    1    6    6    0    0 -0.33982366053E+02 -0.12559149140E+02  0.65354224129E+02  0.74724213218E+02  0.00000000000E+00 0.  1.
</event>
<event>
12    1  0.8563264E-002  0.1830593E+03  0.7818608E-02  0.1166108E+00
         21   -1    0    0  501  502  0.00000000000E+00  0.00000000000E+00  0.30548566656E+03  0.30548566656E+03  0.00000000000E+00 0.  1.
         21   -1    0    0  502  503 -0.00000000000E+00 -0.00000000000E+00 -0.11482949762E+03  0.11482949762E+03  0.00000000000E+00 0.  1.
         -6    2    1    2    0  503 -0.66154701331E+01  0.56169371189E+02  0.40476082226E+02  0.18748076271E+03  0.17410330395E+03 0.  0.
        -24    2    3    3    0    0 -0.23578214849E+02  0.10483088033E+03  0.40171912970E+02  0.13573272217E+03  0.72554418126E+02 0.  0.
          6    2    1    2  501    0  0.66154701331E+01 -0.56169371189E+02  0.15018008672E+03  0.23283440148E+03  0.16869806567E+03 0.  0.
         24    2    5    5    0    0 -0.46156970792E+02 -0.74247523062E+02  0.84591981463E+02  0.14660424638E+03  0.81815897577E+02 0.  0.
          5    1    5    5  501    0  0.52772440925E+02  0.18078151873E+02  0.65588105255E+02  0.86230155093E+02  0.47000000000E+01 0. -1.
        -13    1    6    6    0    0 -0.81152720368E+01 -0.54545485811E+02  0.39477077477E+01  0.55286997197E+02  0.00000000000E+00 0.  1.
         14    1    6    6    0    0 -0.38041698755E+02 -0.19702037252E+02  0.80644273716E+02  0.91317249187E+02  0.00000000000E+00 0. -1.
         -5    1    3    3    0  503  0.16962744716E+02 -0.48661509142E+02  0.30416925567E+00  0.51748040535E+02  0.47000000000E+01 0.  1.
         13    1    4    4    0    0  0.13727970328E+01 -0.61156691274E+01  0.19070245265E+02  0.20073869458E+02  0.00000000000E+00 0. -1.
        -14    1    4    4    0    0 -0.24951011882E+02  0.11094654946E+03  0.21101667705E+02  0.11565885271E+03  0.00000000000E+00 0.  1.
</event>
<event>
12    1  0.8563264E-002  0.2102615E+03  0.7818608E-02  0.1142543E+00
         21   -1    0    0  501  502  0.00000000000E+00  0.00000000000E+00  0.14709586485E+03  0.14709586485E+03  0.00000000000E+00 0. -1.
         21   -1    0    0  502  503 -0.00000000000E+00 -0.00000000000E+00 -0.40206486648E+03  0.40206486648E+03  0.00000000000E+00 0. -1.
         -6    2    1    2    0  503  0.12394686563E+03 -0.12508707506E+02 -0.27233705813E+03  0.34406012567E+03  0.16938300854E+03 0.  0.
        -24    2    3    3    0    0  0.21788598890E+02 -0.19446323140E+02 -0.65954762491E+02  0.11362535414E+03  0.87794008246E+02 0.  0.
          6    2    1    2  501    0 -0.12394686563E+03  0.12508707506E+02  0.17368056508E+02  0.20510060566E+03  0.16200406103E+03 0.  0.
         24    2    5    5    0    0 -0.63726190422E+01  0.81708289866E+01 -0.11947672554E+02  0.83758021945E+02  0.82251362548E+02 0.  0.
          5    1    5    5  501    0 -0.11757424659E+03  0.43378785194E+01  0.29315729062E+02  0.12134258371E+03  0.47000000000E+01 0. -1.
        -11    1    6    6    0    0 -0.12498794679E+02  0.12068420433E+02  0.33498140306E+02  0.37735819113E+02  0.00000000000E+00 0.  1.
         12    1    6    6    0    0  0.61261756364E+01 -0.38975914464E+01 -0.45445812860E+02  0.46022202832E+02  0.00000000000E+00 0. -1.
         -5    1    3    3    0  503  0.10215826674E+03  0.69376156336E+01 -0.20638229564E+03  0.23043477153E+03  0.47000000000E+01 0.  1.
         11    1    4    4    0    0 -0.31168710770E+01 -0.96706670661E+01 -0.81867504355E+02  0.82495605678E+02  0.00000000000E+00 0. -1.
        -12    1    4    4    0    0  0.24905469967E+02 -0.97756560734E+01  0.15912741864E+02  0.31129748466E+02  0.00000000000E+00 0.  1.
</event>
<event>
12    1  0.8563264E-002  0.2595619E+03  0.7818608E-02  0.1107410E+00
         21   -1    0    0  503  502  0.00000000000E+00  0.00000000000E+00  0.40125791050E+03  0.40125791050E+03  0.00000000000E+00 0.  1.
         21   -1    0    0  501  503 -0.00000000000E+00 -0.00000000000E+00 -0.23272516469E+03  0.23272516469E+03  0.00000000000E+00 0. -1.
          6    2    1    2  501    0 -0.18604969490E+03 -0.57697762358E+02 -0.83050205413E+02  0.27250503231E+03  0.17151715734E+03 0.  0.
         24    2    3    3    0    0 -0.19541467337E+03 -0.16285865658E+02 -0.49249215488E+02  0.21803260874E+03  0.81612555762E+02 0.  0.
         -6    2    1    2    0  502  0.18604969490E+03  0.57697762358E+02  0.25158295123E+03  0.36147804288E+03  0.17154845782E+03 0.  0.
        -24    2    5    5    0    0  0.17297112114E+03  0.10422183440E+03  0.19637566127E+03  0.28795611937E+03  0.59784001471E+02 0.  0.
          5    1    3    3  501    0  0.93649784722E+01 -0.41411896700E+02 -0.33800989924E+02  0.54472423573E+02  0.47000000000E+01 0. -1.
        -13    1    4    4    0    0 -0.59029972350E+02  0.29856771185E+02 -0.91550969235E+00  0.66157407592E+02  0.00000000000E+00 0.  1.
         14    1    4    4    0    0 -0.13638470102E+03 -0.46142636843E+02 -0.48333705796E+02  0.15187520115E+03  0.00000000000E+00 0. -1.
         -5    1    5    5    0  502  0.13078573760E+02 -0.46524072045E+02  0.55207289961E+02  0.73521923506E+02  0.47000000000E+01 0.  1.
         11    1    6    6    0    0  0.14219431002E+03  0.66892902181E+02  0.12074419921E+03  0.19817427635E+03  0.00000000000E+00 0. -1.
        -12    1    6    6    0    0  0.30776811118E+02  0.37328932222E+02  0.75631462058E+02  0.89781843022E+02  0.00000000000E+00 0.  1.
</event>
<event>
12    1  0.8563264E-002  0.1814018E+03  0.7818608E-02  0.1166862E+00
         21   -1    0    0  501  502  0.00000000000E+00  0.00000000000E+00  0.12598722404E+03  0.12598722404E+03  0.00000000000E+00 0.  1.
         21   -1    0    0  502  503 -0.00000000000E+00 -0.00000000000E+00 -0.35058960415E+03  0.35058960415E+03  0.00000000000E+00 0.  1.
         -6    2    1    2    0  503  0.38356694323E+02  0.42446331070E+02 -0.23465108101E+03  0.29659353480E+03  0.17214432330E+03 0.  0.
        -24    2    3    3    0    0  0.14667330415E+02  0.85015519808E+02 -0.10174835046E+03  0.15496533288E+03  0.78859104624E+02 0.  0.
          6    2    1    2  501    0 -0.38356694323E+02 -0.42446331070E+02  0.10048700906E+02  0.17998329339E+03  0.17035281767E+03 0.  0.
         24    2    5    5    0    0 -0.82937249258E+02  0.47422201351E+01  0.85509319102E+01  0.11487938755E+03  0.78886496194E+02 0.  0.
          5    1    5    5  501    0  0.44580554935E+02 -0.47188551205E+02  0.14977689955E+01  0.65103905836E+02  0.47000000000E+01 0. -1.
        -13    1    6    6    0    0 -0.30827169398E+02  0.10468410394E+02  0.41662715979E+02  0.52874227105E+02  0.00000000000E+00 0.  1.
         14    1    6    6    0    0 -0.52110079860E+02 -0.57261902588E+01 -0.33111784069E+02  0.62005160447E+02  0.00000000000E+00 0. -1.
         -5    1    3    3    0  503  0.23689363908E+02 -0.42569188738E+02 -0.13290273055E+03  0.14162820192E+03  0.47000000000E+01 0.  1.
         13    1    4    4    0    0  0.70178801541E+01 -0.14465182802E+02 -0.75996533855E+01  0.17783331716E+02  0.00000000000E+00 0. -1.
        -14    1    4    4    0    0  0.76494502614E+01  0.99480702610E+02 -0.94148697075E+02  0.13718200116E+03  0.00000000000E+00 0.  1.
</event>
<event>
12    1  0.8563264E-002  0.1861103E+03  0.7818608E-02  0.1162033E+00
         21   -1    0    0  503  502  0.00000000000E+00  0.00000000000E+00  0.27043127288E+03  0.27043127288E+03  0.00000000000E+00 0.  1.
         21   -1    0    0  501  503 -0.00000000000E+00 -0.00000000000E+00 -0.15081741432E+03  0.15081741432E+03  0.00000000000E+00 0.  1.
          6    2    1    2  501    0  0.68778773068E+02 -0.10733777938E+01 -0.22050370727E+02  0.18741196537E+03  0.17293164589E+03 0.  0.
         24    2    3    3    0    0  0.30930448580E+02  0.41057937667E+02  0.40312483113E+02  0.10303922719E+03  0.79683995579E+02 0.  0.
         -6    2    1    2    0  502 -0.68778773068E+02  0.10733777938E+01  0.14166422929E+03  0.23383672182E+03  0.17285597140E+03 0.  0.
        -24    2    5    5    0    0 -0.80611984056E+02  0.23421816561E+02  0.28015101570E+02  0.11731336868E+03  0.77011084198E+02 0.  0.
          5    1    3    3  501    0  0.37848324488E+02 -0.42131315461E+02 -0.62362853839E+02  0.84372738180E+02  0.47000000000E+01 0. -1.
        -13    1    4    4    0    0  0.25907330903E+02 -0.92901446933E+01 -0.12209853431E+02  0.30109418854E+02  0.00000000000E+00 0.  1.
         14    1    4    4    0    0  0.50231176772E+01  0.50348082360E+02  0.52522336544E+02  0.72929808340E+02  0.00000000000E+00 0. -1.
         -5    1    5    5    0  502  0.11833210988E+02 -0.22348438767E+02  0.11364912772E+03  0.11652335315E+03  0.47000000000E+01 0.  1.
         13    1    6    6    0    0 -0.16446544584E+02  0.35709483803E+02 -0.11498846789E+02  0.40961927930E+02  0.00000000000E+00 0. -1.
        -14    1    6    6    0    0 -0.64165439473E+02 -0.12287667242E+02  0.39513948359E+02  0.76351440746E+02  0.00000000000E+00 0.  1.
</event>
<event>
12    1  0.8563264E-002  0.1935190E+03  0.7818608E-02  0.1155634E+00
         21   -1    0    0  503  502  0.00000000000E+00  0.00000000000E+00  0.24178104676E+03  0.24178104676E+03  0.00000000000E+00 0.  1.
         21   -1    0    0  501  503 -0.00000000000E+00 -0.00000000000E+00 -0.15382287410E+03  0.15382287410E+03  0.00000000000E+00 0.  1.
          6    2    1    2  501    0 -0.61428419585E+02 -0.63450267153E+02  0.47699186248E+02  0.19931087914E+03  0.17219241284E+03 0.  0.
         24    2    3    3    0    0 -0.26422406410E+02  0.30512359482E+02  0.35580380706E+02  0.98200288147E+02  0.82147339941E+02 0.  0.
         -6    2    1    2    0  502  0.61428419585E+02  0.63450267153E+02  0.40258986409E+02  0.19629304172E+03  0.17061882987E+03 0.  0.
        -24    2    5    5    0    0  0.48093926743E+02  0.10326129305E+03  0.50736178441E+02  0.15276617605E+03  0.88246384112E+02 0.  0.
          5    1    3    3  501    0 -0.35006013175E+02 -0.93962626635E+02  0.12118805543E+02  0.10111059099E+03  0.47000000000E+01 0. -1.
        -11    1    4    4    0    0  0.94760856519E+00 -0.15639073097E+02 -0.16969664690E+02  0.23096495167E+02  0.00000000000E+00 0.  1.
         12    1    4    4    0    0 -0.27370014976E+02  0.46151432579E+02  0.52550045396E+02  0.75103792980E+02  0.00000000000E+00 0. -1.
         -5    1    5    5    0  502  0.13334492843E+02 -0.39811025897E+02 -0.10477192032E+02  0.43526865672E+02  0.47000000000E+01 0.  1.
         11    1    6    6    0    0  0.59625082817E+01  0.68352508175E+02 -0.11858271582E+02  0.69629271745E+02  0.00000000000E+00 0. -1.
        -12    1    6    6    0    0  0.42131418461E+02  0.34908784875E+02  0.62594450023E+02  0.83136904300E+02  0.00000000000E+00 0.  1.
</event>
<event>
12    1  0.8563264E-002  0.2193370E+03  0.7818608E-02  0.1134438E+00
         21   -1    0    0  503  502  0.00000000000E+00  0.00000000000E+00  0.10136505070E+03  0.10136505070E+03  0.00000000000E+00 0.  1.
         21   -1    0    0  501  503 -0.00000000000E+00 -0.00000000000E+00 -0.51983356886E+03  0.51983356886E+03  0.00000000000E+00 0.  1.
          6    2    1    2  501    0 -0.10523890468E+03 -0.87323798809E+02 -0.30140849240E+03  0.37257886417E+03  0.17107676006E+03 0.  0.
         24    2    3    3    0    0 -0.49224039557E+01 -0.41730850106E+02 -0.58470345051E+02  0.10577715741E+03  0.77487623966E+02 0.  0.
         -6    2    1    2    0  502  0.10523890468E+03  0.87323798809E+02 -0.11706002576E+03  0.24861975539E+03  0.17148778453E+03 0.  0.
        -24    2    5    5    0    0  0.97989317604E+02  0.49527454272E+02 -0.10519923859E+02  0.13524425766E+03  0.78265352108E+02 0.  0.
          5    1    3    3  501    0 -0.10031650073E+03 -0.45592948703E+02 -0.24293814735E+03  0.26680170676E+03  0.47000000000E+01 0. -1.
        -11    1    4    4    0    0 -0.37250524496E+02 -0.34582466129E+02 -0.19011156922E+02  0.54267601995E+02  0.00000000000E+00 0.  1.
         12    1    4    4    0    0  0.32328120541E+02 -0.71483839767E+01 -0.39459188129E+02  0.51509555414E+02  0.00000000000E+00 0. -1.
         -5    1    5    5    0  502  0.72495870797E+01  0.37796344537E+02 -0.10654010190E+03  0.11337549774E+03  0.47000000000E+01 0.  1.
         13    1    6    6    0    0  0.14333808333E+02  0.42346482304E+02  0.15539110483E+02  0.47330186768E+02  0.00000000000E+00 0. -1.
        -14    1    6    6    0    0  0.83655509271E+02  0.71809719674E+01 -0.26059034342E+02  0.87914070891E+02  0.00000000000E+00 0.  1.
</event>
<event>
12    1  0.8563264E-002  0.2248532E+03  0.7818608E-02  0.1130405E+00
         21   -1    0    0  503  502  0.00000000000E+00  0.00000000000E+00  0.10034610238E+03  0.10034610238E+03  0.00000000000E+00 0. -1.
         21   -1    0    0  501  503 -0.00000000000E+00 -0.00000000000E+00 -0.52982075834E+03  0.52982075834E+03  0.00000000000E+00 0. -1.
          6    2    1    2  501    0  0.33472268671E+02  0.14014827420E+03 -0.28619845590E+03  0.36396222162E+03  0.17261810760E+03 0.  0.
         24    2    3    3    0    0  0.73110910750E+02  0.74585886129E+02 -0.24168376189E+03  0.27523062263E+03  0.80203461238E+02 0.  0.
         -6    2    1    2    0  502 -0.33472268671E+02 -0.14014827420E+03 -0.14327620006E+03  0.26620463910E+03  0.17197357019E+03 0.  0.
        -24    2    5    5    0    0  0.25655947801E+02 -0.89120389305E+02 -0.24809853666E+02  0.12423155627E+03  0.78849725984E+02 0.  0.
          5    1    3    3  501    0 -0.39638642079E+02  0.65562388068E+02 -0.44514694017E+02  0.88731598985E+02  0.47000000000E+01 0. -1.
        -11    1    4    4    0    0  0.35387119736E+00  0.98486043959E+01  0.42377809600E+01  0.10727489028E+02  0.00000000000E+00 0.  1.
         12    1    4    4    0    0  0.72757039553E+02  0.64737281733E+02 -0.24592154285E+03  0.26450313361E+03  0.00000000000E+00 0. -1.
         -5    1    5    5    0  502 -0.59128216471E+02 -0.51027884893E+02 -0.11846634640E+03  0.14197308283E+03  0.47000000000E+01 0.  1.
         13    1    6    6    0    0  0.45311810562E+02 -0.88390874153E+02 -0.30234388629E+02  0.10382786267E+03  0.00000000000E+00 0. -1.
        -14    1    6    6    0    0 -0.19655862761E+02 -0.72951515145E+00  0.54245349631E+01  0.20403693607E+02  0.00000000000E+00 0.  1.
</event>
<event>
12    1  0.8563264E-002  0.1821582E+03  0.7818608E-02  0.1166248E+00
         21   -1    0    0  503  502  0.00000000000E+00  0.00000000000E+00  0.20962589161E+04  0.20962589161E+04  0.00000000000E+00 0. -1.
         21   -1    0    0  501  503 -0.00000000000E+00 -0.00000000000E+00 -0.79045934763E+02  0.79045934763E+02  0.00000000000E+00 0. -1.
          6    2    1    2  501    0 -0.18982076846E+01 -0.56462993685E+02  0.33311030593E+02  0.18305773549E+03  0.17090593002E+03 0.  0.
         24    2    3    3    0    0  0.15763819785E+02  0.29809723225E+02  0.40497172356E+02  0.94578022950E+02  0.78535748824E+02 0.  0.
         -6    2    1    2    0  502  0.18982076846E+01  0.56462993685E+02  0.19839019507E+04  0.19922471154E+04  0.17317605408E+03 0.  0.
        -24    2    5    5    0    0  0.22873071728E+02  0.95126892255E+02  0.17208944082E+04  0.17255452230E+04  0.80352033691E+02 0.  0.
          5    1    3    3  501    0 -0.17662027469E+02 -0.86272716910E+02 -0.71861417636E+01  0.88479712538E+02  0.47000000000E+01 0. -1.
        -11    1    4    4    0    0  0.14688606805E+02  0.10601844407E+01  0.58709474388E+02  0.60528353222E+02  0.00000000000E+00 0.  1.
         12    1    4    4    0    0  0.10752129796E+01  0.28749538785E+02 -0.18212302031E+02  0.34049669728E+02  0.00000000000E+00 0. -1.
         -5    1    5    5    0  502 -0.20974864044E+02 -0.38663898570E+02  0.26300754248E+03  0.26670189233E+03  0.47000000000E+01 0.  1.
         11    1    6    6    0    0  0.50699934779E+02  0.75940883596E+02  0.11289246037E+04  0.11326112581E+04  0.00000000000E+00 0. -1.
        -12    1    6    6    0    0 -0.27826863050E+02  0.19186008659E+02  0.59196980455E+03  0.59293396490E+03  0.00000000000E+00 0.  1.
</event>
<event>
12    1  0.8563264E-002  0.1925442E+03  0.7818608E-02  0.1157449E+00
         21   -1    0    0  503  502  0.00000000000E+00  0.00000000000E+00  0.16546132787E+03  0.16546132787E+03  0.00000000000E+00 0.  1.
         21   -1    0    0  501  503 -0.00000000000E+00 -0.00000000000E+00 -0.76507563702E+03  0.76507563702E+03  0.00000000000E+00 0.  1.
          6    2    1    2  501    0  0.69491906412E+02 -0.19601212018E+02 -0.69212253802E+03  0.71692269858E+03  0.17242742104E+03 0.  0.
         24    2    3    3    0    0  0.89328194936E+02 -0.30535232244E+02 -0.33629285972E+03  0.36034187870E+03  0.88551991680E+02 0.  0.
         -6    2    1    2    0  502 -0.69491906412E+02  0.19601212018E+02  0.92508228873E+02  0.21361426631E+03  0.17849355672E+03 0.  0.
        -24    2    5    5    0    0 -0.33000262587E+02  0.11184264837E+01 -0.22165448523E+02  0.91772583302E+02  0.82708111628E+02 0.  0.
          5    1    3    3  501    0 -0.19836288524E+02  0.10934020226E+02 -0.35582967830E+03  0.35658081987E+03  0.47000000000E+01 0. -1.
        -11    1    4    4    0    0  0.48224753290E+02 -0.57236767761E+02 -0.25151410994E+03  0.26241383712E+03  0.00000000000E+00 0.  1.
         12    1    4    4    0    0  0.41103441646E+02  0.26701535517E+02 -0.84778749783E+02  0.97928041586E+02  0.00000000000E+00 0. -1.
         -5    1    5    5    0  502 -0.36491643825E+02  0.18482785534E+02  0.11467367740E+03  0.12184168301E+03  0.47000000000E+01 0.  1.
         13    1    6    6    0    0  0.10210495179E+02 -0.31698159508E+02 -0.16653068110E+02  0.37233750892E+02  0.00000000000E+00 0. -1.
        -14    1    6    6    0    0 -0.43210757766E+02  0.32816585992E+02 -0.55123804128E+01  0.54538832410E+02  0.00000000000E+00 0.  1.
</event>
<event>
12    1  0.8563264E-002  0.1941511E+03  0.7818608E-02  0.1154828E+00
         21   -1    0    0  501  502  0.00000000000E+00  0.00000000000E+00  0.47018571060E+03  0.47018571060E+03  0.00000000000E+00 0. -1.
         21   -1    0    0  502  503 -0.00000000000E+00 -0.00000000000E+00 -0.80641107575E+02  0.80641107575E+02  0.00000000000E+00 0. -1.
         -6    2    1    2    0  503  0.50310873679E+02  0.74264409449E+02  0.21802807695E+03  0.29176588480E+03  0.17188572562E+03 0.  0.
        -24    2    3    3    0    0  0.50922326588E+02  0.50660425241E+02  0.46140484633E+02  0.11820046100E+03  0.81748655206E+02 0.  0.
          6    2    1    2  501    0 -0.50310873679E+02 -0.74264409449E+02  0.17151652608E+03  0.25906093338E+03  0.17218670670E+03 0.  0.
         24    2    5    5    0    0 -0.75277689011E+02  0.94829619392E+01  0.54169325384E+02  0.11267302543E+03  0.63279047226E+02 0.  0.
          5    1    5    5  501    0  0.24966815332E+02 -0.83747371388E+02  0.11734720069E+03  0.14638790795E+03  0.47000000000E+01 0. -1.
        -11    1    6    6    0    0 -0.27920055115E+02  0.33145303972E+02  0.37101445231E+02  0.57049609037E+02  0.00000000000E+00 0.  1.
         12    1    6    6    0    0 -0.47357633896E+02 -0.23662342033E+02  0.17067880153E+02  0.55623416397E+02  0.00000000000E+00 0. -1.
         -5    1    3    3    0  503 -0.61145290926E+00  0.23603984208E+02  0.17188759232E+03  0.17356542380E+03  0.47000000000E+01 0.  1.
         11    1    4    4    0    0 -0.20239527895E+02  0.17790805893E+02 -0.56761368310E+00  0.26953171409E+02  0.00000000000E+00 0. -1.
        -12    1    4    4    0    0  0.71161854483E+02  0.32869619348E+02  0.46708098316E+02  0.91247289592E+02  0.00000000000E+00 0.  1.
</event>
<event>
12    1  0.8563264E-002  0.2161201E+03  0.7818608E-02  0.1137027E+00
         21   -1    0    0  503  502  0.00000000000E+00  0.00000000000E+00  0.98720535134E+02  0.98720535134E+02  0.00000000000E+00 0.  1.
         21   -1    0    0  501  503 -0.00000000000E+00 -0.00000000000E+00 -0.21903732583E+04  0.21903732583E+04  0.00000000000E+00 0.  1.
          6    2    1    2  501    0 -0.92756656468E+02  0.88023405954E+02 -0.31080178367E+02  0.21721852729E+03  0.17281780520E+03 0.  0.
         24    2    3    3    0    0 -0.10186157627E+03  0.35671530127E+01 -0.22488599138E+02  0.13171026185E+03  0.80332749764E+02 0.  0.
         -6    2    1    2    0  502  0.92756656468E+02 -0.88023405954E+02 -0.20605725448E+04  0.20718752661E+04  0.17422970117E+03 0.  0.
        -24    2    5    5    0    0  0.11931154774E+03 -0.98884345094E+02 -0.19391979670E+04  0.19470674123E+04  0.81051795984E+02 0.  0.
          5    1    3    3  501    0  0.91049197974E+01  0.84456252941E+02 -0.85915792288E+01  0.85508265443E+02  0.47000000000E+01 0. -1.
        -13    1    4    4    0    0 -0.75347947369E+02 -0.11785829049E+02  0.20453127555E+02  0.78959162647E+02  0.00000000000E+00 0.  1.
         14    1    4    4    0    0 -0.26513628897E+02  0.15352982062E+02 -0.42941726693E+02  0.52751099200E+02  0.00000000000E+00 0. -1.
         -5    1    5    5    0  502 -0.26554891274E+02  0.10860939141E+02 -0.12137457779E+03  0.12480785386E+03  0.47000000000E+01 0.  1.
         13    1    6    6    0    0  0.37196681506E+02 -0.44286809056E+02 -0.34428353786E+03  0.34910753217E+03  0.00000000000E+00 0. -1.
        -14    1    6    6    0    0  0.82114866236E+02 -0.54597536039E+02 -0.15949144291E+04  0.15979598801E+04  0.00000000000E+00 0.  1.
</event>
<event>
12    1  0.8563264E-002  0.2983434E+03  0.7818608E-02  0.1086113E+00
         21   -1    0    0  501  502  0.00000000000E+00  0.00000000000E+00  0.94464167667E+03  0.94464167667E+03  0.00000000000E+00 0. -1.
         21   -1    0    0  502  503 -0.00000000000E+00 -0.00000000000E+00 -0.17299332504E+03  0.17299332504E+03  0.00000000000E+00 0. -1.
         -6    2    1    2    0  503 -0.24113842879E+03 -0.29203377796E+02  0.83860154811E+01  0.29813628321E+03  0.17266829180E+03 0.  0.
        -24    2    3    3    0    0 -0.25587067305E+03 -0.38116333419E+02  0.27913352117E+02  0.27168091183E+03  0.78158214049E+02 0.  0.
          6    2    1    2  501    0  0.24113842879E+03  0.29203377796E+02  0.76326233616E+03  0.81949871850E+03  0.17322868331E+03 0.  0.
         24    2    5    5    0    0  0.32948756330E+02  0.26827274122E+02  0.22094185225E+03  0.23856655133E+03  0.79330789478E+02 0.  0.
          5    1    5    5  501    0  0.20818967246E+03  0.23761036740E+01  0.54232048391E+03  0.58093216717E+03  0.47000000000E+01 0. -1.
        -13    1    6    6    0    0  0.53369236056E+01  0.50682677246E+02  0.15551089106E+03  0.16364856787E+03  0.00000000000E+00 0.  1.
         14    1    6    6    0    0  0.27611832724E+02 -0.23855403124E+02  0.65430961186E+02  0.74917983464E+02  0.00000000000E+00 0. -1.
         -5    1    3    3    0  503  0.14732244258E+02  0.89129556225E+01 -0.19527336636E+02  0.26455371381E+02  0.47000000000E+01 0.  1.
         11    1    4    4    0    0 -0.17250373231E+03 -0.37833277148E+02 -0.16229420293E+02  0.17734793093E+03  0.00000000000E+00 0. -1.
        -12    1    4    4    0    0 -0.83366940738E+02 -0.28305627077E+00  0.44142772410E+02  0.94332980897E+02  0.00000000000E+00 0.  1.
</event>
<event>
12    1  0.8563264E-002  0.2748491E+03  0.7818608E-02  0.1098629E+00
         21   -1    0    0  503  502  0.00000000000E+00  0.00000000000E+00  0.54877889051E+03  0.54877889051E+03  0.00000000000E+00 0. -1.
         21   -1    0    0  501  503 -0.00000000000E+00 -0.00000000000E+00 -0.14786726992E+03  0.14786726992E+03  0.00000000000E+00 0.  1.
          6    2    1    2  501    0  0.16471683213E+03 -0.13707670569E+03  0.29324979260E+03  0.40146302304E+03  0.17104227542E+03 0.  0.
         24    2    3    3    0    0  0.14715338286E+03 -0.37861489742E+02  0.16285715959E+03  0.23661017178E+03  0.79839266459E+02 0.  0.
         -6    2    1    2    0  502 -0.16471683213E+03  0.13707670569E+03  0.10766182799E+03  0.29518313739E+03  0.17210565755E+03 0.  0.
        -24    2    5    5    0    0 -0.65309439876E+02  0.16428022499E+02  0.89882467352E+02  0.13777878530E+03  0.79805594306E+02 0.  0.
          5    1    3    3  501    0  0.17563449270E+02 -0.99215215946E+02  0.13039263301E+03  0.16485285126E+03  0.47000000000E+01 0. -1.
        -11    1    4    4    0    0  0.20993048111E+02  0.21743786267E+02  0.16650005088E+02  0.34506854096E+02  0.00000000000E+00 0.  1.
         12    1    4    4    0    0  0.12616033475E+03 -0.59605276009E+02  0.14620715450E+03  0.20210331768E+03  0.00000000000E+00 0. -1.
         -5    1    5    5    0  502 -0.99407392251E+02  0.12064868319E+03  0.17779360639E+02  0.15740435208E+03  0.47000000000E+01 0.  1.
         13    1    6    6    0    0  0.16229424552E+02  0.15679964559E+02  0.24040397898E+02  0.32972658991E+02  0.00000000000E+00 0. -1.
        -14    1    6    6    0    0 -0.81538864428E+02  0.74805794018E+00  0.65842069454E+02  0.10480612631E+03  0.00000000000E+00 0.  1.
</event>
<event>
12    1  0.8563264E-002  0.1924195E+03  0.7818608E-02  0.1157384E+00
         21   -1    0    0  503  502  0.00000000000E+00  0.00000000000E+00  0.50096188722E+03  0.50096188722E+03  0.00000000000E+00 0.  1.
         21   -1    0    0  501  503 -0.00000000000E+00 -0.00000000000E+00 -0.72429884716E+02  0.72429884716E+02  0.00000000000E+00 0.  1.
          6    2    1    2  501    0 -0.55993412442E+02 -0.59746057164E+02  0.19659135955E+03  0.27508806128E+03  0.17412761190E+03 0.  0.
         24    2    3    3    0    0 -0.86028393402E+02 -0.91102048162E+02  0.13990708515E+03  0.20353042565E+03  0.78423045328E+02 0.  0.
         -6    2    1    2    0  502  0.55993412442E+02  0.59746057164E+02  0.23194064295E+03  0.29830371065E+03  0.16877140858E+03 0.  0.
        -24    2    5    5    0    0 -0.10431935847E+02  0.82052573111E+02  0.11031380050E+03  0.15785768417E+03  0.76866532591E+02 0.  0.
          5    1    3    3  501    0  0.30034980961E+02  0.31355990998E+02  0.56684274399E+02  0.71557635630E+02  0.47000000000E+01 0. -1.
        -11    1    4    4    0    0 -0.43728791046E+02 -0.41555105165E+00  0.22219928716E+02  0.49052065004E+02  0.00000000000E+00 0.  1.
         12    1    4    4    0    0 -0.42299602356E+02 -0.90686497111E+02  0.11768715644E+03  0.15447836065E+03  0.00000000000E+00 0. -1.
         -5    1    5    5    0  502  0.66425348289E+02 -0.22306515947E+02  0.12162684245E+03  0.14044602648E+03  0.47000000000E+01 0.  1.
         13    1    6    6    0    0  0.18874417621E+02  0.77238816283E+02  0.60694865212E+02  0.10002972081E+03  0.00000000000E+00 0. -1.
        -14    1    6    6    0    0 -0.29306353469E+02  0.48137568284E+01  0.49618935284E+02  0.57827963367E+02  0.00000000000E+00 0.  1.
</event>
<event>
12    1  0.8563264E-002  0.1741299E+03  0.7818608E-02  0.1174163E+00
         21   -1    0    0  503  502  0.00000000000E+00  0.00000000000E+00  0.30115312813E+04  0.30115312813E+04  0.00000000000E+00 0. -1.
         21   -1    0    0  501  503 -0.00000000000E+00 -0.00000000000E+00 -0.12118716979E+02  0.12118716979E+02  0.00000000000E+00 0. -1.
          6    2    1    2  501    0  0.93123072260E+01  0.11099083605E+02  0.86683493392E+03  0.88415158088E+03  0.17352609766E+03 0.  0.
         24    2    3    3    0    0 -0.95263010130E+01 -0.41939361011E+02  0.73863603980E+03  0.74406226571E+03  0.78713375951E+02 0.  0.
         -6    2    1    2    0  502 -0.93123072260E+01 -0.11099083605E+02  0.21325776304E+04  0.21394984174E+04  0.17133656844E+03 0.  0.
        -24    2    5    5    0    0 -0.11780193202E+02  0.57273052544E+02  0.98922814311E+03  0.99409413091E+03  0.78942045006E+02 0.  0.
          5    1    3    3  501    0  0.18838608239E+02  0.53038444616E+02  0.12819889412E+03  0.14008931516E+03  0.47000000000E+01 0. -1.
        -13    1    4    4    0    0  0.33252047163E+02 -0.12065425086E+02  0.38124838276E+03  0.38288588702E+03  0.00000000000E+00 0.  1.
         14    1    4    4    0    0 -0.42778348176E+02 -0.29873935925E+02  0.35738765704E+03  0.36117637870E+03  0.00000000000E+00 0. -1.
         -5    1    5    5    0  502  0.24678859757E+01 -0.68372136149E+02  0.11433494873E+04  0.11454042865E+04  0.47000000000E+01 0.  1.
         13    1    6    6    0    0  0.20700552612E+02  0.12366417870E+02  0.64352675585E+03  0.64397835885E+03  0.00000000000E+00 0. -1.
        -14    1    6    6    0    0 -0.32480745814E+02  0.44906634674E+02  0.34570138726E+03  0.35011577205E+03  0.00000000000E+00 0.  1.
</event>
<event>
12    1  0.8563264E-002  0.1745991E+03  0.7818608E-02  0.1173375E+00
         21   -1    0    0  501  502  0.00000000000E+00  0.00000000000E+00  0.78902850800E+03  0.78902850800E+03  0.00000000000E+00 0.  1.
         21   -1    0    0  502  503 -0.00000000000E+00 -0.00000000000E+00 -0.11247560419E+03  0.11247560419E+03  0.00000000000E+00 0.  1.
         -6    2    1    2    0  503 -0.15923072918E+02 -0.15887639055E+02 -0.27776497681E+02  0.17585630286E+03  0.17218578369E+03 0.  0.
        -24    2    3    3    0    0 -0.10597833109E+02  0.56100244815E+02 -0.31809383690E+02  0.10340654252E+03  0.80134415894E+02 0.  0.
          6    2    1    2  501    0  0.15923072918E+02  0.15887639055E+02  0.70432940149E+03  0.72564780933E+03  0.17314409043E+03 0.  0.
         24    2    5    5    0    0  0.55022281620E+01 -0.58369962487E+02  0.41122803359E+03  0.42307007179E+03  0.80264954942E+02 0.  0.
          5    1    5    5  501    0  0.10420844756E+02  0.74257601542E+02  0.29310136790E+03  0.30257773754E+03  0.47000000000E+01 0. -1.
        -11    1    6    6    0    0 -0.23478816096E+02 -0.34394374180E+02  0.84710728753E+02  0.94393513264E+02  0.00000000000E+00 0.  1.
         12    1    6    6    0    0  0.28981044258E+02 -0.23975588307E+02  0.32651730484E+03  0.32867655852E+03  0.00000000000E+00 0. -1.
         -5    1    3    3    0  503 -0.53252398091E+01 -0.71987883870E+02  0.40328860094E+01  0.72449760336E+02  0.47000000000E+01 0.  1.
         11    1    4    4    0    0  0.19986734859E+02  0.11889340145E+02  0.18547562921E+02  0.29746227823E+02  0.00000000000E+00 0. -1.
        -12    1    4    4    0    0 -0.30584567967E+02  0.44210904670E+02 -0.50356946611E+02  0.73660314699E+02  0.00000000000E+00 0.  1.
</event>
<event>
12    1  0.8563264E-002  0.1726388E+03  0.7818608E-02  0.1175620E+00
         21   -1    0    0  501  502  0.00000000000E+00  0.00000000000E+00  0.48398699574E+03  0.48398699574E+03  0.00000000000E+00 0.  1.
         21   -1    0    0  502  503 -0.00000000000E+00 -0.00000000000E+00 -0.61436900268E+02  0.61436900268E+02  0.00000000000E+00 0.  1.
         -6    2    1    2    0  503 -0.12429053039E+02  0.21254529220E+02  0.18681715856E+03  0.25437141757E+03  0.17087402077E+03 0.  0.
        -24    2    3    3    0    0  0.41691655452E+02  0.19428945995E+02  0.17628040429E+03  0.19900448672E+03  0.80077004943E+02 0.  0.
          6    2    1    2  501    0  0.12429053039E+02 -0.21254529220E+02  0.23573293691E+03  0.29105247843E+03  0.16892392159E+03 0.  0.
         24    2    5    5    0    0  0.71760246272E+01 -0.25691945994E+02  0.25585601136E+03  0.26927374797E+03  0.79589455207E+02 0.  0.
          5    1    5    5  501    0  0.52530284116E+01  0.44374167739E+01 -0.20123074449E+02  0.21778730459E+02  0.47000000000E+01 0. -1.
        -11    1    6    6    0    0 -0.34806433257E+02 -0.12432753218E+02  0.82260269835E+02  0.90182110986E+02  0.00000000000E+00 0.  1.
         12    1    6    6    0    0  0.41982457884E+02 -0.13259192777E+02  0.17359574152E+03  0.17909163699E+03  0.00000000000E+00 0. -1.
         -5    1    3    3    0  503 -0.54120708491E+02  0.18255832255E+01  0.10536754268E+02  0.55366930854E+02  0.47000000000E+01 0.  1.
         11    1    4    4    0    0 -0.13523099027E+02 -0.67769668965E+01  0.32148946039E+01  0.15464056225E+02  0.00000000000E+00 0. -1.
        -12    1    4    4    0    0  0.55214754480E+02  0.26205912891E+02  0.17306550969E+03  0.18354043049E+03  0.00000000000E+00 0.  1.
</event>
<event>
12    1  0.8563264E-002  0.1752172E+03  0.7818608E-02  0.1172553E+00
         21   -1    0    0  501  502  0.00000000000E+00  0.00000000000E+00  0.15441984034E+03  0.15441984034E+03  0.00000000000E+00 0.  1.
         21   -1    0    0  502  503 -0.00000000000E+00 -0.00000000000E+00 -0.20039413587E+03  0.20039413587E+03  0.00000000000E+00 0.  1.
         -6    2    1    2    0  503  0.27859136497E+02  0.15113298814E+00 -0.63706711432E+01  0.17517683472E+03  0.17282992694E+03 0.  0.
        -24    2    3    3    0    0  0.66596140431E+02  0.81490942292E+01  0.40444837765E+02  0.11370891844E+03  0.82416500619E+02 0.  0.
          6    2    1    2  501    0 -0.27859136497E+02 -0.15113298814E+00 -0.39603624385E+02  0.17963714148E+03  0.17298815338E+03 0.  0.
         24    2    5    5    0    0  0.38263192275E+02  0.94549730724E+01 -0.70976581222E+02  0.10567233866E+03  0.67642439913E+02 0.  0.
          5    1    5    5  501    0 -0.66122328772E+02 -0.96061060605E+01  0.31372956837E+02  0.73964802822E+02  0.47000000000E+01 0. -1.
        -11    1    6    6    0    0  0.25863791875E+02  0.38623348426E+02 -0.39433981842E+02  0.60956851113E+02  0.00000000000E+00 0.  1.
         12    1    6    6    0    0  0.12399400400E+02 -0.29168375353E+02 -0.31542599380E+02  0.44715487548E+02  0.00000000000E+00 0. -1.
         -5    1    3    3    0  503 -0.38737003934E+02 -0.79979612410E+01 -0.46815508909E+02  0.61467916283E+02  0.47000000000E+01 0.  1.
         13    1    4    4    0    0  0.59143539342E+02  0.25043135881E+02  0.59229574707E+02  0.87368526488E+02  0.00000000000E+00 0. -1.
        -14    1    4    4    0    0  0.74526010894E+01 -0.16894041652E+02 -0.18784736942E+02  0.26340391954E+02  0.00000000000E+00 0.  1.
</event>
<event>
12    1  0.8563264E-002  0.1949979E+03  0.7818608E-02  0.1154578E+00
         21   -1    0    0  503  502  0.00000000000E+00  0.00000000000E+00  0.22242888951E+04  0.22242888951E+04  0.00000000000E+00 0.  1.
         21   -1    0    0  501  503 -0.00000000000E+00 -0.00000000000E+00 -0.22336361874E+02  0.22336361874E+02  0.00000000000E+00 0.  1.
          6    2    1    2  501    0 -0.49245402094E+02  0.71414287603E+02  0.54023712141E+03  0.57350771655E+03  0.17184249615E+03 0.  0.
         24    2    3    3    0    0 -0.15153996942E+02  0.11319835210E+03  0.38988777897E+03  0.41371051155E+03  0.78105035913E+02 0.  0.
         -6    2    1    2    0  502  0.49245402094E+02 -0.71414287603E+02  0.16617154118E+04  0.16731175405E+04  0.17463986983E+03 0.  0.
        -24    2    5    5    0    0  0.16035887425E+01  0.34868571055E+00  0.12395605931E+04  0.12422388479E+04  0.81511951107E+02 0.  0.
          5    1    3    3  501    0 -0.34091405152E+02 -0.41784064497E+02  0.15034934244E+03  0.15979720499E+03  0.47000000000E+01 0. -1.
        -13    1    4    4    0    0  0.67103006667E+01  0.11436823721E+03  0.34909131657E+03  0.36740967479E+03  0.00000000000E+00 0.  1.
         14    1    4    4    0    0 -0.21864297609E+02 -0.11698851125E+01  0.40796462397E+02  0.46300836766E+02  0.00000000000E+00 0. -1.
         -5    1    5    5    0  502  0.47641813352E+02 -0.71762973313E+02  0.42215481873E+03  0.43087869256E+03  0.47000000000E+01 0.  1.
         13    1    6    6    0    0  0.34826345691E+02  0.22057246814E+02  0.70771461213E+03  0.70891421816E+03  0.00000000000E+00 0. -1.
        -14    1    6    6    0    0 -0.33222756948E+02 -0.21708561103E+02  0.53184598097E+03  0.53332462973E+03  0.00000000000E+00 0.  1.
</event>
<event>
12    1  0.8563264E-002  0.1761791E+03  0.7818608E-02  0.1171909E+00
         21   -1    0    0  501  502  0.00000000000E+00  0.00000000000E+00  0.39174784594E+02  0.39174784594E+02  0.00000000000E+00 0.  1.
         21   -1    0    0  502  503 -0.00000000000E+00 -0.00000000000E+00 -0.79335712852E+03  0.79335712852E+03  0.00000000000E+00 0.  1.
         -6    2    1    2    0  503 -0.41085811482E+01  0.36258199111E+02 -0.41586079331E+03  0.45108655693E+03  0.17090156519E+03 0.  0.
        -24    2    3    3    0    0  0.36541962913E+02  0.77115977052E+02 -0.27968551438E+03  0.30314190057E+03  0.79930194302E+02 0.  0.
          6    2    1    2  501    0  0.41085811482E+01 -0.36258199111E+02 -0.33832155061E+03  0.38144535618E+03  0.17235878482E+03 0.  0.
         24    2    5    5    0    0 -0.22876693956E+02  0.40830504257E+02 -0.20451356207E+03  0.22460932379E+03  0.80206471424E+02 0.  0.
          5    1    5    5  501    0  0.26985275104E+02 -0.77088703368E+02 -0.13380798854E+03  0.15683603240E+03  0.47000000000E+01 0. -1.
        -11    1    6    6    0    0 -0.35241992289E+02  0.21017639450E+02 -0.19519941880E+03  0.19946566694E+03  0.00000000000E+00 0.  1.
         12    1    6    6    0    0  0.12365298333E+02  0.19812864807E+02 -0.93141432662E+01  0.25143656845E+02  0.00000000000E+00 0. -1.
         -5    1    3    3    0  503 -0.40650544061E+02 -0.40857777942E+02 -0.13617527894E+03  0.14794465636E+03  0.47000000000E+01 0.  1.
         11    1    4    4    0    0 -0.15617920129E+02  0.51931779181E+02 -0.17844718606E+03  0.18650530108E+03  0.00000000000E+00 0. -1.
        -12    1    4    4    0    0  0.52159883041E+02  0.25184197871E+02 -0.10123832832E+03  0.11663659950E+03  0.00000000000E+00 0.  1.
</event>
<event>
12    1  0.8563264E-002  0.3350915E+03  0.7818608E-02  0.1068942E+00
         21   -1    0    0  501  502  0.00000000000E+00  0.00000000000E+00  0.67511426915E+03  0.67511426915E+03  0.00000000000E+00 0. -1.
         21   -1    0    0  502  503 -0.00000000000E+00 -0.00000000000E+00 -0.17183796225E+03  0.17183796225E+03  0.00000000000E+00 0.  1.
         -6    2    1    2    0  503  0.28462721314E+03  0.31845221539E+02  0.32850897042E+03  0.46902379667E+03  0.17331592426E+03 0.  0.
        -24    2    3    3    0    0  0.28427818679E+03  0.47414728880E+02  0.33706881365E+03  0.45064194980E+03  0.80003361070E+02 0.  0.
          6    2    1    2  501    0 -0.28462721314E+03 -0.31845221539E+02  0.17476733648E+03  0.37792843473E+03  0.17395261217E+03 0.  0.
         24    2    5    5    0    0 -0.20513771490E+03  0.11615736553E+02  0.18591503897E+03  0.28652932927E+03  0.72926314917E+02 0.  0.
          5    1    5    5  501    0 -0.79489498242E+02 -0.43460958091E+02 -0.11147702481E+02  0.91399105464E+02  0.47000000000E+01 0. -1.
        -11    1    6    6    0    0 -0.12996461223E+03  0.20915853582E+02  0.72890106336E+02  0.15047006667E+03  0.00000000000E+00 0.  1.
         12    1    6    6    0    0 -0.75173102669E+02 -0.93001170293E+01  0.11302493263E+03  0.13605926259E+03  0.00000000000E+00 0. -1.
         -5    1    3    3    0  503  0.34902635219E+00 -0.15569507341E+02 -0.85598432337E+01  0.18381846872E+02  0.47000000000E+01 0.  1.
         13    1    4    4    0    0  0.18698562168E+03  0.24170059104E+02  0.27326048667E+03  0.33199263252E+03  0.00000000000E+00 0. -1.
        -14    1    4    4    0    0  0.97292565110E+02  0.23244669776E+02  0.63808326983E+02  0.11864931728E+03  0.00000000000E+00 0.  1.
</event>
<event>
12    1  0.8563264E-002  0.1920687E+03  0.7818608E-02  0.1157227E+00
         21   -1    0    0  503  502  0.00000000000E+00  0.00000000000E+00  0.11616947790E+03  0.11616947790E+03  0.00000000000E+00 0.  1.
         21   -1    0    0  501  503 -0.00000000000E+00 -0.00000000000E+00 -0.33182244448E+03  0.33182244448E+03  0.00000000000E+00 0.  1.
          6    2    1    2  501    0  0.63086623374E+02  0.44368893056E+02 -0.16042807564E+03  0.24814155579E+03  0.17288303427E+03 0.  0.
         24    2    3    3    0    0  0.10680963146E+03  0.64352405842E+02 -0.12057690843E+03  0.18552168876E+03  0.65802558047E+02 0.  0.
         -6    2    1    2    0  502 -0.63086623374E+02 -0.44368893056E+02 -0.55224890944E+02  0.19985036658E+03  0.17590298384E+03 0.  0.
        -24    2    5    5    0    0 -0.49517889071E+01 -0.66393828432E+02  0.15211610073E+02  0.10578577477E+03  0.80787229164E+02 0.  0.
          5    1    3    3  501    0 -0.43723008081E+02 -0.19983512786E+02 -0.39851167208E+02  0.62619867029E+02  0.47000000000E+01 0. -1.
        -11    1    4    4    0    0  0.25921918649E+02  0.52892998382E+01 -0.66784930990E+02  0.71834181046E+02  0.00000000000E+00 0.  1.
         12    1    4    4    0    0  0.80887712807E+02  0.59063106004E+02 -0.53791977439E+02  0.11368750772E+03  0.00000000000E+00 0. -1.
         -5    1    5    5    0  502 -0.58134834467E+02  0.22024935376E+02 -0.70436501017E+02  0.94064591810E+02  0.47000000000E+01 0.  1.
         13    1    6    6    0    0  0.32093806037E+02 -0.57894300936E+02  0.47547698690E+01  0.66365430032E+02  0.00000000000E+00 0. -1.
        -14    1    6    6    0    0 -0.37045594944E+02 -0.84995274966E+01  0.10456840204E+02  0.39420344741E+02  0.00000000000E+00 0.  1.
</event>
<event>
12    1  0.8563264E-002  0.1984121E+03  0.7818608E-02  0.1151858E+00
         21   -1    0    0  503  502  0.00000000000E+00  0.00000000000E+00  0.30932348248E+03  0.30932348248E+03  0.00000000000E+00 0.  1.
         21   -1    0    0  501  503 -0.00000000000E+00 -0.00000000000E+00 -0.12530895148E+03  0.12530895148E+03  0.00000000000E+00 0. -1.
          6    2    1    2  501    0 -0.99023622854E+02  0.18507485318E+01  0.10236404553E+03  0.22007666707E+03  0.16776840709E+03 0.  0.
         24    2    3    3    0    0 -0.71031550762E+02 -0.55366343978E+02  0.99756940745E+02  0.15615297216E+03  0.79507170985E+02 0.  0.
         -6    2    1    2    0  502  0.99023622854E+02 -0.18507485318E+01  0.81650485466E+02  0.21455576690E+03  0.17192519355E+03 0.  0.
        -24    2    5    5    0    0  0.12193412909E+03 -0.14760943795E+02  0.10409687277E+03  0.17966314961E+03  0.79729988753E+02 0.  0.
          5    1    3    3  501    0 -0.27992072091E+02  0.57217092510E+02  0.26071047833E+01  0.63923694907E+02  0.47000000000E+01 0. -1.
        -13    1    4    4    0    0  0.16786237444E+02 -0.11771233213E+01  0.11673337066E+02  0.20479994753E+02  0.00000000000E+00 0.  1.
         14    1    4    4    0    0 -0.87817788207E+02 -0.54189220657E+02  0.88083603679E+02  0.13567297741E+03  0.00000000000E+00 0. -1.
         -5    1    5    5    0  502 -0.22910506240E+02  0.12910195263E+02 -0.22446387307E+02  0.34892617286E+02  0.47000000000E+01 0.  1.
         13    1    6    6    0    0  0.82186337530E+02 -0.61879569165E+01  0.11117126727E+03  0.13839051829E+03  0.00000000000E+00 0. -1.
        -14    1    6    6    0    0  0.39747791564E+02 -0.85729868786E+01 -0.70743944951E+01  0.41272631316E+02  0.00000000000E+00 0.  1.
</event>
<event>
12    1  0.8563264E-002  0.1863005E+03  0.7818608E-02  0.1162345E+00
         21   -1    0    0  503  502  0.00000000000E+00  0.00000000000E+00  0.45221182061E+03  0.45221182061E+03  0.00000000000E+00 0. -1.
         21   -1    0    0  501  503 -0.00000000000E+00 -0.00000000000E+00 -0.11403184015E+03  0.11403184015E+03  0.00000000000E+00 0. -1.
          6    2    1    2  501    0 -0.66836706547E+02 -0.15435485711E+02  0.59473265851E+01  0.18639544921E+03  0.17321227795E+03 0.  0.
         24    2    3    3    0    0 -0.22984846381E+02 -0.31661058054E+02  0.65147439735E+02  0.11081107097E+03  0.80648489044E+02 0.  0.
         -6    2    1    2    0  502  0.66836706547E+02  0.15435485711E+02  0.33223265387E+03  0.37984821154E+03  0.17088220490E+03 0.  0.
        -24    2    5    5    0    0  0.31650161790E+02  0.73867871099E+02  0.23258011970E+03  0.25899642562E+03  0.80792581850E+02 0.  0.
          5    1    3    3  501    0 -0.43851860166E+02  0.16225572343E+02 -0.59200113150E+02  0.75584378246E+02  0.47000000000E+01 0. -1.
        -11    1    4    4    0    0 -0.38955684100E+02  0.61141839223E+01  0.56494988524E+02  0.68895662397E+02  0.00000000000E+00 0.  1.
         12    1    4    4    0    0  0.15970837719E+02 -0.37775241976E+02  0.86524512108E+01  0.41915408572E+02  0.00000000000E+00 0. -1.
         -5    1    5    5    0  502  0.35186544756E+02 -0.58432385387E+02  0.99652534168E+02  0.12085178592E+03  0.47000000000E+01 0.  1.
         11    1    6    6    0    0  0.47713950977E+02  0.45185676261E+02  0.20747254413E+03  0.21763093306E+03  0.00000000000E+00 0. -1.
        -12    1    6    6    0    0 -0.16063789186E+02  0.28682194838E+02  0.25107575574E+02  0.41365492562E+02  0.00000000000E+00 0.  1.
</event>
<event>
12    1  0.8563264E-002  0.1780166E+03  0.7818608E-02  0.1170103E+00
         21   -1    0    0  503  502  0.00000000000E+00  0.00000000000E+00  0.25119493885E+03  0.25119493885E+03  0.00000000000E+00 0. -1.
         21   -1    0    0  501  503 -0.00000000000E+00 -0.00000000000E+00 -0.21433889194E+03  0.21433889194E+03  0.00000000000E+00 0. -1.
          6    2    1    2  501    0  0.33928482414E+02  0.30603469220E+02 -0.13180450599E+03  0.22030682795E+03  0.17051380119E+03 0.  0.
         24    2    3    3    0    0 -0.39661680335E+02  0.18095772136E+02 -0.34187809813E+02  0.97330960755E+02  0.80025019373E+02 0.  0.
         -6    2    1    2    0  502 -0.33928482414E+02 -0.30603469220E+02  0.16866055290E+03  0.24522700283E+03  0.17205285980E+03 0.  0.
        -24    2    5    5    0    0  0.12153140544E+01 -0.43713987073E+02  0.18403743249E+03  0.20441633591E+03  0.77484657674E+02 0.  0.
          5    1    3    3  501    0  0.73590162749E+02  0.12507697085E+02 -0.97616696179E+02  0.12297586720E+03  0.47000000000E+01 0. -1.
        -13    1    4    4    0    0 -0.95814888242E+01 -0.28245598539E+02 -0.29392480004E+02  0.41875250992E+02  0.00000000000E+00 0.  1.
         14    1    4    4    0    0 -0.30080191511E+02  0.46341370675E+02 -0.47953298093E+01  0.55455709763E+02  0.00000000000E+00 0. -1.
         -5    1    5    5    0  502 -0.35143796469E+02  0.13110517853E+02 -0.15376879592E+02  0.40810666922E+02  0.47000000000E+01 0.  1.
         13    1    6    6    0    0 -0.15287348060E+02  0.18644682660E+02  0.42256187655E+02  0.48650925966E+02  0.00000000000E+00 0. -1.
        -14    1    6    6    0    0  0.16502662114E+02 -0.62358669733E+02  0.14178124484E+03  0.15576540995E+03  0.00000000000E+00 0.  1.
</event>
<event>
12    1  0.8563264E-002  0.1976367E+03  0.7818608E-02  0.1152196E+00
         21   -1    0    0  501  502  0.00000000000E+00  0.00000000000E+00  0.49007004615E+03  0.49007004615E+03  0.00000000000E+00 0.  1.
         21   -1    0    0  502  503 -0.00000000000E+00 -0.00000000000E+00 -0.13894527354E+03  0.13894527354E+03  0.00000000000E+00 0.  1.
         -6    2    1    2    0  503  0.92719472902E+02  0.31963470932E+02 -0.30717346242E+02  0.20000959765E+03  0.17158589587E+03 0.  0.
        -24    2    3    3    0    0  0.56104344899E+02  0.43306178288E+02 -0.85389892188E+02  0.13307304643E+03  0.73443035092E+02 0.  0.
          6    2    1    2  501    0 -0.92719472902E+02 -0.31963470932E+02  0.38184211885E+03  0.42900572205E+03  0.16918611553E+03 0.  0.
         24    2    5    5    0    0 -0.95973721304E+02 -0.34970666167E+02  0.15758812943E+03  0.20465872490E+03  0.81346619273E+02 0.  0.
          5    1    5    5  501    0  0.32542484025E+01  0.30071952348E+01  0.22425398942E+03  0.22434699715E+03  0.47000000000E+01 0. -1.
        -11    1    6    6    0    0 -0.10022180167E+03 -0.50662887392E+02  0.12369048753E+03  0.16706428223E+03  0.00000000000E+00 0.  1.
         12    1    6    6    0    0  0.42480803685E+01  0.15692221225E+02  0.33897641897E+02  0.37594442674E+02  0.00000000000E+00 0. -1.
         -5    1    3    3    0  503  0.36615128003E+02 -0.11342707356E+02  0.54672545946E+02  0.66936551219E+02  0.47000000000E+01 0.  1.
         13    1    4    4    0    0  0.11106032828E+02 -0.19785816569E+02 -0.94697058634E+01  0.24586537609E+02  0.00000000000E+00 0. -1.
        -14    1    4    4    0    0  0.44998312072E+02  0.63091994857E+02 -0.75920186325E+02  0.10848650882E+03  0.00000000000E+00 0.  1.
</event>
<event>
12    1  0.8563264E-002  0.1898856E+03  0.7818608E-02  0.1158614E+00
         21   -1    0    0  501  502  0.00000000000E+00  0.00000000000E+00  0.61495700527E+03  0.61495700527E+03  0.00000000000E+00 0.  1.
         21   -1    0    0  502  503 -0.00000000000E+00 -0.00000000000E+00 -0.10586402478E+03  0.10586402478E+03  0.00000000000E+00 0.  1.
         -6    2    1    2    0  503 -0.75771050275E+02  0.25610585308E+02  0.13560622103E+02  0.19015270651E+03  0.17197967084E+03 0.  0.
        -24    2    3    3    0    0  0.28226476483E+02  0.10825341302E+02  0.14887955077E+02  0.84995962433E+02  0.78030381485E+02 0.  0.
          6    2    1    2  501    0  0.75771050275E+02 -0.25610585308E+02  0.49553235839E+03  0.53066832354E+03  0.17221903860E+03 0.  0.
         24    2    5    5    0    0  0.63734593204E+01  0.42759316387E+02  0.28133153945E+03  0.29530785548E+03  0.78678550445E+02 0.  0.
          5    1    5    5  501    0  0.69397590954E+02 -0.68369901695E+02  0.21420081894E+03  0.23536046805E+03  0.47000000000E+01 0. -1.
        -13    1    6    6    0    0  0.36450725535E+02  0.36118175713E+01  0.16349315170E+03  0.16754614669E+03  0.00000000000E+00 0.  1.
         14    1    6    6    0    0 -0.30077266214E+02  0.39147498816E+02  0.11783838775E+03  0.12776170880E+03  0.00000000000E+00 0. -1.
         -5    1    3    3    0  503 -0.10399752676E+03  0.14785244005E+02 -0.13273329742E+01  0.10515674408E+03  0.47000000000E+01 0.  1.
         13    1    4    4    0    0 -0.73750122486E+01  0.37857122212E+02  0.11102113694E+02  0.40134890511E+02  0.00000000000E+00 0. -1.
        -14    1    4    4    0    0  0.35601488732E+02 -0.27031780910E+02  0.37858413830E+01  0.44861071922E+02  0.00000000000E+00 0.  1.
</event>
<event>
12    1  0.8563264E-002  0.2192845E+03  0.7818608E-02  0.1135291E+00
         21   -1    0    0  503  502  0.00000000000E+00  0.00000000000E+00  0.20136312233E+03  0.20136312233E+03  0.00000000000E+00 0. -1.
         21   -1    0    0  501  503 -0.00000000000E+00 -0.00000000000E+00 -0.23533368289E+03  0.23533368289E+03  0.00000000000E+00 0. -1.
          6    2    1    2  501    0  0.97431201605E+02  0.94736265224E+02  0.78764396788E+00  0.21467466946E+03  0.16618301457E+03 0.  0.
         24    2    3    3    0    0  0.25154046771E+02  0.11204581416E+03  0.79474917144E+01  0.13986182955E+03  0.79442924172E+02 0.  0.
         -6    2    1    2    0  502 -0.97431201605E+02 -0.94736265224E+02 -0.34758204529E+02  0.22202213576E+03  0.17209850955E+03 0.  0.
        -24    2    5    5    0    0 -0.12977197900E+03 -0.91633804315E+02 -0.82879885487E+01  0.17985208145E+03  0.83908043844E+02 0.  0.
          5    1    3    3  501    0  0.72277154834E+02 -0.17309548938E+02 -0.71598477465E+01  0.74812839908E+02  0.47000000000E+01 0. -1.
        -11    1    4    4    0    0 -0.22391058263E+02  0.84433538254E+01 -0.69065791262E+01  0.24906837399E+02  0.00000000000E+00 0.  1.
         12    1    4    4    0    0  0.47545105035E+02  0.10360246034E+03  0.14854070841E+02  0.11495499215E+03  0.00000000000E+00 0. -1.
         -5    1    5    5    0  502  0.32340777395E+02 -0.31024609097E+01 -0.26470215980E+02  0.42170054307E+02  0.47000000000E+01 0.  1.
         11    1    6    6    0    0 -0.93002206732E+02 -0.30815904035E+02  0.25384075192E+02  0.10120959279E+03  0.00000000000E+00 0. -1.
        -12    1    6    6    0    0 -0.36769772268E+02 -0.60817900280E+02 -0.33672063741E+02  0.78642488666E+02  0.00000000000E+00 0.  1.
</event>
<event>
12    1  0.8563264E-002  0.1777119E+03  0.7818608E-02  0.1170249E+00
         21   -1    0    0  501  502  0.00000000000E+00  0.00000000000E+00  0.22480025114E+03  0.22480025114E+03  0.00000000000E+00 0.  1.
         21   -1    0    0  502  503 -0.00000000000E+00 -0.00000000000E+00 -0.15608309772E+03  0.15608309772E+03  0.00000000000E+00 0.  1.
         -6    2    1    2    0  503 -0.36628893662E+02 -0.18077431536E+02 -0.27215747326E+02  0.17893128355E+03  0.17206753891E+03 0.  0.
        -24    2    3    3    0    0  0.23049690712E+02 -0.53794897633E+02 -0.42412615006E+02  0.10758490589E+03  0.79690042108E+02 0.  0.
          6    2    1    2  501    0  0.36628893662E+02  0.18077431536E+02  0.95932900748E+02  0.20195206531E+03  0.17295388361E+03 0.  0.
         24    2    5    5    0    0 -0.19035437647E+02  0.91237687379E+01 -0.73260320751E+01  0.84210046200E+02  0.81191564172E+02 0.  0.
          5    1    5    5  501    0  0.55664331308E+02  0.89536627976E+01  0.10325893282E+03  0.11774201911E+03  0.47000000000E+01 0. -1.
        -11    1    6    6    0    0  0.30130259367E+02  0.16142848344E+02 -0.43327132144E+01  0.34455717754E+02  0.00000000000E+00 0.  1.
         12    1    6    6    0    0 -0.49165697013E+02 -0.70190796056E+01 -0.29933188607E+01  0.49754328446E+02  0.00000000000E+00 0. -1.
         -5    1    3    3    0  503 -0.59678584373E+02  0.35717466098E+02  0.15196867680E+02  0.71346377655E+02  0.47000000000E+01 0.  1.
         13    1    4    4    0    0  0.44807250142E+01 -0.24896468615E+02  0.22686388420E+02  0.33979159285E+02  0.00000000000E+00 0. -1.
        -14    1    4    4    0    0  0.18568965697E+02 -0.28898429018E+02 -0.65099003426E+02  0.73605746609E+02  0.00000000000E+00 0.  1.
</event>
<event>
12    1  0.8563264E-002  0.2052440E+03  0.7818608E-02  0.1146436E+00
         21   -1    0    0  501  502  0.00000000000E+00  0.00000000000E+00  0.10813058602E+04  0.10813058602E+04  0.00000000000E+00 0.  1.
         21   -1    0    0  502  503 -0.00000000000E+00 -0.00000000000E+00 -0.38162167696E+02  0.38162167696E+02  0.00000000000E+00 0. -1.
         -6    2    1    2    0  503 -0.47848146464E+02  0.10112396997E+03  0.47882418486E+03  0.51898355216E+03  0.16599947282E+03 0.  0.
        -24    2    3    3    0    0 -0.76987120735E+02  0.35147699190E+02  0.37402158760E+03  0.39167439097E+03  0.79713882331E+02 0.  0.
          6    2    1    2  501    0  0.47848146464E+02 -0.10112396997E+03  0.56431950764E+03  0.60048447574E+03  0.17207439228E+03 0.  0.
         24    2    5    5    0    0  0.61151392597E+02 -0.10006111572E+02  0.39261022773E+03  0.40558550888E+03  0.80729170723E+02 0.  0.
          5    1    5    5  501    0 -0.13303246133E+02 -0.91117858402E+02  0.17170927991E+03  0.19489896686E+03  0.47000000000E+01 0. -1.
        -13    1    6    6    0    0  0.32766954143E+02 -0.45295672038E+02  0.19525674767E+03  0.20310236015E+03  0.00000000000E+00 0.  1.
         14    1    6    6    0    0  0.28384438455E+02  0.35289560467E+02  0.19735348007E+03  0.20248314873E+03  0.00000000000E+00 0. -1.
         -5    1    3    3    0  503  0.29138974271E+02  0.65976270783E+02  0.10480259726E+03  0.12730916118E+03  0.47000000000E+01 0.  1.
         13    1    4    4    0    0 -0.42280981296E+02 -0.12144824813E+02  0.74967100749E+02  0.86920908554E+02  0.00000000000E+00 0. -1.
        -14    1    4    4    0    0 -0.34706139439E+02  0.47292524003E+02  0.29905448685E+03  0.30475348242E+03  0.00000000000E+00 0.  1.
</event>
<event>
12    1  0.8563264E-002  0.1847097E+03  0.7818608E-02  0.1163762E+00
         21   -1    0    0  501  502  0.00000000000E+00  0.00000000000E+00  0.18839471955E+04  0.18839471955E+04  0.00000000000E+00 0. -1.
         21   -1    0    0  502  503 -0.00000000000E+00 -0.00000000000E+00 -0.18153300093E+02  0.18153300093E+02  0.00000000000E+00 0. -1.
         -6    2    1    2    0  503 -0.16149624615E+02 -0.58599848689E+02  0.82184050789E+03  0.84193241273E+03  0.17243437758E+03 0.  0.
        -24    2    3    3    0    0 -0.43205728502E+02 -0.55144944061E+02  0.79936660417E+03  0.80627942588E+03  0.78688276792E+02 0.  0.
          6    2    1    2  501    0  0.16149624615E+02  0.58599848689E+02  0.10439533876E+04  0.10601680829E+04  0.17442171870E+03 0.  0.
         24    2    5    5    0    0  0.53977488444E+02  0.53721003577E+01  0.84860716990E+03  0.85414290184E+03  0.80520427486E+02 0.  0.
          5    1    5    5  501    0 -0.37827863829E+02  0.53227748331E+02  0.19534621767E+03  0.20602518106E+03  0.47000000000E+01 0. -1.
        -11    1    6    6    0    0  0.58784168087E+01 -0.34070039935E+02  0.27119412213E+03  0.27338905480E+03  0.00000000000E+00 0.  1.
         12    1    6    6    0    0  0.48099071635E+02  0.39442140293E+02  0.57741304777E+03  0.58075384705E+03  0.00000000000E+00 0. -1.
         -5    1    3    3    0  503  0.27056103887E+02 -0.34549046273E+01  0.22473903718E+02  0.35652986857E+02  0.47000000000E+01 0.  1.
         13    1    4    4    0    0 -0.61427679779E+02 -0.22912573901E+02  0.41675454780E+03  0.42187995805E+03  0.00000000000E+00 0. -1.
        -14    1    4    4    0    0  0.18221951276E+02 -0.32232370161E+02  0.38261205636E+03  0.38439946783E+03  0.00000000000E+00 0.  1.
</event>
<event>
12    1  0.8563264E-002  0.1997902E+03  0.7818608E-02  0.1150573E+00
         21   -1    0    0  501  502  0.00000000000E+00  0.00000000000E+00  0.57684925782E+02  0.57684925782E+02  0.00000000000E+00 0.  1.
         21   -1    0    0  502  503 -0.00000000000E+00 -0.00000000000E+00 -0.88960979129E+03  0.88960979129E+03  0.00000000000E+00 0. -1.
         -6    2    1    2    0  503  0.90419614198E+02  0.28472469347E+02 -0.64761351656E+03  0.67773106416E+03  0.17586853146E+03 0.  0.
        -24    2    3    3    0    0  0.46995277340E+02 -0.46874128509E+02 -0.43799358526E+03  0.45073901929E+03  0.83195809752E+02 0.  0.
          6    2    1    2  501    0 -0.90419614198E+02 -0.28472469347E+02 -0.18431134895E+03  0.26956365291E+03  0.17235864201E+03 0.  0.
         24    2    5    5    0    0 -0.15639855848E+02 -0.39941413603E+02 -0.24437207864E+02  0.92630388857E+02  0.78379143910E+02 0.  0.
          5    1    5    5  501    0 -0.74779758350E+02  0.11468944256E+02 -0.15987414108E+03  0.17693326405E+03  0.47000000000E+01 0. -1.
        -13    1    6    6    0    0 -0.24851221486E+02 -0.42552710496E+02  0.15424036485E+02  0.51635426612E+02  0.00000000000E+00 0.  1.
         14    1    6    6    0    0  0.92113656384E+01  0.26112968928E+01 -0.39861244350E+02  0.40994962245E+02  0.00000000000E+00 0. -1.
         -5    1    3    3    0  503  0.43424336858E+02  0.75346597856E+02 -0.20961993130E+03  0.22699204488E+03  0.47000000000E+01 0.  1.
         13    1    4    4    0    0  0.56614343605E+02 -0.33782729050E+02 -0.42459014490E+03  0.42967807465E+03  0.00000000000E+00 0. -1.
        -14    1    4    4    0    0 -0.96190662655E+01 -0.13091399460E+02 -0.13403440361E+02  0.21060944640E+02  0.00000000000E+00 0.  1.
</event>
<event>
12    1  0.8563264E-002  0.1998242E+03  0.7818608E-02  0.1150349E+00
         21   -1    0    0  503  502  0.00000000000E+00  0.00000000000E+00  0.28272904710E+03  0.28272904710E+03  0.00000000000E+00 0. -1.
         21   -1    0    0  501  503 -0.00000000000E+00 -0.00000000000E+00 -0.14310836717E+03  0.14310836717E+03  0.00000000000E+00 0.  1.
          6    2    1    2  501    0  0.73810272678E+02  0.71514047577E+02  0.37320742379E+02  0.20327953189E+03  0.17136952739E+03 0.  0.
         24    2    3    3    0    0 -0.24333850711E+02  0.36401102532E+02 -0.17718645761E+01  0.91854625409E+02  0.80727666565E+02 0.  0.
         -6    2    1    2    0  502 -0.73810272678E+02 -0.71514047577E+02  0.10229993755E+03  0.22255788238E+03  0.16883281207E+03 0.  0.
        -24    2    5    5    0    0 -0.10932421285E+03 -0.82247209428E+02  0.93650878003E+02  0.18417381093E+03  0.80206724825E+02 0.  0.
          5    1    3    3  501    0  0.98144123389E+02  0.35112945046E+02  0.39092606955E+02  0.11142490648E+03  0.47000000000E+01 0. -1.
        -13    1    4    4    0    0 -0.45999682598E+02  0.39040003594E+02  0.17412772224E+02  0.62795679121E+02  0.00000000000E+00 0.  1.
         14    1    4    4    0    0  0.21665831887E+02 -0.26389010625E+01 -0.19184636800E+02  0.29058946288E+02  0.00000000000E+00 0. -1.
         -5    1    5    5    0  502  0.35513940172E+02  0.10733161851E+02  0.86490595500E+01  0.38384071448E+02  0.47000000000E+01 0.  1.
         13    1    6    6    0    0 -0.57572332765E+02 -0.76912655648E+02  0.27337033079E+02  0.99887153710E+02  0.00000000000E+00 0. -1.
        -14    1    6    6    0    0 -0.51751880085E+02 -0.53345537800E+01  0.66313844924E+02  0.84286657218E+02  0.00000000000E+00 0.  1.
</event>
<event>
12    1  0.8563264E-002  0.1766306E+03  0.7818608E-02  0.1172506E+00
         21   -1    0    0  501  502  0.00000000000E+00  0.00000000000E+00  0.34737265554E+03  0.34737265554E+03  0.00000000000E+00 0. -1.
         21   -1    0    0  502  503 -0.00000000000E+00 -0.00000000000E+00 -0.96550259488E+02  0.96550259488E+02  0.00000000000E+00 0. -1.
         -6    2    1    2    0  503 -0.36485089687E+02 -0.20764507266E+02  0.53838497978E+02  0.17934587894E+03  0.16584340173E+03 0.  0.
        -24    2    3    3    0    0  0.24948155817E+02 -0.51413204720E+02  0.10004719302E+02  0.97756195394E+02  0.78679420634E+02 0.  0.
          6    2    1    2  501    0  0.36485089687E+02  0.20764507266E+02  0.19698389807E+03  0.26457703608E+03  0.17156930200E+03 0.  0.
         24    2    5    5    0    0  0.79977698259E+01 -0.51544522869E+02  0.96516501068E+02  0.13747113105E+03  0.82837640809E+02 0.  0.
          5    1    5    5  501    0  0.28487319861E+02  0.72309030135E+02  0.10046739700E+03  0.12710590502E+03  0.47000000000E+01 0. -1.
        -13    1    6    6    0    0  0.21499072972E+02 -0.37000163257E+02  0.10684737200E+03  0.11509814561E+03  0.00000000000E+00 0.  1.
         14    1    6    6    0    0 -0.13501303146E+02 -0.14544359612E+02 -0.10330870936E+02  0.22372985439E+02  0.00000000000E+00 0. -1.
         -5    1    3    3    0  503 -0.61433245504E+02  0.30648697454E+02  0.43833778676E+02  0.81589683550E+02  0.47000000000E+01 0.  1.
         11    1    4    4    0    0 -0.28359927425E+01 -0.60575552594E+02  0.24133032390E+02  0.65267477960E+02  0.00000000000E+00 0. -1.
        -12    1    4    4    0    0  0.27784148560E+02  0.91623478746E+01 -0.14128313088E+02  0.32488717434E+02  0.00000000000E+00 0.  1.
</event>
<event>
12    1  0.8563264E-002  0.1740455E+03  0.7818608E-02  0.1174074E+00
         21   -1    0    0  503  502  0.00000000000E+00  0.00000000000E+00  0.20082852732E+03  0.20082852732E+03  0.00000000000E+00 0. -1.
         21   -1    0    0  501  503 -0.00000000000E+00 -0.00000000000E+00 -0.21067071486E+03  0.21067071486E+03  0.00000000000E+00 0. -1.
          6    2    1    2  501    0 -0.26291106527E+01 -0.33751584742E+01 -0.11573920490E+03  0.20776899620E+03  0.17249373413E+03 0.  0.
         24    2    3    3    0    0 -0.69882066768E+02 -0.50898466879E+01 -0.70414374527E+02  0.12651427012E+03  0.78347090623E+02 0.  0.
         -6    2    1    2    0  502  0.26291106527E+01  0.33751584742E+01  0.10589701736E+03  0.20373024598E+03  0.17399290481E+03 0.  0.
        -24    2    5    5    0    0 -0.45428304419E+01  0.11926729857E+02  0.14546618302E+03  0.16234939313E+03  0.70950904520E+02 0.  0.
          5    1    3    3  501    0  0.67252956115E+02  0.17146882138E+01 -0.45324830369E+02  0.81254726077E+02  0.47000000000E+01 0. -1.
        -13    1    4    4    0    0  0.53284355419E+01 -0.33398443898E+01 -0.47437979880E+02  0.47852990721E+02  0.00000000000E+00 0.  1.
         14    1    4    4    0    0 -0.75210502310E+02 -0.17500022981E+01 -0.22976394646E+02  0.78661279399E+02  0.00000000000E+00 0. -1.
         -5    1    5    5    0  502  0.71719410946E+01 -0.85515713828E+01 -0.39569165658E+02  0.41380852856E+02  0.47000000000E+01 0.  1.
         11    1    6    6    0    0  0.14721623292E+02 -0.19373363494E+02  0.19652774012E+02  0.31277546767E+02  0.00000000000E+00 0. -1.
        -12    1    6    6    0    0 -0.19264453734E+02  0.31300093351E+02  0.12581340901E+03  0.13107184636E+03  0.00000000000E+00 0.  1.
</event>
<event>
12    1  0.8563264E-002  0.2361935E+03  0.7818608E-02  0.1122409E+00
         21   -1    0    0  503  502  0.00000000000E+00  0.00000000000E+00  0.94529237168E+02  0.94529237168E+02  0.00000000000E+00 0.  1.
         21   -1    0    0  501  503 -0.00000000000E+00 -0.00000000000E+00 -0.62298101190E+03  0.62298101190E+03  0.00000000000E+00 0.  1.
          6    2    1    2  501    0  0.15549368597E+03  0.44193494685E+02 -0.18106514139E+03  0.29761037064E+03  0.17220916334E+03 0.  0.
         24    2    3    3    0    0  0.16197437378E+03 -0.10105818303E+02 -0.14519190740E+03  0.23204060915E+03  0.80151911990E+02 0.  0.
         -6    2    1    2    0  502 -0.15549368597E+03 -0.44193494685E+02 -0.34738663335E+03  0.41989987843E+03  0.17177626008E+03 0.  0.
        -24    2    5    5    0    0 -0.17916193641E+02 -0.59351577395E+02 -0.16174928786E+03  0.18829537090E+03  0.73815410632E+02 0.  0.
          5    1    3    3  501    0 -0.64806878085E+01  0.54299312988E+02 -0.35873233983E+02  0.65569761490E+02  0.47000000000E+01 0. -1.
        -13    1    4    4    0    0  0.99670791741E+02  0.24575542080E+02 -0.53119053127E+02  0.11558485108E+03  0.00000000000E+00 0.  1.
         14    1    4    4    0    0  0.62303582035E+02 -0.34681360383E+02 -0.92072854276E+02  0.11645575807E+03  0.00000000000E+00 0. -1.
         -5    1    5    5    0  502 -0.13757749233E+03  0.15158082710E+02 -0.18563734549E+03  0.23160450753E+03  0.47000000000E+01 0.  1.
         11    1    6    6    0    0 -0.37764584407E+02 -0.78595969203E+01 -0.45772741882E+02  0.59858842275E+02  0.00000000000E+00 0. -1.
        -12    1    6    6    0    0  0.19848390766E+02 -0.51491980475E+02 -0.11597654598E+03  0.12843652863E+03  0.00000000000E+00 0.  1.
</event>
<event>
12    1  0.8563264E-002  0.1733326E+03  0.7818608E-02  0.1174962E+00
         21   -1    0    0  501  502  0.00000000000E+00  0.00000000000E+00  0.43455676270E+02  0.43455676270E+02  0.00000000000E+00 0.  1.
         21   -1    0    0  502  503 -0.00000000000E+00 -0.00000000000E+00 -0.68801168514E+03  0.68801168514E+03  0.00000000000E+00 0.  1.
         -6    2    1    2    0  503  0.23364001404E+02 -0.91658890217E+00 -0.35183071405E+03  0.39127287538E+03  0.16959627048E+03 0.  0.
        -24    2    3    3    0    0 -0.15557113386E+02 -0.40082094120E+02 -0.30053484304E+03  0.31576031776E+03  0.86803158615E+02 0.  0.
          6    2    1    2  501    0 -0.23364001404E+02  0.91658890217E+00 -0.29272529482E+03  0.34019448603E+03  0.17174828500E+03 0.  0.
         24    2    5    5    0    0  0.17001808679E+02 -0.51101142724E+02 -0.23255728797E+03  0.25087751073E+03  0.77176712288E+02 0.  0.
          5    1    5    5  501    0 -0.40365810083E+02  0.52017731626E+02 -0.60168006849E+02  0.89316975292E+02  0.47000000000E+01 0. -1.
        -13    1    6    6    0    0  0.42668045393E+02 -0.36008585503E+02 -0.95496583450E+02  0.11061997007E+03  0.00000000000E+00 0.  1.
         14    1    6    6    0    0 -0.25666236714E+02 -0.15092557220E+02 -0.13706070452E+03  0.14025754066E+03  0.00000000000E+00 0. -1.
         -5    1    3    3    0  503  0.38921114790E+02  0.39165505218E+02 -0.51295871012E+02  0.75512557620E+02  0.47000000000E+01 0.  1.
         11    1    4    4    0    0  0.14815005571E+02 -0.11597223107E+02 -0.82828933575E+01  0.20556903858E+02  0.00000000000E+00 0. -1.
        -12    1    4    4    0    0 -0.30372118957E+02 -0.28484871014E+02 -0.29225194968E+03  0.29520341390E+03  0.00000000000E+00 0.  1.
</event>
<event>
12    1  0.8563264E-002  0.2048792E+03  0.7818608E-02  0.1145932E+00
         21   -1    0    0  501  502  0.00000000000E+00  0.00000000000E+00  0.13718867219E+03  0.13718867219E+03  0.00000000000E+00 0. -1.
         21   -1    0    0  502  503 -0.00000000000E+00 -0.00000000000E+00 -0.30540830357E+03  0.30540830357E+03  0.00000000000E+00 0.  1.
         -6    2    1    2    0  503 -0.58558744268E+01  0.10843511428E+03 -0.98356059316E+02  0.22726501944E+03  0.17373258009E+03 0.  0.
        -24    2    3    3    0    0  0.50747202323E+02  0.57046735849E+02 -0.10232430084E+02  0.11050656038E+03  0.79229973153E+02 0.  0.
          6    2    1    2  501    0  0.58558744268E+01 -0.10843511428E+03 -0.69863572068E+02  0.21533195631E+03  0.17232082705E+03 0.  0.
         24    2    5    5    0    0  0.43754151856E+02 -0.12894398870E+03 -0.53675856578E+02  0.16906073961E+03  0.84613580886E+02 0.  0.
          5    1    5    5  501    0 -0.37898277429E+02  0.20508874428E+02 -0.16187715490E+02  0.46271216703E+02  0.47000000000E+01 0. -1.
        -13    1    6    6    0    0 -0.12232832141E+02 -0.38107632533E+02 -0.47591130581E+02  0.62183193465E+02  0.00000000000E+00 0.  1.
         14    1    6    6    0    0  0.55986983997E+02 -0.90836356170E+02 -0.60847259970E+01  0.10687754614E+03  0.00000000000E+00 0. -1.
         -5    1    3    3    0  503 -0.56603076750E+02  0.51388378427E+02 -0.88123629231E+02  0.11675845907E+03  0.47000000000E+01 0.  1.
         13    1    4    4    0    0  0.66658375624E+02  0.45409444416E+02 -0.26553345023E+02  0.84914290993E+02  0.00000000000E+00 0. -1.
        -14    1    4    4    0    0 -0.15911173301E+02  0.11637291433E+02  0.16320914938E+02  0.25592269382E+02  0.00000000000E+00 0.  1.
</event>
<event>
12    1  0.8563264E-002  0.2169504E+03  0.7818608E-02  0.1136216E+00
         21   -1    0    0  501  502  0.00000000000E+00  0.00000000000E+00  0.68582033317E+02  0.68582033317E+02  0.00000000000E+00 0.  1.
         21   -1    0    0  502  503 -0.00000000000E+00 -0.00000000000E+00 -0.91591810734E+03  0.91591810734E+03  0.00000000000E+00 0.  1.
         -6    2    1    2    0  503 -0.12849386918E+03 -0.25750165228E+02 -0.67033352182E+03  0.70450485826E+03  0.17264506774E+03 0.  0.
        -24    2    3    3    0    0 -0.45554259251E+02  0.19187798780E+02 -0.51472907734E+03  0.52247949562E+03  0.74802661204E+02 0.  0.
          6    2    1    2  501    0  0.12849386918E+03  0.25750165228E+02 -0.17700255220E+03  0.27999528239E+03  0.17289797353E+03 0.  0.
         24    2    5    5    0    0  0.10855435254E+03  0.64580475445E+02 -0.70089073145E+02  0.16441864410E+03  0.78525964428E+02 0.  0.
          5    1    5    5  501    0  0.19939516641E+02 -0.38830310217E+02 -0.10691347906E+03  0.11557663830E+03  0.47000000000E+01 0. -1.
        -11    1    6    6    0    0  0.58492696702E+02  0.26796487412E+01 -0.30899596108E+00  0.58554859434E+02  0.00000000000E+00 0.  1.
         12    1    6    6    0    0  0.50061655834E+02  0.61900826704E+02 -0.69780077184E+02  0.10586378466E+03  0.00000000000E+00 0. -1.
         -5    1    3    3    0  503 -0.82939609926E+02 -0.44937964009E+02 -0.15560444447E+03  0.18202536264E+03  0.47000000000E+01 0.  1.
         13    1    4    4    0    0  0.16543026849E+02 -0.10969789066E+02 -0.14609725151E+03  0.14743952966E+03  0.00000000000E+00 0. -1.
        -14    1    4    4    0    0 -0.62097286100E+02  0.30157587846E+02 -0.36863182583E+03  0.37503996596E+03  0.00000000000E+00 0.  1.
</event>
<event>
12    1  0.8563264E-002  0.2803395E+03  0.7818608E-02  0.1096183E+00
         21   -1    0    0  501  502  0.00000000000E+00  0.00000000000E+00  0.12635711841E+03  0.12635711841E+03  0.00000000000E+00 0. -1.
         21   -1    0    0  502  503 -0.00000000000E+00 -0.00000000000E+00 -0.61262476799E+03  0.61262476799E+03  0.00000000000E+00 0.  1.
         -6    2    1    2    0  503  0.22032261104E+03  0.16886454694E+02 -0.25963867809E+03  0.37849485340E+03  0.16437428509E+03 0.  0.
        -24    2    3    3    0    0  0.12466867280E+03  0.72120788352E+02 -0.13740398221E+03  0.21368005311E+03  0.77689282920E+02 0.  0.
          6    2    1    2  501    0 -0.22032261104E+03 -0.16886454694E+02 -0.22662897149E+03  0.36048703301E+03  0.17251957850E+03 0.  0.
         24    2    5    5    0    0 -0.72989677050E+02 -0.43763938860E+01 -0.24719756340E+02  0.11018138741E+03  0.78627132713E+02 0.  0.
          5    1    5    5  501    0 -0.14733293399E+03 -0.12510060808E+02 -0.20190921515E+03  0.25030564560E+03  0.47000000000E+01 0. -1.
        -11    1    6    6    0    0  0.10131104318E+02  0.15028399787E+02 -0.16362073552E+02  0.24417402110E+02  0.00000000000E+00 0.  1.
         12    1    6    6    0    0 -0.83120781368E+02 -0.19404793673E+02 -0.83576827871E+01  0.85763985299E+02  0.00000000000E+00 0. -1.
         -5    1    3    3    0  503  0.95653938235E+02 -0.55234333658E+02 -0.12223469589E+03  0.16481480029E+03  0.47000000000E+01 0.  1.
         13    1    4    4    0    0  0.11486700546E+03  0.86368602589E+02 -0.13304792128E+03  0.19584614832E+03  0.00000000000E+00 0. -1.
        -14    1    4    4    0    0  0.98016673430E+01 -0.14247814237E+02 -0.43560609316E+01  0.17833904791E+02  0.00000000000E+00 0.  1.
</event>
<event>
12    1  0.8563264E-002  0.2651783E+03  0.7818608E-02  0.1105427E+00
         21   -1    0    0  501  502  0.00000000000E+00  0.00000000000E+00  0.19596748423E+03  0.19596748423E+03  0.00000000000E+00 0.  1.
         21   -1    0    0  502  503 -0.00000000000E+00 -0.00000000000E+00 -0.37382685533E+03  0.37382685533E+03  0.00000000000E+00 0.  1.
         -6    2    1    2    0  503 -0.20343219439E+02 -0.18808101334E+03 -0.16431229236E+03  0.30427021914E+03  0.17260800294E+03 0.  0.
        -24    2    3    3    0    0  0.38664115034E+02 -0.52359199990E+02 -0.65672797782E+02  0.12635418267E+03  0.86116569228E+02 0.  0.
          6    2    1    2  501    0  0.20343219439E+02  0.18808101334E+03 -0.13547078740E+02  0.26552412043E+03  0.18582578139E+03 0.  0.
         24    2    5    5    0    0  0.48812991536E+02  0.20514453470E+03 -0.33881227245E+02  0.22631622224E+03  0.74860581272E+02 0.  0.
          5    1    5    5  501    0 -0.28469772097E+02 -0.17063521362E+02  0.20334148506E+02  0.39207898184E+02  0.47000000000E+01 0. -1.
        -13    1    6    6    0    0  0.19213475543E+02  0.11170497048E+03  0.19028788495E+02  0.11493151380E+03  0.00000000000E+00 0.  1.
         14    1    6    6    0    0  0.29599515993E+02  0.93439564227E+02 -0.52910015741E+02  0.11138470845E+03  0.00000000000E+00 0. -1.
         -5    1    3    3    0  503 -0.59007334472E+02 -0.13572181335E+03 -0.98639494577E+02  0.17791603646E+03  0.47000000000E+01 0.  1.
         11    1    4    4    0    0  0.19183745602E+02  0.22978189249E+02 -0.21724791642E+02  0.36986211598E+02  0.00000000000E+00 0. -1.
        -12    1    4    4    0    0  0.19480369431E+02 -0.75337389239E+02 -0.43948006140E+02  0.89367971076E+02  0.00000000000E+00 0.  1.
</event>
<event>
12    1  0.8563264E-002  0.2299797E+03  0.7818608E-02  0.1128152E+00
         21   -1    0    0  501  502  0.00000000000E+00  0.00000000000E+00  0.19448285581E+03  0.19448285581E+03  0.00000000000E+00 0. -1.
         21   -1    0    0  502  503 -0.00000000000E+00 -0.00000000000E+00 -0.58225952191E+03  0.58225952191E+03  0.00000000000E+00 0. -1.
         -6    2    1    2    0  503 -0.57225109090E+02  0.14063107507E+03 -0.48020578306E+03  0.52888391306E+03  0.16145831357E+03 0.  0.
        -24    2    3    3    0    0 -0.32943484551E+02  0.99479525953E+02 -0.45647129459E+03  0.47532587698E+03  0.81161550552E+02 0.  0.
          6    2    1    2  501    0  0.57225109090E+02 -0.14063107507E+03  0.92429116960E+02  0.24785846467E+03  0.17273929622E+03 0.  0.
         24    2    5    5    0    0 -0.13208441066E+01 -0.27280375372E+02 -0.91758763866E+01  0.84696966662E+02  0.79645564501E+02 0.  0.
          5    1    5    5  501    0  0.58545953196E+02 -0.11335069970E+03  0.10160499335E+03  0.16316149800E+03  0.47000000000E+01 0. -1.
        -13    1    6    6    0    0 -0.15772553218E+02  0.17986136739E+02  0.18017667299E+02  0.29948470490E+02  0.00000000000E+00 0.  1.
         14    1    6    6    0    0  0.14451709111E+02 -0.45266512111E+02 -0.27193543686E+02  0.54748496172E+02  0.00000000000E+00 0. -1.
         -5    1    3    3    0  503 -0.24281624538E+02  0.41151549117E+02 -0.23734488469E+02  0.53558036072E+02  0.47000000000E+01 0.  1.
         11    1    4    4    0    0 -0.49675096053E+02  0.48364851962E+02 -0.16565843528E+03  0.17958143349E+03  0.00000000000E+00 0. -1.
        -12    1    4    4    0    0  0.16731611502E+02  0.51114673990E+02 -0.29081285931E+03  0.29574444349E+03  0.00000000000E+00 0.  1.
</event>
<event>
12    1  0.8563264E-002  0.2166696E+03  0.7818608E-02  0.1136529E+00
         21   -1    0    0  503  502  0.00000000000E+00  0.00000000000E+00  0.87546308113E+02  0.87546308113E+02  0.00000000000E+00 0. -1.
         21   -1    0    0  501  503 -0.00000000000E+00 -0.00000000000E+00 -0.70660255278E+03  0.70660255278E+03  0.00000000000E+00 0. -1.
          6    2    1    2  501    0  0.11813307904E+03  0.58730104119E+02 -0.50592187620E+03  0.55036594550E+03  0.17187518626E+03 0.  0.
         24    2    3    3    0    0  0.12894623394E+03  0.59877479763E+02 -0.26632398323E+03  0.31047538481E+03  0.72484872214E+02 0.  0.
         -6    2    1    2    0  502 -0.11813307904E+03 -0.58730104119E+02 -0.11313436847E+03  0.24378291540E+03  0.17095635413E+03 0.  0.
        -24    2    5    5    0    0 -0.66501984979E+02 -0.10296040441E+03 -0.61291620619E+02  0.15815669370E+03  0.78952632143E+02 0.  0.
          5    1    3    3  501    0 -0.10813154901E+02 -0.11473756442E+01 -0.23959789298E+03  0.23989056069E+03  0.47000000000E+01 0. -1.
        -13    1    4    4    0    0  0.96468440446E+02  0.10218559768E+02 -0.13372673002E+03  0.16520719502E+03  0.00000000000E+00 0.  1.
         14    1    4    4    0    0  0.32477793497E+02  0.49658919995E+02 -0.13259725321E+03  0.14526818979E+03  0.00000000000E+00 0. -1.
         -5    1    5    5    0  502 -0.51631094063E+02  0.44230300287E+02 -0.51842747849E+02  0.85626221697E+02  0.47000000000E+01 0.  1.
         13    1    6    6    0    0 -0.37522789375E+02 -0.10734663041E+03 -0.60564672211E+02  0.12883841936E+03  0.00000000000E+00 0. -1.
        -14    1    6    6    0    0 -0.28979195604E+02  0.43862260028E+01 -0.72694840798E+00  0.29318274342E+02  0.00000000000E+00 0.  1.
</event>
<event>
12    1  0.8563264E-002  0.2496438E+03  0.7818608E-02  0.1113626E+00
         21   -1    0    0  503  502  0.00000000000E+00  0.00000000000E+00  0.14158643698E+03  0.14158643698E+03  0.00000000000E+00 0. -1.
         21   -1    0    0  501  503 -0.00000000000E+00 -0.00000000000E+00 -0.46314484341E+03  0.46314484341E+03  0.00000000000E+00 0.  1.
          6    2    1    2  501    0 -0.67404223216E+01 -0.18054110988E+03 -0.92079605901E+02  0.26608394236E+03  0.17228315329E+03 0.  0.
         24    2    3    3    0    0  0.60969421914E+02 -0.13328885717E+03 -0.50637103811E+02  0.17358005394E+03  0.77991852080E+02 0.  0.
         -6    2    1    2    0  502  0.67404223216E+01  0.18054110988E+03 -0.22947880053E+03  0.33864733803E+03  0.17140879212E+03 0.  0.
        -24    2    5    5    0    0  0.51603942906E+02  0.77244379693E+02 -0.18252453455E+03  0.21654187935E+03  0.70324381836E+02 0.  0.
          5    1    3    3  501    0 -0.67709844235E+02 -0.47252252718E+02 -0.41442502090E+02  0.92503888420E+02  0.47000000000E+01 0. -1.
        -11    1    4    4    0    0  0.46798271158E+02 -0.41298438879E+02 -0.50845823341E+02  0.80504266895E+02  0.00000000000E+00 0.  1.
         12    1    4    4    0    0  0.14171150756E+02 -0.91990418287E+02  0.20871952997E+00  0.93075787046E+02  0.00000000000E+00 0. -1.
         -5    1    5    5    0  502 -0.44863520584E+02  0.10329673019E+03 -0.46954265975E+02  0.12210545868E+03  0.47000000000E+01 0.  1.
         11    1    6    6    0    0  0.46966930114E+02  0.67242574240E+02 -0.84001770030E+02  0.11740423196E+03  0.00000000000E+00 0. -1.
        -12    1    6    6    0    0  0.46370127924E+01  0.10001805453E+02 -0.98522764523E+02  0.99137647386E+02  0.00000000000E+00 0.  1.
</event>
<event>
12    1  0.8563264E-002  0.1881937E+03  0.7818608E-02  0.1162986E+00
         21   -1    0    0  503  502  0.00000000000E+00  0.00000000000E+00  0.18140783358E+03  0.18140783358E+03  0.00000000000E+00 0. -1.
         21   -1    0    0  501  503 -0.00000000000E+00 -0.00000000000E+00 -0.43342313379E+03  0.43342313379E+03  0.00000000000E+00 0. -1.
          6    2    1    2  501    0  0.66760718141E+01 -0.88194629787E+01 -0.36150099401E+03  0.40755345518E+03  0.18786829774E+03 0.  0.
         24    2    3    3    0    0  0.76037764917E+02 -0.32734163895E+02 -0.23326018448E+03  0.25973345444E+03  0.78726656933E+02 0.  0.
         -6    2    1    2    0  502 -0.66760718141E+01  0.88194629787E+01  0.10948569380E+03  0.20727751218E+03  0.17565448200E+03 0.  0.
        -24    2    5    5    0    0 -0.72254839277E+02 -0.31939640208E+01  0.80737685741E+02  0.13452151492E+03  0.79664928742E+02 0.  0.
          5    1    3    3  501    0 -0.69361693103E+02  0.23914700916E+02 -0.12824080953E+03  0.14782000074E+03  0.47000000000E+01 0. -1.
        -11    1    4    4    0    0  0.37440452669E+02 -0.26557936662E+02 -0.35181139417E+02  0.57834453974E+02  0.00000000000E+00 0.  1.
         12    1    4    4    0    0  0.38597312248E+02 -0.61762272322E+01 -0.19807904506E+03  0.20189900047E+03  0.00000000000E+00 0. -1.
         -5    1    5    5    0  502  0.65578767463E+02  0.12013426999E+02  0.28748008062E+02  0.72755997263E+02  0.47000000000E+01 0.  1.
         11    1    6    6    0    0 -0.60457481652E+02 -0.22221077625E+02  0.89679460976E+02  0.11041417074E+03  0.00000000000E+00 0. -1.
        -12    1    6    6    0    0 -0.11797357625E+02  0.19027113604E+02 -0.89417752351E+01  0.24107344180E+02  0.00000000000E+00 0.  1.
</event>
<event>
12    1  0.8563264E-002  0.1952646E+03  0.7818608E-02  0.1154232E+00
         21   -1    0    0  501  502  0.00000000000E+00  0.00000000000E+00  0.26195075743E+03  0.26195075743E+03  0.00000000000E+00 0.  1.
         21   -1    0    0  502  503 -0.00000000000E+00 -0.00000000000E+00 -0.14529033302E+03  0.14529033302E+03  0.00000000000E+00 0.  1.
         -6    2    1    2    0  503 -0.46089960545E+02  0.75794981941E+02  0.39434466363E+02  0.19725990358E+03  0.17171845758E+03 0.  0.
        -24    2    3    3    0    0 -0.17028024023E+02  0.11829156823E+03  0.42039849343E+02  0.14549665387E+03  0.71547736783E+02 0.  0.
          6    2    1    2  501    0  0.46089960545E+02 -0.75794981941E+02  0.77225958047E+02  0.20998118686E+03  0.17395139117E+03 0.  0.
         24    2    5    5    0    0 -0.37658249521E+02 -0.68922950347E+01  0.48627155529E+02  0.97725565811E+02  0.75630935935E+02 0.  0.
          5    1    5    5  501    0  0.83748210066E+02 -0.68902686906E+02  0.28598802518E+02  0.11225562105E+03  0.47000000000E+01 0. -1.
        -13    1    6    6    0    0  0.35507778162E+01 -0.28330277194E+02 -0.24836653861E+01  0.28659749174E+02  0.00000000000E+00 0.  1.
         14    1    6    6    0    0 -0.41209027337E+02  0.21437982159E+02  0.51110820915E+02  0.69065816637E+02  0.00000000000E+00 0. -1.
         -5    1    3    3    0  503 -0.29061936523E+02 -0.42496586285E+02 -0.26053829799E+01  0.51763249712E+02  0.47000000000E+01 0.  1.
         11    1    4    4    0    0  0.19213790529E+01  0.62160646634E+01 -0.16431665534E+02  0.17672882888E+02  0.00000000000E+00 0. -1.
        -12    1    4    4    0    0 -0.18949403076E+02  0.11207550356E+03  0.58471514877E+02  0.12782377098E+03  0.00000000000E+00 0.  1.
</event>
<event>
12    1  0.8563264E-002  0.1838758E+03  0.7818608E-02  0.1164468E+00
         21   -1    0    0  501  502  0.00000000000E+00  0.00000000000E+00  0.12642805977E+03  0.12642805977E+03  0.00000000000E+00 0.  1.
         21   -1    0    0  502  503 -0.00000000000E+00 -0.00000000000E+00 -0.27855084761E+03  0.27855084761E+03  0.00000000000E+00 0.  1.
         -6    2    1    2    0  503  0.50212558477E+01  0.63557097067E+02 -0.32026072337E+02  0.18664401347E+03  0.17246913015E+03 0.  0.
        -24    2    3    3    0    0 -0.46447101525E+01 -0.26489028465E+02  0.14101592117E+02  0.84901264093E+02  0.79285104421E+02 0.  0.
          6    2    1    2  501    0 -0.50212558477E+01 -0.63557097067E+02 -0.12009671550E+03  0.21833489390E+03  0.17082794626E+03 0.  0.
         24    2    5    5    0    0 -0.42819991970E+02 -0.35974617893E+02 -0.10642530270E+02  0.99205358210E+02  0.81244783230E+02 0.  0.
          5    1    5    5  501    0  0.37798736122E+02 -0.27582479174E+02 -0.10945418523E+03  0.11912953569E+03  0.47000000000E+01 0. -1.
        -13    1    6    6    0    0 -0.54699760769E+01 -0.55589015682E+02 -0.69706622179E+00  0.55861840322E+02  0.00000000000E+00 0.  1.
         14    1    6    6    0    0 -0.37350015893E+02  0.19614397789E+02 -0.99454640480E+01  0.43343517888E+02  0.00000000000E+00 0. -1.
         -5    1    3    3    0  503  0.96659660002E+01  0.90046125532E+02 -0.46127664454E+02  0.10174274937E+03  0.47000000000E+01 0.  1.
         11    1    4    4    0    0  0.24660022625E+02  0.85175139140E+01  0.26914445201E+02  0.37484024859E+02  0.00000000000E+00 0. -1.
        -12    1    4    4    0    0 -0.29304732777E+02 -0.35006542379E+02 -0.12812853084E+02  0.47417239235E+02  0.00000000000E+00 0.  1.
</event>
<event>
12    1  0.8563264E-002  0.2030785E+03  0.7818608E-02  0.1147817E+00
         21   -1    0    0  503  502  0.00000000000E+00  0.00000000000E+00  0.14107218666E+03  0.14107218666E+03  0.00000000000E+00 0.  1.
         21   -1    0    0  501  503 -0.00000000000E+00 -0.00000000000E+00 -0.37349784982E+03  0.37349784982E+03  0.00000000000E+00 0.  1.
          6    2    1    2  501    0 -0.97693734436E+02 -0.41322385424E+02 -0.24009297367E+03  0.31446066042E+03  0.17317409061E+03 0.  0.
         24    2    3    3    0    0 -0.12023900822E+02 -0.63763974998E+01 -0.19551126291E+03  0.21164937019E+03  0.79909757487E+02 0.  0.
         -6    2    1    2    0  502  0.97693734436E+02  0.41322385424E+02  0.76673105144E+01  0.20010937606E+03  0.16950920167E+03 0.  0.
        -24    2    5    5    0    0  0.54988067646E+02  0.79987891817E+02  0.41185494078E+02  0.13329355465E+03  0.81542481991E+02 0.  0.
          5    1    3    3  501    0 -0.85669833614E+02 -0.34945987924E+02 -0.44581710757E+02  0.10281129022E+03  0.47000000000E+01 0. -1.
        -13    1    4    4    0    0 -0.24348660525E+02  0.22815313545E+02 -0.36261310631E+02  0.49277565384E+02  0.00000000000E+00 0.  1.
         14    1    4    4    0    0  0.12324759703E+02 -0.29191711045E+02 -0.15924995228E+03  0.16237180481E+03  0.00000000000E+00 0. -1.
         -5    1    5    5    0  502  0.42705666790E+02 -0.38665506393E+02 -0.33518183564E+02  0.66815821405E+02  0.47000000000E+01 0.  1.
         11    1    6    6    0    0  0.56662643495E+02  0.83396945072E+02  0.93782502502E+01  0.10126034363E+03  0.00000000000E+00 0. -1.
        -12    1    6    6    0    0 -0.16745758491E+01 -0.34090532549E+01  0.31807243828E+02  0.32033211021E+02  0.00000000000E+00 0.  1.
</event>
<event>
12    1  0.8563264E-002  0.2399219E+03  0.7818608E-02  0.1120075E+00
         21   -1    0    0  503  502  0.00000000000E+00  0.00000000000E+00  0.31438317435E+03  0.31438317435E+03  0.00000000000E+00 0. -1.
         21   -1    0    0  501  503 -0.00000000000E+00 -0.00000000000E+00 -0.28935241049E+03  0.28935241049E+03  0.00000000000E+00 0. -1.
          6    2    1    2  501    0 -0.59432859491E+02  0.15740778882E+03 -0.17133592995E+03  0.29369948604E+03  0.16909734014E+03 0.  0.
         24    2    3    3    0    0 -0.26103513350E+02  0.70536009578E+02 -0.12544728335E+02  0.10959547454E+03  0.78721507694E+02 0.  0.
         -6    2    1    2    0  502  0.59432859491E+02 -0.15740778882E+03  0.19636669380E+03  0.31003609880E+03  0.17103516409E+03 0.  0.
        -24    2    5    5    0    0 -0.12567476380E+02 -0.54029825746E+02  0.31641271141E+02  0.10260513080E+03  0.80308650181E+02 0.  0.
          5    1    3    3  501    0 -0.33329346141E+02  0.86871779240E+02 -0.15879120162E+03  0.18410401151E+03  0.47000000000E+01 0. -1.
        -13    1    4    4    0    0  0.88085271062E+01 -0.10298955281E+02  0.12091327233E+02  0.18162015965E+02  0.00000000000E+00 0.  1.
         14    1    4    4    0    0 -0.34912040456E+02  0.80834964859E+02 -0.24636055568E+02  0.91433458572E+02  0.00000000000E+00 0. -1.
         -5    1    5    5    0  502  0.72000335871E+02 -0.10337796307E+03  0.16472542266E+03  0.20743096800E+03  0.47000000000E+01 0.  1.
         13    1    6    6    0    0  0.33492537051E+02 -0.32772219769E+02  0.16141742659E+02  0.49561318413E+02  0.00000000000E+00 0. -1.
        -14    1    6    6    0    0 -0.46060013431E+02 -0.21257605977E+02  0.15499528482E+02  0.53043812385E+02  0.00000000000E+00 0.  1.
</event>
<event>
12    1  0.8563264E-002  0.2383144E+03  0.7818608E-02  0.1121416E+00
         21   -1    0    0  501  502  0.00000000000E+00  0.00000000000E+00  0.30038207006E+03  0.30038207006E+03  0.00000000000E+00 0. -1.
         21   -1    0    0  502  503 -0.00000000000E+00 -0.00000000000E+00 -0.18852272385E+03  0.18852272385E+03  0.00000000000E+00 0. -1.
         -6    2    1    2    0  503 -0.35644338440E+02 -0.15871516895E+03  0.79933269300E+02  0.25136246858E+03  0.17416296779E+03 0.  0.
        -24    2    3    3    0    0  0.27663728853E+02 -0.89313851389E+02  0.95816294748E+02  0.15597476098E+03  0.80031979727E+02 0.  0.
          6    2    1    2  501    0  0.35644338440E+02  0.15871516895E+03  0.31926076915E+02  0.23754232534E+03  0.17013541142E+03 0.  0.
         24    2    5    5    0    0  0.45372346900E+01  0.17865447392E+03  0.15309366523E+02  0.19675712152E+03  0.80876329131E+02 0.  0.
          5    1    5    5  501    0  0.31107103750E+02 -0.19939304969E+02  0.16616710391E+02  0.40785203819E+02  0.47000000000E+01 0. -1.
        -11    1    6    6    0    0 -0.22775300626E+02  0.95712766105E+01 -0.86734708987E+00  0.24719950355E+02  0.00000000000E+00 0.  1.
         12    1    6    6    0    0  0.27312535316E+02  0.16908319731E+03  0.16176713613E+02  0.17203717116E+03  0.00000000000E+00 0. -1.
         -5    1    3    3    0  503 -0.63308067293E+02 -0.69401317563E+02 -0.15883025447E+02  0.95387707600E+02  0.47000000000E+01 0.  1.
         13    1    4    4    0    0 -0.17282418808E+02 -0.21272522762E+02 -0.33205893114E+01  0.27608486701E+02  0.00000000000E+00 0. -1.
        -14    1    4    4    0    0  0.44946147662E+02 -0.68041328627E+02  0.99136884059E+02  0.12836627428E+03  0.00000000000E+00 0.  1.
</event>
<event>
12    1  0.8563264E-002  0.3486641E+03  0.7818608E-02  0.1063183E+00
         21   -1    0    0  501  502  0.00000000000E+00  0.00000000000E+00  0.84472117262E+03  0.84472117262E+03  0.00000000000E+00 0. -1.
         21   -1    0    0  502  503 -0.00000000000E+00 -0.00000000000E+00 -0.15008919300E+03  0.15008919300E+03  0.00000000000E+00 0.  1.
         -6    2    1    2    0  503  0.54330862368E+02 -0.29846155545E+03  0.44872146550E+03  0.56815049591E+03  0.17150186502E+03 0.  0.
        -24    2    3    3    0    0 -0.32356202338E+02 -0.18819089847E+03  0.28791905320E+03  0.35471720239E+03  0.80400089424E+02 0.  0.
          6    2    1    2  501    0 -0.54330862368E+02  0.29846155545E+03  0.24591051412E+03  0.42665986971E+03  0.17185901426E+03 0.  0.
         24    2    5    5    0    0 -0.48380841727E+02  0.22213566780E+03  0.25350933446E+03  0.34958279178E+03  0.79096048547E+02 0.  0.
          5    1    5    5  501    0 -0.59500206410E+01  0.76325887652E+02 -0.75988203462E+01  0.77077077930E+02  0.47000000000E+01 0. -1.
        -11    1    6    6    0    0 -0.62032609239E+02  0.21639254429E+03  0.23024365402E+03  0.32200297833E+03  0.00000000000E+00 0.  1.
         12    1    6    6    0    0  0.13651767512E+02  0.57431235058E+01  0.23265680441E+02  0.27579813454E+02  0.00000000000E+00 0. -1.
         -5    1    3    3    0  503  0.86687064706E+02 -0.11027065698E+03  0.16080241230E+03  0.21343329352E+03  0.47000000000E+01 0.  1.
         13    1    4    4    0    0  0.21814293766E+02 -0.10363800164E+03  0.13160442677E+03  0.16892727412E+03  0.00000000000E+00 0. -1.
        -14    1    4    4    0    0 -0.54170496104E+02 -0.84552896828E+02  0.15631462643E+03  0.18578992827E+03  0.00000000000E+00 0.  1.
</event>
<event>
12    1  0.8563264E-002  0.2003751E+03  0.7818608E-02  0.1149462E+00
         21   -1    0    0  503  502  0.00000000000E+00  0.00000000000E+00  0.16397087978E+03  0.16397087978E+03  0.00000000000E+00 0. -1.
         21   -1    0    0  501  503 -0.00000000000E+00 -0.00000000000E+00 -0.36372410246E+03  0.36372410246E+03  0.00000000000E+00 0. -1.
          6    2    1    2  501    0 -0.10033196678E+03 -0.20108250586E+02 -0.25081878986E+03  0.32091521000E+03  0.17206295754E+03 0.  0.
         24    2    3    3    0    0 -0.89724294083E+02 -0.41336632322E+02 -0.83241001610E+02  0.15160020172E+03  0.79337196147E+02 0.  0.
         -6    2    1    2    0  502  0.10033196678E+03  0.20108250586E+02  0.51065567182E+02  0.20677977225E+03  0.17227691883E+03 0.  0.
        -24    2    5    5    0    0  0.82710656594E+02 -0.75759488110E+01  0.96002876585E+02  0.15093733995E+03  0.81652192643E+02 0.  0.
          5    1    3    3  501    0 -0.10607672698E+02  0.21228381736E+02 -0.16757778825E+03  0.16931500828E+03  0.47000000000E+01 0. -1.
        -11    1    4    4    0    0 -0.38262694226E+02 -0.59690715215E+02 -0.57082562132E+02  0.91024360211E+02  0.00000000000E+00 0.  1.
         12    1    4    4    0    0 -0.51461599857E+02  0.18354082893E+02 -0.26158439478E+02  0.60575841510E+02  0.00000000000E+00 0. -1.
         -5    1    5    5    0  502  0.17621310187E+02  0.27684199397E+02 -0.44937309403E+02  0.55842432302E+02  0.47000000000E+01 0.  1.
         13    1    6    6    0    0  0.67224052809E+02 -0.41574233553E+02  0.67625585595E+02  0.10402264176E+03  0.00000000000E+00 0. -1.
        -14    1    6    6    0    0  0.15486603785E+02  0.33998284742E+02  0.28377290990E+02  0.46914698189E+02  0.00000000000E+00 0.  1.
</event>
<event>
12    1  0.8563264E-002  0.2533007E+03  0.7818608E-02  0.1111400E+00
         21   -1    0    0  503  502  0.00000000000E+00  0.00000000000E+00  0.10139623279E+03  0.10139623279E+03  0.00000000000E+00 0.  1.
         21   -1    0    0  501  503 -0.00000000000E+00 -0.00000000000E+00 -0.85095721429E+03  0.85095721429E+03  0.00000000000E+00 0.  1.
          6    2    1    2  501    0  0.18539111202E+03  0.10162276328E+02 -0.61791882107E+03  0.66782100301E+03  0.17230231092E+03 0.  0.
         24    2    3    3    0    0  0.14997658600E+03 -0.35478532225E+02 -0.33218111206E+03  0.37626414678E+03  0.86479560299E+02 0.  0.
         -6    2    1    2    0  502 -0.18539111202E+03 -0.10162276328E+02 -0.13164216043E+03  0.28453244408E+03  0.17075103823E+03 0.  0.
        -24    2    5    5    0    0 -0.48799546661E+02 -0.19388504047E+01  0.21865263756E+01  0.93072035974E+02  0.79198914687E+02 0.  0.
          5    1    3    3  501    0  0.35414526016E+02  0.45640808553E+02 -0.28573770901E+03  0.29155685622E+03  0.47000000000E+01 0. -1.
        -13    1    4    4    0    0  0.12688314028E+03 -0.60384175003E+02 -0.24115837585E+03  0.27911098532E+03  0.00000000000E+00 0.  1.
         14    1    4    4    0    0  0.23093445716E+02  0.24905642777E+02 -0.91022736205E+02  0.97153161469E+02  0.00000000000E+00 0. -1.
         -5    1    5    5    0  502 -0.13659156536E+03 -0.82234259233E+01 -0.13382868680E+03  0.19146040810E+03  0.47000000000E+01 0.  1.
         11    1    6    6    0    0 -0.58475306069E+02  0.19645376558E+02 -0.15419678803E+02  0.63585129821E+02  0.00000000000E+00 0. -1.
        -12    1    6    6    0    0  0.96757594082E+01 -0.21584226963E+02  0.17606205179E+02  0.29486906153E+02  0.00000000000E+00 0.  1.
</event>
<event>
12    1  0.8563264E-002  0.2143328E+03  0.7818608E-02  0.1138459E+00
         21   -1    0    0  501  502  0.00000000000E+00  0.00000000000E+00  0.12912443139E+04  0.12912443139E+04  0.00000000000E+00 0. -1.
         21   -1    0    0  502  503 -0.00000000000E+00 -0.00000000000E+00 -0.38484587518E+02  0.38484587518E+02  0.00000000000E+00 0. -1.
         -6    2    1    2    0  503  0.10446281716E+03  0.69977125559E+02  0.81454207968E+03  0.84190388362E+03  0.17179659898E+03 0.  0.
        -24    2    3    3    0    0  0.11225925848E+03  0.10219433097E+03  0.75008002237E+03  0.76926656777E+03  0.78135714850E+02 0.  0.
          6    2    1    2  501    0 -0.10446281716E+03 -0.69977125559E+02  0.43821764670E+03  0.48782501780E+03  0.17357783221E+03 0.  0.
         24    2    5    5    0    0 -0.10685300058E+03 -0.10529857643E+03  0.30422756318E+03  0.34915724810E+03  0.82770887251E+02 0.  0.
          5    1    5    5  501    0  0.23901834159E+01  0.35321450870E+02  0.13399008353E+03  0.13866776970E+03  0.47000000000E+01 0. -1.
        -13    1    6    6    0    0 -0.18136113470E+02 -0.75653005146E+02  0.13886693446E+03  0.15917387124E+03  0.00000000000E+00 0.  1.
         14    1    6    6    0    0 -0.88716887106E+02 -0.29645571284E+02  0.16536062872E+03  0.18998337687E+03  0.00000000000E+00 0. -1.
         -5    1    3    3    0  503 -0.77964413159E+01 -0.32217205409E+02  0.64462057305E+02  0.72637315848E+02  0.47000000000E+01 0.  1.
         13    1    4    4    0    0  0.92435845948E+02  0.65378460606E+02  0.37110526929E+03  0.38799207417E+03  0.00000000000E+00 0. -1.
        -14    1    4    4    0    0  0.19823412528E+02  0.36815870362E+02  0.37897475308E+03  0.38127449360E+03  0.00000000000E+00 0.  1.
</event>
<event>
12    1  0.8563264E-002  0.1800342E+03  0.7818608E-02  0.1167865E+00
         21   -1    0    0  501  502  0.00000000000E+00  0.00000000000E+00  0.31566362886E+02  0.31566362886E+02  0.00000000000E+00 0. -1.
         21   -1    0    0  502  503 -0.00000000000E+00 -0.00000000000E+00 -0.18563795252E+04  0.18563795252E+04  0.00000000000E+00 0. -1.
         -6    2    1    2    0  503 -0.40759044173E+02  0.27089119128E+02 -0.15437451417E+04  0.15541622099E+04  0.17284673057E+03 0.  0.
        -24    2    3    3    0    0 -0.58849005822E+02  0.77503059152E+02 -0.94848480839E+03  0.95647854239E+03  0.75880436482E+02 0.  0.
          6    2    1    2  501    0  0.40759044173E+02 -0.27089119128E+02 -0.28106802065E+03  0.33378367816E+03  0.17325470130E+03 0.  0.
         24    2    5    5    0    0  0.80870538187E+02  0.19575821113E+02 -0.20175784415E+03  0.23329117747E+03  0.82433543481E+02 0.  0.
          5    1    5    5  501    0 -0.40111494014E+02 -0.46664940241E+02 -0.79310176498E+02  0.10049250069E+03  0.47000000000E+01 0. -1.
        -13    1    6    6    0    0 -0.42746179006E+01  0.27295468016E+02 -0.26454083525E+02  0.38250927669E+02  0.00000000000E+00 0.  1.
         14    1    6    6    0    0  0.85145156088E+02 -0.77196469031E+01 -0.17530376062E+03  0.19504024980E+03  0.00000000000E+00 0. -1.
         -5    1    3    3    0  503  0.18089961649E+02 -0.50413940024E+02 -0.59526033326E+03  0.59768366751E+03  0.47000000000E+01 0.  1.
         11    1    4    4    0    0 -0.46822333050E+02  0.75248932586E+02 -0.49781586847E+03  0.50564352229E+03  0.00000000000E+00 0. -1.
        -12    1    4    4    0    0 -0.12026672772E+02  0.22541265657E+01 -0.45066893992E+03  0.45083502011E+03  0.00000000000E+00 0.  1.
</event>
<event>
12    1  0.8563264E-002  0.2299384E+03  0.7818608E-02  0.1126801E+00
         21   -1    0    0  501  502  0.00000000000E+00  0.00000000000E+00  0.22298190364E+03  0.22298190364E+03  0.00000000000E+00 0. -1.
         21   -1    0    0  502  503 -0.00000000000E+00 -0.00000000000E+00 -0.32420893706E+03  0.32420893706E+03  0.00000000000E+00 0. -1.
         -6    2    1    2    0  503 -0.15123944771E+03 -0.72091967525E+01 -0.19292751076E+03  0.29964159628E+03  0.17215899266E+03 0.  0.
        -24    2    3    3    0    0 -0.15588165514E+03 -0.49822509869E+02 -0.17666313347E+03  0.25355402189E+03  0.79362499911E+02 0.  0.
          6    2    1    2  501    0  0.15123944771E+03  0.72091967525E+01  0.91700477339E+02  0.24754924442E+03  0.17305001534E+03 0.  0.
         24    2    5    5    0    0  0.36164864935E+02  0.54106877438E+02  0.61359593103E+02  0.11954841899E+03  0.79318176830E+02 0.  0.
          5    1    5    5  501    0  0.11507458278E+03 -0.46897680686E+02  0.30340884236E+02  0.12800082543E+03  0.47000000000E+01 0. -1.
        -13    1    6    6    0    0 -0.23575862884E+02  0.35719154294E+01  0.19526904242E+02  0.30820121347E+02  0.00000000000E+00 0.  1.
         14    1    6    6    0    0  0.59740727819E+02  0.50534962009E+02  0.41832688861E+02  0.88728297644E+02  0.00000000000E+00 0. -1.
         -5    1    3    3    0  503  0.46422074252E+01  0.42613313116E+02 -0.16264377288E+02  0.46087574389E+02  0.47000000000E+01 0.  1.
         11    1    4    4    0    0 -0.22976015140E+02 -0.17725292559E+02 -0.82724834252E+02  0.87666877839E+02  0.00000000000E+00 0. -1.
        -12    1    4    4    0    0 -0.13290564000E+03 -0.32097217310E+02 -0.93938299220E+02  0.16588714405E+03  0.00000000000E+00 0.  1.
</event>
<event>
12    1  0.8563264E-002  0.2002048E+03  0.7818608E-02  0.1149890E+00
         21   -1    0    0  501  502  0.00000000000E+00  0.00000000000E+00  0.11013544116E+03  0.11013544116E+03  0.00000000000E+00 0. -1.
         21   -1    0    0  502  503 -0.00000000000E+00 -0.00000000000E+00 -0.56177644534E+03  0.56177644534E+03  0.00000000000E+00 0.  1.
         -6    2    1    2    0  503 -0.89379156354E+02 -0.49331767263E+02 -0.42602659066E+03  0.47007512692E+03  0.17043976105E+03 0.  0.
        -24    2    3    3    0    0 -0.18042735875E+02  0.30562769356E+02 -0.25671071861E+03  0.26967059504E+03  0.74580249356E+02 0.  0.
          6    2    1    2  501    0  0.89379156354E+02  0.49331767263E+02 -0.25614413522E+02  0.20183675958E+03  0.17221998283E+03 0.  0.
         24    2    5    5    0    0  0.18232543746E+02  0.81076588331E+02  0.10168166431E+02  0.11597607487E+03  0.80257208449E+02 0.  0.
          5    1    5    5  501    0  0.71146612608E+02 -0.31744821068E+02 -0.35782579953E+02  0.85860684706E+02  0.47000000000E+01 0. -1.
        -13    1    6    6    0    0 -0.23091827792E+02  0.53973613262E+02 -0.14892872570E+02  0.60565510752E+02  0.00000000000E+00 0.  1.
         14    1    6    6    0    0  0.41324371538E+02  0.27102975069E+02  0.25061039001E+02  0.55410564122E+02  0.00000000000E+00 0. -1.
         -5    1    3    3    0  503 -0.71336420479E+02 -0.79894536618E+02 -0.16931587205E+03  0.20040453188E+03  0.47000000000E+01 0.  1.
         11    1    4    4    0    0 -0.42161399726E+02  0.16760126145E+02 -0.91410109045E+02  0.10205044581E+03  0.00000000000E+00 0. -1.
        -12    1    4    4    0    0  0.24118663851E+02  0.13802643210E+02 -0.16530060956E+03  0.16762014923E+03  0.00000000000E+00 0.  1.
</event>
<event>
12    1  0.8563264E-002  0.1732926E+03  0.7818608E-02  0.1175943E+00
         21   -1    0    0  501  502  0.00000000000E+00  0.00000000000E+00  0.26832714780E+03  0.26832714780E+03  0.00000000000E+00 0.  1.
         21   -1    0    0  502  503 -0.00000000000E+00 -0.00000000000E+00 -0.27448339959E+03  0.27448339959E+03  0.00000000000E+00 0.  1.
         -6    2    1    2    0  503 -0.10299189624E+02 -0.17626892962E+02 -0.21430459656E+03  0.27560257993E+03  0.17208585444E+03 0.  0.
        -24    2    3    3    0    0 -0.65752003796E+02 -0.24048637780E+02 -0.93128512730E+02  0.14210356609E+03  0.81356257466E+02 0.  0.
          6    2    1    2  501    0  0.10299189624E+02  0.17626892962E+02  0.20814834477E+03  0.26720796745E+03  0.16630569376E+03 0.  0.
         24    2    5    5    0    0  0.81204333791E+01 -0.41461270040E+02  0.18015365544E+03  0.20161871059E+03  0.80061142498E+02 0.  0.
          5    1    5    5  501    0  0.21787562452E+01  0.59088163002E+02  0.27994689326E+02  0.65589256866E+02  0.47000000000E+01 0. -1.
        -11    1    6    6    0    0  0.47578457555E+00  0.22109233793E+02  0.77852685143E+02  0.80932596485E+02  0.00000000000E+00 0.  1.
         12    1    6    6    0    0  0.76446488036E+01 -0.63570503833E+02  0.10230097030E+03  0.12068611410E+03  0.00000000000E+00 0. -1.
         -5    1    3    3    0  503  0.55452814172E+02  0.64217448176E+01 -0.12117608383E+03  0.13349901385E+03  0.47000000000E+01 0.  1.
         11    1    4    4    0    0  0.18227195900E+02 -0.37666589455E+01 -0.63855507423E+01  0.19677236804E+02  0.00000000000E+00 0. -1.
        -12    1    4    4    0    0 -0.83979199696E+02 -0.20281978834E+02 -0.86742961987E+02  0.12242632928E+03  0.00000000000E+00 0.  1.
</event>
<event>
12    1  0.8563264E-002  0.2260512E+03  0.7818608E-02  0.1130194E+00
         21   -1    0    0  503  502  0.00000000000E+00  0.00000000000E+00  0.12161840833E+04  0.12161840833E+04  0.00000000000E+00 0.  1.
         21   -1    0    0  501  503 -0.00000000000E+00 -0.00000000000E+00 -0.74537369928E+02  0.74537369928E+02  0.00000000000E+00 0.  1.
          6    2    1    2  501    0 -0.21353602836E+01  0.14683456017E+03  0.14249991857E+03  0.26721782504E+03  0.17185514656E+03 0.  0.
         24    2    3    3    0    0  0.25375544252E+02  0.16899639686E+03  0.12802604587E+03  0.22875251774E+03  0.82056965303E+02 0.  0.
         -6    2    1    2    0  502  0.21353602836E+01 -0.14683456017E+03  0.99914679481E+03  0.10235036282E+04  0.16643440613E+03 0.  0.
        -24    2    5    5    0    0 -0.23414275556E+02 -0.47682172887E+02  0.68459056505E+03  0.69266878802E+03  0.91126232436E+02 0.  0.
          5    1    3    3  501    0 -0.27510904535E+02 -0.22161836695E+02  0.14473872703E+02  0.38465307292E+02  0.47000000000E+01 0. -1.
        -11    1    4    4    0    0  0.47692056837E+02  0.92736904590E+02  0.10004530264E+03  0.14451203527E+03  0.00000000000E+00 0.  1.
         12    1    4    4    0    0 -0.22316512586E+02  0.76259492271E+02  0.27980743233E+02  0.84240482473E+02  0.00000000000E+00 0. -1.
         -5    1    5    5    0  502  0.25549635839E+02 -0.99152387279E+02  0.31455622977E+03  0.33083484018E+03  0.47000000000E+01 0.  1.
         13    1    6    6    0    0 -0.15963589856E+02  0.17303476595E+02  0.56884018844E+02  0.61563285351E+02  0.00000000000E+00 0. -1.
        -14    1    6    6    0    0 -0.74506856999E+01 -0.64985649482E+02  0.62770654620E+03  0.63110550267E+03  0.00000000000E+00 0.  1.
</event>
<event>
12    1  0.8563264E-002  0.2197690E+03  0.7818608E-02  0.1134304E+00
         21   -1    0    0  503  502  0.00000000000E+00  0.00000000000E+00  0.59858647496E+03  0.59858647496E+03  0.00000000000E+00 0.  1.
         21   -1    0    0  501  503 -0.00000000000E+00 -0.00000000000E+00 -0.11368956364E+03  0.11368956364E+03  0.00000000000E+00 0. -1.
          6    2    1    2  501    0  0.10264253482E+03 -0.87309268306E+02  0.48638663166E+02  0.22378889664E+03  0.17192251865E+03 0.  0.
         24    2    3    3    0    0  0.89253904506E+02 -0.10903297184E+03  0.81847160465E+02  0.18164546287E+03  0.80260003032E+02 0.  0.
         -6    2    1    2    0  502 -0.10264253482E+03  0.87309268306E+02  0.43625824815E+03  0.48848714197E+03  0.17360884338E+03 0.  0.
        -24    2    5    5    0    0 -0.76728375963E+02  0.11350109695E+03  0.23067954935E+03  0.27957987326E+03  0.78626384600E+02 0.  0.
          5    1    3    3  501    0  0.13388630311E+02  0.21723703536E+02 -0.33208497298E+02  0.42143433768E+02  0.47000000000E+01 0. -1.
        -13    1    4    4    0    0  0.37088442229E+02 -0.89671654750E+02  0.21176393517E+02  0.99322695568E+02  0.00000000000E+00 0.  1.
         14    1    4    4    0    0  0.52165462277E+02 -0.19361317092E+02  0.60670766948E+02  0.82322767301E+02  0.00000000000E+00 0. -1.
         -5    1    5    5    0  502 -0.25914158854E+02 -0.26191828648E+02  0.20557869881E+03  0.20890726871E+03  0.47000000000E+01 0.  1.
         11    1    6    6    0    0 -0.41973379129E+02  0.45987897997E+02  0.39153425850E+02  0.73550269024E+02  0.00000000000E+00 0. -1.
        -12    1    6    6    0    0 -0.34754996834E+02  0.67513198957E+02  0.19152612350E+03  0.20602960423E+03  0.00000000000E+00 0.  1.
</event>
<event>
12    1  0.8563264E-002  0.2416663E+03  0.7818608E-02  0.1118804E+00
         21   -1    0    0  503  502  0.00000000000E+00  0.00000000000E+00  0.19218621290E+03  0.19218621290E+03  0.00000000000E+00 0. -1.
         21   -1    0    0  501  503 -0.00000000000E+00 -0.00000000000E+00 -0.33729972156E+03  0.33729972156E+03  0.00000000000E+00 0. -1.
          6    2    1    2  501    0  0.82337775164E+02 -0.14772631573E+03 -0.15688664454E+03  0.28753301922E+03  0.17163695502E+03 0.  0.
         24    2    3    3    0    0 -0.93192080896E-01 -0.18800203251E+02 -0.50444809837E+02  0.10106918622E+03  0.85538559945E+02 0.  0.
         -6    2    1    2    0  502 -0.82337775164E+02  0.14772631573E+03  0.11773135881E+02  0.24195291524E+03  0.17262686027E+03 0.  0.
        -24    2    5    5    0    0 -0.61628538410E+02  0.12320885396E+03  0.72362463538E+02  0.17322784671E+03  0.76112169236E+02 0.  0.
          5    1    3    3  501    0  0.82430967245E+02 -0.12892611248E+03 -0.10644183471E+03  0.18646383300E+03  0.47000000000E+01 0. -1.
        -11    1    4    4    0    0 -0.55284590221E+01  0.21129167000E+02 -0.56263327090E+02  0.60353686984E+02  0.00000000000E+00 0.  1.
         12    1    4    4    0    0  0.54352669412E+01 -0.39929370251E+02  0.58185172535E+01  0.40715499240E+02  0.00000000000E+00 0. -1.
         -5    1    5    5    0  502 -0.20709236755E+02  0.24517461767E+02 -0.60589327657E+02  0.68725068530E+02  0.47000000000E+01 0.  1.
         13    1    6    6    0    0 -0.48477487188E+02  0.12846918905E+03  0.48779684236E+02  0.14571841646E+03  0.00000000000E+00 0. -1.
        -14    1    6    6    0    0 -0.13151051221E+02 -0.52603350895E+01  0.23582779301E+02  0.27509430257E+02  0.00000000000E+00 0.  1.
</event>
<event>
12    1  0.8563264E-002  0.2159531E+03  0.7818608E-02  0.1137909E+00
         21   -1    0    0  501  502  0.00000000000E+00  0.00000000000E+00  0.15848237422E+03  0.15848237422E+03  0.00000000000E+00 0. -1.
         21   -1    0    0  502  503 -0.00000000000E+00 -0.00000000000E+00 -0.31654534621E+03  0.31654534621E+03  0.00000000000E+00 0.  1.
         -6    2    1    2    0  503 -0.12060090472E+03 -0.26538720126E+01 -0.78750530739E+01  0.21609668311E+03  0.17912045873E+03 0.  0.
        -24    2    3    3    0    0 -0.23279254554E+02 -0.85094078791E+01  0.56251554160E+02  0.99305833098E+02  0.77994085845E+02 0.  0.
          6    2    1    2  501    0  0.12060090472E+03  0.26538720126E+01 -0.15018791891E+03  0.25893103733E+03  0.17302384185E+03 0.  0.
         24    2    5    5    0    0  0.13538608452E+03  0.30348977434E+02 -0.73523555297E+02  0.17595432340E+03  0.79396211657E+02 0.  0.
          5    1    5    5  501    0 -0.14785179803E+02 -0.27695105422E+02 -0.76664363616E+02  0.82976713931E+02  0.47000000000E+01 0. -1.
        -13    1    6    6    0    0  0.57990969115E+02  0.34872641480E+02 -0.71437534618E+02  0.98399059828E+02  0.00000000000E+00 0.  1.
         14    1    6    6    0    0  0.77395115404E+02 -0.45236640461E+01 -0.20860206788E+01  0.77555263568E+02  0.00000000000E+00 0. -1.
         -5    1    3    3    0  503 -0.97321650162E+02  0.58555358665E+01 -0.64126607234E+02  0.11679085001E+03  0.47000000000E+01 0.  1.
         11    1    4    4    0    0 -0.49866022155E+02 -0.12522658613E+02  0.22417959254E+02  0.56089232847E+02  0.00000000000E+00 0. -1.
        -12    1    4    4    0    0  0.26586767601E+02  0.40132507343E+01  0.33833594906E+02  0.43216600250E+02  0.00000000000E+00 0.  1.
</event>
<event>
12    1  0.8563264E-002  0.1755137E+03  0.7818608E-02  0.1172218E+00
         21   -1    0    0  503  502  0.00000000000E+00  0.00000000000E+00  0.10383010538E+04  0.10383010538E+04  0.00000000000E+00 0. -1.
         21   -1    0    0  501  503 -0.00000000000E+00 -0.00000000000E+00 -0.13332820495E+03  0.13332820495E+03  0.00000000000E+00 0. -1.
          6    2    1    2  501    0  0.12283251864E+02 -0.32881608576E+02 -0.64055963536E+02  0.18683390785E+03  0.17196413638E+03 0.  0.
         24    2    3    3    0    0 -0.96433529138E+01  0.46402997709E+02 -0.33213122326E+02  0.98855526160E+02  0.80144064695E+02 0.  0.
         -6    2    1    2    0  502 -0.12283251864E+02  0.32881608576E+02  0.96902881235E+03  0.98479535087E+03  0.17196791990E+03 0.  0.
        -24    2    5    5    0    0  0.58642214047E+02  0.10503122458E+02  0.60287990811E+03  0.61113999037E+03  0.80490243982E+02 0.  0.
          5    1    3    3  501    0  0.21926604778E+02 -0.79284606286E+02 -0.30842841210E+02  0.87978381691E+02  0.47000000000E+01 0. -1.
        -11    1    4    4    0    0  0.10263699271E+02  0.42603145449E+02  0.15190650574E+02  0.46380247840E+02  0.00000000000E+00 0.  1.
         12    1    4    4    0    0 -0.19907052184E+02  0.37998522605E+01 -0.48403772899E+02  0.52475278320E+02  0.00000000000E+00 0. -1.
         -5    1    5    5    0  502 -0.70925465911E+02  0.22378486118E+02  0.36614890424E+03  0.37365536050E+03  0.47000000000E+01 0.  1.
         11    1    6    6    0    0  0.49580772745E+02 -0.14850210941E+02  0.17705554916E+03  0.18446530644E+03  0.00000000000E+00 0. -1.
        -12    1    6    6    0    0  0.90614413020E+01  0.25353333399E+02  0.42582435894E+03  0.42667468392E+03  0.00000000000E+00 0.  1.
</event>
<event>
12    1  0.8563264E-002  0.2002003E+03  0.7818608E-02  0.1153003E+00
         21   -1    0    0  503  502  0.00000000000E+00  0.00000000000E+00  0.21486338200E+03  0.21486338200E+03  0.00000000000E+00 0.  1.
         21   -1    0    0  501  503 -0.00000000000E+00 -0.00000000000E+00 -0.17571926306E+03  0.17571926306E+03  0.00000000000E+00 0. -1.
          6    2    1    2  501    0 -0.97128402733E+02  0.33941820130E+02 -0.69389476664E+01  0.20032054899E+03  0.17173875387E+03 0.  0.
         24    2    3    3    0    0  0.41427596593E+01 -0.11314410187E+01  0.32106705123E+02  0.86159982323E+02  0.79838959310E+02 0.  0.
         -6    2    1    2    0  502  0.97128402733E+02 -0.33941820130E+02  0.46083066612E+02  0.19026209607E+03  0.15326461562E+03 0.  0.
        -24    2    5    5    0    0  0.10572706305E+03  0.11479226886E+02  0.12402333897E+02  0.13287315787E+03  0.78685917963E+02 0.  0.
          5    1    3    3  501    0 -0.10127116239E+03  0.35073261149E+02 -0.39045652789E+02  0.11416056667E+03  0.47000000000E+01 0. -1.
        -11    1    4    4    0    0  0.32522498478E+02  0.86665491173E+01 -0.93883771795E+01  0.34942289663E+02  0.00000000000E+00 0.  1.
         12    1    4    4    0    0 -0.28379738819E+02 -0.97979901360E+01  0.41495082302E+02  0.51217692660E+02  0.00000000000E+00 0. -1.
         -5    1    5    5    0  502 -0.85986603145E+01 -0.45421047016E+02  0.33680732715E+02  0.57388938198E+02  0.47000000000E+01 0.  1.
         11    1    6    6    0    0  0.54961941956E+02  0.31575209595E+02 -0.23417746333E+02  0.67573661791E+02  0.00000000000E+00 0. -1.
        -12    1    6    6    0    0  0.50765121092E+02 -0.20095982709E+02  0.35820080229E+02  0.65299496079E+02  0.00000000000E+00 0.  1.
</event>
<event>
12    1  0.8563264E-002  0.2056512E+03  0.7818608E-02  0.1145294E+00
         21   -1    0    0  503  502  0.00000000000E+00  0.00000000000E+00  0.17223028102E+03  0.17223028102E+03  0.00000000000E+00 0. -1.
         21   -1    0    0  501  503 -0.00000000000E+00 -0.00000000000E+00 -0.46058879662E+03  0.46058879662E+03  0.00000000000E+00 0. -1.
          6    2    1    2  501    0  0.65787360817E+02 -0.89687646182E+02 -0.36128490697E+03  0.41571530632E+03  0.17297566645E+03 0.  0.
         24    2    3    3    0    0  0.50160292152E+02  0.13336433966E+02 -0.21753859475E+03  0.23811108722E+03  0.81730864870E+02 0.  0.
         -6    2    1    2    0  502 -0.65787360817E+02  0.89687646182E+02  0.72926391360E+02  0.21710377132E+03  0.17159236069E+03 0.  0.
        -24    2    5    5    0    0 -0.32771470855E+02  0.11040767497E+03  0.97698617396E+02  0.17068048228E+03  0.79517188063E+02 0.  0.
          5    1    3    3  501    0  0.15627068665E+02 -0.10302408015E+03 -0.14374631222E+03  0.17760421910E+03  0.47000000000E+01 0. -1.
        -11    1    4    4    0    0  0.54897338417E+02 -0.22135530408E+01 -0.66770334428E+02  0.86469041523E+02  0.00000000000E+00 0.  1.
         12    1    4    4    0    0 -0.47370462643E+01  0.15549987007E+02 -0.15076826032E+03  0.15164204570E+03  0.00000000000E+00 0. -1.
         -5    1    5    5    0  502 -0.33015889962E+02 -0.20720028784E+02 -0.24772226036E+02  0.46423289043E+02  0.47000000000E+01 0.  1.
         13    1    6    6    0    0 -0.59139466583E+02  0.69171615537E+02  0.63287968381E+02  0.11084924829E+03  0.00000000000E+00 0. -1.
        -14    1    6    6    0    0  0.26367995727E+02  0.41236059429E+02  0.34410649015E+02  0.59831233996E+02  0.00000000000E+00 0.  1.
</event>
<event>
12    1  0.8563264E-002  0.1874011E+03  0.7818608E-02  0.1161216E+00
         21   -1    0    0  503  502  0.00000000000E+00  0.00000000000E+00  0.62498084044E+03  0.62498084044E+03  0.00000000000E+00 0.  1.
         21   -1    0    0  501  503 -0.00000000000E+00 -0.00000000000E+00 -0.65781800566E+02  0.65781800566E+02  0.00000000000E+00 0.  1.
          6    2    1    2  501    0  0.73444521669E+02  0.72702304497E+01  0.14323653354E+03  0.23453464187E+03  0.17041959887E+03 0.  0.
         24    2    3    3    0    0 -0.23009887209E+02 -0.18531065844E+01  0.96347301932E+02  0.12679709822E+03  0.79131615763E+02 0.  0.
         -6    2    1    2    0  502 -0.73444521669E+02 -0.72702304497E+01  0.41596250633E+03  0.45622799914E+03  0.17225628149E+03 0.  0.
        -24    2    5    5    0    0 -0.36052484107E+02 -0.54731412171E+02  0.14144856396E+03  0.17510396460E+03  0.79739532740E+02 0.  0.
          5    1    3    3  501    0  0.96454408877E+02  0.91233370341E+01  0.46889231612E+02  0.10773754365E+03  0.47000000000E+01 0. -1.
        -13    1    4    4    0    0 -0.69640641018E+01 -0.27270840114E+02  0.25038527354E+01  0.28257144015E+02  0.00000000000E+00 0.  1.
         14    1    4    4    0    0 -0.16045823107E+02  0.25417733530E+02  0.93843449197E+02  0.98539954202E+02  0.00000000000E+00 0. -1.
         -5    1    5    5    0  502 -0.37392037562E+02  0.47461181722E+02  0.27451394237E+03  0.28112403454E+03  0.47000000000E+01 0.  1.
         13    1    6    6    0    0 -0.33353424757E+02 -0.91195985476E+01  0.10081291918E+02  0.36017363416E+02  0.00000000000E+00 0. -1.
        -14    1    6    6    0    0 -0.26990593497E+01 -0.45611813624E+02  0.13136727204E+03  0.13908660118E+03  0.00000000000E+00 0.  1.
</event>
<event>
12    1  0.8563264E-002  0.1954408E+03  0.7818608E-02  0.1153838E+00
         21   -1    0    0  501  502  0.00000000000E+00  0.00000000000E+00  0.31565293556E+04  0.31565293556E+04  0.00000000000E+00 0.  1.
         21   -1    0    0  502  503 -0.00000000000E+00 -0.00000000000E+00 -0.26638728067E+02  0.26638728067E+02  0.00000000000E+00 0.  1.
         -6    2    1    2    0  503 -0.33630284819E+02  0.86707587209E+02  0.38533683796E+03  0.43166438348E+03  0.17088141954E+03 0.  0.
        -24    2    3    3    0    0  0.48640400135E+00  0.10406381438E+03  0.36515815294E+03  0.38813902988E+03  0.80510345950E+02 0.  0.
          6    2    1    2  501    0  0.33630284819E+02 -0.86707587209E+02  0.27445537896E+04  0.27515037002E+04  0.17189504504E+03 0.  0.
         24    2    5    5    0    0 -0.33731637284E+02 -0.45145763333E+02  0.20006058927E+04  0.20033422357E+04  0.88205509543E+02 0.  0.
          5    1    5    5  501    0  0.67361922103E+02 -0.41561823876E+02  0.74394789689E+03  0.74816146456E+03  0.47000000000E+01 0. -1.
        -13    1    6    6    0    0  0.21758345872E+01 -0.54644019336E+02  0.16213216161E+04  0.16222436580E+04  0.00000000000E+00 0.  1.
         14    1    6    6    0    0 -0.35907471871E+02  0.94982560034E+01  0.37928427661E+03  0.38109857765E+03  0.00000000000E+00 0. -1.
         -5    1    3    3    0  503 -0.34116688820E+02 -0.17356227168E+02  0.20178685021E+02  0.43525353608E+02  0.47000000000E+01 0.  1.
         11    1    4    4    0    0 -0.21277587498E+02  0.10461498286E+03  0.32947102338E+03  0.34633536581E+03  0.00000000000E+00 0. -1.
        -12    1    4    4    0    0  0.21763991499E+02 -0.55116848604E+00  0.35687129562E+02  0.41803664062E+02  0.00000000000E+00 0.  1.
</event>
<event>
12    1  0.8563264E-002  0.3189459E+03  0.7818608E-02  0.1076262E+00
         21   -1    0    0  501  502  0.00000000000E+00  0.00000000000E+00  0.17553068414E+03  0.17553068414E+03  0.00000000000E+00 0.  1.
         21   -1    0    0  502  503 -0.00000000000E+00 -0.00000000000E+00 -0.94200095103E+03  0.94200095103E+03  0.00000000000E+00 0. -1.
         -6    2    1    2    0  503 -0.84596655113E+01 -0.26810307398E+03 -0.73119112438E+03  0.79772612168E+03  0.17255631148E+03 0.  0.
        -24    2    3    3    0    0 -0.90949252524E+01 -0.27409334153E+03 -0.73541912432E+03  0.78899383425E+03  0.80374775405E+02 0.  0.
          6    2    1    2  501    0  0.84596655113E+01  0.26810307398E+03 -0.35279142507E+02  0.31980551349E+03  0.17052895457E+03 0.  0.
         24    2    5    5    0    0 -0.33022436343E+01  0.26941746427E+03  0.12808344667E+01  0.28109127780E+03  0.80087396329E+02 0.  0.
          5    1    5    5  501    0  0.11761909146E+02 -0.13143902962E+01 -0.36559976974E+02  0.38714235688E+02  0.47000000000E+01 0. -1.
        -13    1    6    6    0    0  0.29888477511E+02  0.99469927186E+02  0.23570586989E+02  0.10650427256E+03  0.00000000000E+00 0.  1.
         14    1    6    6    0    0 -0.33190721145E+02  0.16994753709E+03 -0.22289752523E+02  0.17458700524E+03  0.00000000000E+00 0. -1.
         -5    1    3    3    0  503  0.63525974108E+00  0.59902675562E+01  0.42279999464E+01  0.87322874369E+01  0.47000000000E+01 0.  1.
         13    1    4    4    0    0 -0.23843298011E+02 -0.88422851662E+02 -0.16213128573E+03  0.18620863935E+03  0.00000000000E+00 0. -1.
        -14    1    4    4    0    0  0.14748372759E+02 -0.18567048987E+03 -0.57328783860E+03  0.60278519490E+03  0.00000000000E+00 0.  1.
</event>
<event>
12    1  0.8563264E-002  0.2195611E+03  0.7818608E-02  0.1136102E+00
         21   -1    0    0  501  502  0.00000000000E+00  0.00000000000E+00  0.40656253073E+03  0.40656253073E+03  0.00000000000E+00 0.  1.
         21   -1    0    0  502  503 -0.00000000000E+00 -0.00000000000E+00 -0.60087888998E+03  0.60087888998E+03  0.00000000000E+00 0. -1.
         -6    2    1    2    0  503  0.12853202384E+03  0.42974500236E+02 -0.55046632012E+03  0.58905179087E+03  0.16000485593E+03 0.  0.
        -24    2    3    3    0    0  0.43824182967E+02 -0.19206569018E+02 -0.16560150154E+03  0.19007193892E+03  0.80087660401E+02 0.  0.
          6    2    1    2  501    0 -0.12853202384E+03 -0.42974500236E+02  0.35614996086E+03  0.41838962984E+03  0.17274200101E+03 0.  0.
         24    2    5    5    0    0 -0.12792735933E+03 -0.68856345733E+01  0.16408878023E+03  0.22290981260E+03  0.79692129648E+02 0.  0.
          5    1    5    5  501    0 -0.60466451620E+00 -0.36088865663E+02  0.19206118063E+03  0.19547981724E+03  0.47000000000E+01 0. -1.
        -13    1    6    6    0    0 -0.43239242005E+01 -0.15772842173E+02  0.56435093387E+02  0.58757115623E+02  0.00000000000E+00 0.  1.
         14    1    6    6    0    0 -0.12360343512E+03  0.88872075995E+01  0.10765368685E+03  0.16415269698E+03  0.00000000000E+00 0. -1.
         -5    1    3    3    0  503  0.84707840874E+02  0.62181069254E+02 -0.38486481858E+03  0.39897985195E+03  0.47000000000E+01 0.  1.
         13    1    4    4    0    0 -0.44421680791E+00 -0.20222015835E+02 -0.13437488887E+03  0.13588869715E+03  0.00000000000E+00 0. -1.
        -14    1    4    4    0    0  0.44268399775E+02  0.10154468169E+01 -0.31226612666E+02  0.54183241777E+02  0.00000000000E+00 0.  1.
</event>
<event>
12    1  0.8563264E-002  0.1852051E+03  0.7818608E-02  0.1163140E+00
         21   -1    0    0  503  502  0.00000000000E+00  0.00000000000E+00  0.99862130547E+02  0.99862130547E+02  0.00000000000E+00 0. -1.
         21   -1    0    0  501  503 -0.00000000000E+00 -0.00000000000E+00 -0.35404303522E+03  0.35404303522E+03  0.00000000000E+00 0.  1.
          6    2    1    2  501    0  0.26745810013E+02 -0.64751168275E+02 -0.17061620556E+03  0.25181508351E+03  0.17144356078E+03 0.  0.
         24    2    3    3    0    0 -0.24442763354E+02 -0.47089513843E+02 -0.17256225890E+03  0.19742683842E+03  0.79904645258E+02 0.  0.
         -6    2    1    2    0  502 -0.26745810013E+02  0.64751168275E+02 -0.83564699111E+02  0.20209008226E+03  0.17014490961E+03 0.  0.
        -24    2    5    5    0    0 -0.21871757135E+02  0.43363433168E+02  0.20695344044E+02  0.95443759292E+02  0.79513853047E+02 0.  0.
          5    1    3    3  501    0  0.51188573366E+02 -0.17661654432E+02  0.19460533415E+01  0.54388245092E+02  0.47000000000E+01 0. -1.
        -11    1    4    4    0    0 -0.44088498224E+02 -0.42055627707E+01 -0.11353560207E+03  0.12186802440E+03  0.00000000000E+00 0.  1.
         12    1    4    4    0    0  0.19645734871E+02 -0.42883951072E+02 -0.59026656834E+02  0.75558814014E+02  0.00000000000E+00 0. -1.
         -5    1    5    5    0  502 -0.48740528774E+01  0.21387735106E+02 -0.10426004316E+03  0.10664632297E+03  0.47000000000E+01 0.  1.
         11    1    6    6    0    0 -0.50517342771E+01  0.65300264162E+02  0.13361440116E+02  0.66844390945E+02  0.00000000000E+00 0. -1.
        -12    1    6    6    0    0 -0.16820022858E+02 -0.21936830994E+02  0.73339039281E+01  0.28599368347E+02  0.00000000000E+00 0.  1.
</event>
<event>
12    1  0.8563264E-002  0.1887882E+03  0.7818608E-02  0.1160343E+00
         21   -1    0    0  503  502  0.00000000000E+00  0.00000000000E+00  0.14054141710E+04  0.14054141710E+04  0.00000000000E+00 0. -1.
         21   -1    0    0  501  503 -0.00000000000E+00 -0.00000000000E+00 -0.61047725110E+02  0.61047725110E+02  0.00000000000E+00 0. -1.
          6    2    1    2  501    0  0.40933776145E+01  0.78372159249E+02  0.11050216587E+03  0.21875031415E+03  0.17170329115E+03 0.  0.
         24    2    3    3    0    0 -0.15981548900E+02  0.11674111101E+03  0.98875412689E+02  0.17366760656E+03  0.80623777062E+02 0.  0.
         -6    2    1    2    0  502 -0.40933776145E+01 -0.78372159249E+02  0.12338642800E+04  0.12477115820E+04  0.16794099905E+03 0.  0.
        -24    2    5    5    0    0  0.33188598430E+02 -0.10695343642E+03  0.91835469346E+03  0.92868928751E+03  0.80919275301E+02 0.  0.
          5    1    3    3  501    0  0.20074926514E+02 -0.38368951765E+02  0.11626753182E+02  0.45082707590E+02  0.47000000000E+01 0. -1.
        -11    1    4    4    0    0  0.18046813836E+02  0.11609842873E+01  0.29597986279E+02  0.34685388364E+02  0.00000000000E+00 0.  1.
         12    1    4    4    0    0 -0.34028362736E+02  0.11558012673E+03  0.69277426410E+02  0.13898221820E+03  0.00000000000E+00 0. -1.
         -5    1    5    5    0  502 -0.37281976044E+02  0.28581277172E+02  0.31550958656E+03  0.31902229445E+03  0.47000000000E+01 0.  1.
         13    1    6    6    0    0 -0.52554191520E+01 -0.22020365054E+02  0.47984612720E+03  0.48037987228E+03  0.00000000000E+00 0. -1.
        -14    1    6    6    0    0  0.38444017582E+02 -0.84933071367E+02  0.43850856626E+03  0.44830941523E+03  0.00000000000E+00 0.  1.
</event>
<event>
12    1  0.8563264E-002  0.2173048E+03  0.7818608E-02  0.1136117E+00
         21   -1    0    0  503  502  0.00000000000E+00  0.00000000000E+00  0.28443266755E+03  0.28443266755E+03  0.00000000000E+00 0. -1.
         21   -1    0    0  501  503 -0.00000000000E+00 -0.00000000000E+00 -0.64549590397E+03  0.64549590397E+03  0.00000000000E+00 0.  1.
          6    2    1    2  501    0  0.58786993904E+02  0.11609499857E+03 -0.58149828285E+03  0.62039183948E+03  0.17266100368E+03 0.  0.
         24    2    3    3    0    0  0.87361786847E+02  0.10703987151E+03 -0.56223994565E+03  0.58445456538E+03  0.79898476985E+02 0.  0.
         -6    2    1    2    0  502 -0.58786993904E+02 -0.11609499857E+03  0.22043504643E+03  0.30953673204E+03  0.17403281140E+03 0.  0.
        -24    2    5    5    0    0 -0.65005926534E+02 -0.15000226485E+03  0.17781028752E+03  0.25451548249E+03  0.80219589479E+02 0.  0.
          5    1    3    3  501    0 -0.28574792943E+02  0.90551270550E+01 -0.19258337207E+02  0.35937274099E+02  0.47000000000E+01 0. -1.
        -13    1    4    4    0    0  0.10135102469E+02  0.49873026529E+02 -0.31708277714E+03  0.32114097627E+03  0.00000000000E+00 0.  1.
         14    1    4    4    0    0  0.77226684378E+02  0.57166844982E+02 -0.24515716850E+03  0.26331358912E+03  0.00000000000E+00 0. -1.
         -5    1    5    5    0  502  0.62189326303E+01  0.33907266281E+02  0.42624758907E+02  0.55021249546E+02  0.47000000000E+01 0.  1.
         11    1    6    6    0    0 -0.25779828487E+02 -0.80135426353E+02  0.35833462704E+02  0.91489470230E+02  0.00000000000E+00 0. -1.
        -12    1    6    6    0    0 -0.39226098047E+02 -0.69866838495E+02  0.14197682482E+03  0.16302601226E+03  0.00000000000E+00 0.  1.
</event>
<event>
12    1  0.8563264E-002  0.2025287E+03  0.7818608E-02  0.1148286E+00
         21   -1    0    0  503  502  0.00000000000E+00  0.00000000000E+00  0.61535485072E+02  0.61535485072E+02  0.00000000000E+00 0. -1.
         21   -1    0    0  501  503 -0.00000000000E+00 -0.00000000000E+00 -0.22530753910E+04  0.22530753910E+04  0.00000000000E+00 0. -1.
          6    2    1    2  501    0 -0.76299423286E+02 -0.66505651280E+02 -0.20675561068E+04  0.20771454153E+04  0.17175627421E+03 0.  0.
         24    2    3    3    0    0  0.16095902518E+02 -0.29798415683E+02 -0.13092818391E+04  0.13123668379E+04  0.83311219527E+02 0.  0.
         -6    2    1    2    0  502  0.76299423286E+02  0.66505651280E+02 -0.12398379908E+03  0.23746546076E+03  0.17542308564E+03 0.  0.
        -24    2    5    5    0    0  0.68204738234E+02 -0.19442036433E+02 -0.10202359560E+03  0.14826417441E+03  0.80892349798E+02 0.  0.
          5    1    3    3  501    0 -0.92395325803E+02 -0.36707235597E+02 -0.75827426770E+03  0.76477857739E+03  0.47000000000E+01 0. -1.
        -13    1    4    4    0    0 -0.28347648264E+02  0.86066061137E+01 -0.56186565597E+03  0.56264613940E+03  0.00000000000E+00 0.  1.
         14    1    4    4    0    0  0.44443550782E+02 -0.38405021797E+02 -0.74741618316E+03  0.74972069849E+03  0.00000000000E+00 0. -1.
         -5    1    5    5    0  502  0.80946850514E+01  0.85947687713E+02 -0.21960203472E+02  0.89201286346E+02  0.47000000000E+01 0.  1.
         13    1    6    6    0    0  0.42078794215E+02  0.32415284889E+01 -0.18059628878E+01  0.42242087205E+02  0.00000000000E+00 0. -1.
        -14    1    6    6    0    0  0.26125944020E+02 -0.22683564922E+02 -0.10021763272E+03  0.10602208721E+03  0.00000000000E+00 0.  1.
</event>
<event>
12    1  0.8563264E-002  0.2551000E+03  0.7818608E-02  0.1110550E+00
         21   -1    0    0  501  502  0.00000000000E+00  0.00000000000E+00  0.20159418771E+03  0.20159418771E+03  0.00000000000E+00 0.  1.
         21   -1    0    0  502  503 -0.00000000000E+00 -0.00000000000E+00 -0.33138015731E+03  0.33138015731E+03  0.00000000000E+00 0. -1.
         -6    2    1    2    0  503  0.18158672425E+03 -0.20546143212E+02 -0.11605215786E+03  0.28025718951E+03  0.17798906288E+03 0.  0.
        -24    2    3    3    0    0  0.95856367934E+02  0.37054106189E+02 -0.12056043997E+03  0.17676855568E+03  0.78427371057E+02 0.  0.
          6    2    1    2  501    0 -0.18158672425E+03  0.20546143212E+02 -0.13733811746E+02  0.25271715551E+03  0.17401569090E+03 0.  0.
         24    2    5    5    0    0 -0.87108583380E+02 -0.14160542378E+02  0.53646652589E+02  0.13150292326E+03  0.81404110658E+02 0.  0.
          5    1    5    5  501    0 -0.94478140867E+02  0.34706685590E+02 -0.67380464335E+02  0.12121423225E+03  0.47000000000E+01 0. -1.
        -11    1    6    6    0    0 -0.34652037179E+02 -0.40962132360E+02  0.48579829797E+02  0.72378586828E+02  0.00000000000E+00 0.  1.
         12    1    6    6    0    0 -0.52456546201E+02  0.26801589982E+02  0.50668227924E+01  0.59124336429E+02  0.00000000000E+00 0. -1.
         -5    1    3    3    0  503  0.85730356313E+02 -0.57600249401E+02  0.45082821117E+01  0.10348863383E+03  0.47000000000E+01 0.  1.
         13    1    4    4    0    0 -0.31967241003E+01 -0.15516783119E+02 -0.75044769032E+01  0.17530167624E+02  0.00000000000E+00 0. -1.
        -14    1    4    4    0    0  0.99053092035E+02  0.52570889308E+02 -0.11305596307E+03  0.15923838805E+03  0.00000000000E+00 0.  1.
</event>
<event>
12    1  0.8563264E-002  0.2058750E+03  0.7818608E-02  0.1145435E+00
         21   -1    0    0  503  502  0.00000000000E+00  0.00000000000E+00  0.39762382900E+03  0.39762382900E+03  0.00000000000E+00 0.  1.
         21   -1    0    0  501  503 -0.00000000000E+00 -0.00000000000E+00 -0.25897362566E+03  0.25897362566E+03  0.00000000000E+00 0.  1.
          6    2    1    2  501    0  0.80097829589E+02  0.74714089827E+02 -0.18347758095E+03  0.27576901907E+03  0.17431773186E+03 0.  0.
         24    2    3    3    0    0  0.26104835638E+02 -0.11021143184E+02 -0.26393881871E+02  0.88784655837E+02  0.79894618537E+02 0.  0.
         -6    2    1    2    0  502 -0.80097829589E+02 -0.74714089827E+02  0.32212778430E+03  0.38082843559E+03  0.17107346495E+03 0.  0.
        -24    2    5    5    0    0 -0.53329982186E+02  0.23818779269E+02  0.19059604889E+03  0.21425133222E+03  0.78519795336E+02 0.  0.
          5    1    3    3  501    0  0.53992993951E+02  0.85735233011E+02 -0.15708369908E+03  0.18698436323E+03  0.47000000000E+01 0. -1.
        -13    1    4    4    0    0 -0.22431747552E+02  0.13161716550E+02 -0.22547563393E+02  0.34421021131E+02  0.00000000000E+00 0.  1.
         14    1    4    4    0    0  0.48536583189E+02 -0.24182859734E+02 -0.38463184785E+01  0.54363634706E+02  0.00000000000E+00 0. -1.
         -5    1    5    5    0  502 -0.26767847403E+02 -0.98532869096E+02  0.13153173542E+03  0.16657710337E+03  0.47000000000E+01 0.  1.
         11    1    6    6    0    0 -0.12953738839E+01  0.18910727407E+02  0.26088453278E+01  0.19133731432E+02  0.00000000000E+00 0. -1.
        -12    1    6    6    0    0 -0.52034608302E+02  0.49080518622E+01  0.18798720356E+03  0.19511760078E+03  0.00000000000E+00 0.  1.
</event>
<event>
12    1  0.8563264E-002  0.1743354E+03  0.7818608E-02  0.1173950E+00
         21   -1    0    0  501  502  0.00000000000E+00  0.00000000000E+00  0.33356221234E+03  0.33356221234E+03  0.00000000000E+00 0. -1.
         21   -1    0    0  502  503 -0.00000000000E+00 -0.00000000000E+00 -0.10052433586E+03  0.10052433586E+03  0.00000000000E+00 0. -1.
         -6    2    1    2    0  503  0.41246166909E+00  0.12909029784E+02  0.46905361294E+02  0.18053512687E+03  0.17385627956E+03 0.  0.
        -24    2    3    3    0    0 -0.34650641914E+02 -0.32783007672E+02  0.71351427729E+02  0.11779053600E+03  0.80673363348E+02 0.  0.
          6    2    1    2  501    0 -0.41246166909E+00 -0.12909029784E+02  0.18613251519E+03  0.25355142133E+03  0.17168633281E+03 0.  0.
         24    2    5    5    0    0  0.31794790891E+02 -0.66044021211E+02  0.10337598919E+03  0.14995910971E+03  0.80177415635E+02 0.  0.
          5    1    5    5  501    0 -0.32207252560E+02  0.53134991427E+02  0.82756526000E+02  0.10359231162E+03  0.47000000000E+01 0. -1.
        -11    1    6    6    0    0  0.37361550604E+02 -0.73925808501E+02  0.11040401595E+03  0.13802158297E+03  0.00000000000E+00 0.  1.
         12    1    6    6    0    0 -0.55667597129E+01  0.78817872903E+01 -0.70280267607E+01  0.11937526743E+02  0.00000000000E+00 0. -1.
         -5    1    3    3    0  503  0.35063103583E+02  0.45692037456E+02 -0.24446066435E+02  0.62744590874E+02  0.47000000000E+01 0.  1.
         11    1    4    4    0    0 -0.13029155204E+02 -0.25166421685E+02 -0.12418468201E+02  0.30940685484E+02  0.00000000000E+00 0. -1.
        -12    1    4    4    0    0 -0.21621486711E+02 -0.76165859866E+01  0.83769895930E+02  0.86849850511E+02  0.00000000000E+00 0.  1.
</event>
<event>
12    1  0.8563264E-002  0.2062731E+03  0.7818608E-02  0.1144942E+00
         21   -1    0    0  501  502  0.00000000000E+00  0.00000000000E+00  0.10032905654E+03  0.10032905654E+03  0.00000000000E+00 0. -1.
         21   -1    0    0  502  503 -0.00000000000E+00 -0.00000000000E+00 -0.47626365055E+03  0.47626365055E+03  0.00000000000E+00 0. -1.
         -6    2    1    2    0  503  0.18877664629E+00 -0.11347172115E+03 -0.88241111246E+02  0.22259251989E+03  0.16995607980E+03 0.  0.
        -24    2    3    3    0    0 -0.65708255099E+02 -0.66821399991E+02 -0.61794915791E+02  0.13750337540E+03  0.79409648933E+02 0.  0.
          6    2    1    2  501    0 -0.18877664629E+00  0.11347172115E+03 -0.28769348277E+03  0.35400018720E+03  0.17225772951E+03 0.  0.
         24    2    5    5    0    0 -0.25688452120E+02  0.19754549223E+01 -0.15334822975E+03  0.17749979672E+03  0.85596140533E+02 0.  0.
          5    1    5    5  501    0  0.25499675474E+02  0.11149626623E+03 -0.13434525302E+03  0.17650039048E+03  0.47000000000E+01 0. -1.
        -13    1    6    6    0    0 -0.43720453858E+02  0.17055291339E+02 -0.39769255156E+02  0.61513857820E+02  0.00000000000E+00 0.  1.
         14    1    6    6    0    0  0.18032001738E+02 -0.15079836417E+02 -0.11357897459E+03  0.11598593890E+03  0.00000000000E+00 0. -1.
         -5    1    3    3    0  503  0.65897031745E+02 -0.46650321157E+02 -0.26446195455E+02  0.85089144495E+02  0.47000000000E+01 0.  1.
         13    1    4    4    0    0 -0.79346408945E+02 -0.57332316901E+02 -0.31296650055E+02  0.10277318463E+03  0.00000000000E+00 0. -1.
        -14    1    4    4    0    0  0.13638153846E+02 -0.94890830906E+01 -0.30498265737E+02  0.34730190773E+02  0.00000000000E+00 0.  1.
</event>
<event>
12    1  0.8563264E-002  0.2804863E+03  0.7818608E-02  0.1095488E+00
         21   -1    0    0  503  502  0.00000000000E+00  0.00000000000E+00  0.49293074021E+03  0.49293074021E+03  0.00000000000E+00 0.  1.
         21   -1    0    0  501  503 -0.00000000000E+00 -0.00000000000E+00 -0.17256055388E+03  0.17256055388E+03  0.00000000000E+00 0.  1.
          6    2    1    2  501    0  0.19045651397E+03 -0.11306995778E+03  0.25218079103E+03  0.37683516526E+03  0.17132160211E+03 0.  0.
         24    2    3    3    0    0  0.13488955821E+03 -0.69350228069E+02  0.25300518344E+03  0.30597000484E+03  0.81248839796E+02 0.  0.
         -6    2    1    2    0  502 -0.19045651397E+03  0.11306995778E+03  0.68189395298E+02  0.28865612883E+03  0.17208738482E+03 0.  0.
        -24    2    5    5    0    0 -0.94884320960E+02  0.91690563961E+01 -0.15596729810E+02  0.12442566227E+03  0.78430743277E+02 0.  0.
          5    1    3    3  501    0  0.55566955756E+02 -0.43719729714E+02 -0.82439241206E+00  0.70865160418E+02  0.47000000000E+01 0. -1.
        -11    1    4    4    0    0  0.44666121290E+02 -0.21229486404E+02  0.16097448692E+03  0.16839993742E+03  0.00000000000E+00 0.  1.
         12    1    4    4    0    0  0.90223436923E+02 -0.48120741665E+02  0.92030696519E+02  0.13757006742E+03  0.00000000000E+00 0. -1.
         -5    1    5    5    0  502 -0.95572193009E+02  0.10390090139E+03  0.83786125108E+02  0.16423046656E+03  0.47000000000E+01 0.  1.
         13    1    6    6    0    0 -0.84082896925E+02  0.27141591427E+02  0.12640205316E+02  0.89254547957E+02  0.00000000000E+00 0. -1.
        -14    1    6    6    0    0 -0.10801424035E+02 -0.17972535031E+02 -0.28236935127E+02  0.35171114312E+02  0.00000000000E+00 0.  1.
</event>
<event>
12    1  0.8563264E-002  0.1802332E+03  0.7818608E-02  0.1168170E+00
         21   -1    0    0  501  502  0.00000000000E+00  0.00000000000E+00  0.46119350138E+02  0.46119350138E+02  0.00000000000E+00 0. -1.
         21   -1    0    0  502  503 -0.00000000000E+00 -0.00000000000E+00 -0.13297998433E+04  0.13297998433E+04  0.00000000000E+00 0. -1.
         -6    2    1    2    0  503  0.10483684248E+02 -0.50404070470E+02 -0.11149281689E+04  0.11290156332E+04  0.17017931793E+03 0.  0.
        -24    2    3    3    0    0  0.85705228763E+01 -0.39241938411E+01 -0.10222316590E+04  0.10251947679E+04  0.77316844069E+02 0.  0.
          6    2    1    2  501    0 -0.10483684248E+02  0.50404070470E+02 -0.16875232427E+03  0.24690356024E+03  0.17272389284E+03 0.  0.
         24    2    5    5    0    0  0.17520967424E+02  0.12642492545E+02 -0.18020752706E+03  0.19828762711E+03  0.79852447310E+02 0.  0.
          5    1    5    5  501    0 -0.28004651672E+02  0.37761577925E+02  0.11455202791E+02  0.48615933125E+02  0.47000000000E+01 0. -1.
        -11    1    6    6    0    0 -0.25577012518E+02 -0.24830102094E+01 -0.11997115318E+03  0.12269240606E+03  0.00000000000E+00 0.  1.
         12    1    6    6    0    0  0.43097979942E+02  0.15125502754E+02 -0.60236373877E+02  0.75595221056E+02  0.00000000000E+00 0. -1.
         -5    1    3    3    0  503  0.19131613718E+01 -0.46479876629E+02 -0.92696509923E+02  0.10382086529E+03  0.47000000000E+01 0.  1.
         11    1    4    4    0    0  0.33553291352E+02  0.19857379172E+02 -0.36923587436E+03  0.37128866099E+03  0.00000000000E+00 0. -1.
        -12    1    4    4    0    0 -0.24982768475E+02 -0.23781573013E+02 -0.65299578464E+03  0.65390610694E+03  0.00000000000E+00 0.  1.
</event>
<event>
12    1  0.8563264E-002  0.3296394E+03  0.7818608E-02  0.1071404E+00
         21   -1    0    0  503  502  0.00000000000E+00  0.00000000000E+00  0.96983219972E+03  0.96983219972E+03  0.00000000000E+00 0. -1.
         21   -1    0    0  501  503 -0.00000000000E+00 -0.00000000000E+00 -0.11202582415E+03  0.11202582415E+03  0.00000000000E+00 0.  1.
          6    2    1    2  501    0 -0.27647938007E+03 -0.45447487550E+02  0.40097406328E+03  0.51907834122E+03  0.17365426333E+03 0.  0.
         24    2    3    3    0    0 -0.19198594948E+03 -0.64026322224E+02  0.36567924230E+03  0.42552553635E+03  0.79954356390E+02 0.  0.
         -6    2    1    2    0  502  0.27647938007E+03  0.45447487550E+02  0.45683231228E+03  0.56277968265E+03  0.17181061646E+03 0.  0.
        -24    2    5    5    0    0  0.25712015898E+03 -0.58674856188E+01  0.39536552152E+03  0.48026748792E+03  0.90541486632E+02 0.  0.
          5    1    3    3  501    0 -0.84493430589E+02  0.18578834674E+02  0.35294820986E+02  0.93552804869E+02  0.47000000000E+01 0. -1.
        -13    1    4    4    0    0 -0.12083362072E+02 -0.25455304253E+02  0.88169173066E+02  0.92562320804E+02  0.00000000000E+00 0.  1.
         14    1    4    4    0    0 -0.17990258741E+03 -0.38571017971E+02  0.27751006923E+03  0.33296321555E+03  0.00000000000E+00 0. -1.
         -5    1    5    5    0  502  0.19359221087E+02  0.51314973169E+02  0.61466790756E+02  0.82512194725E+02  0.47000000000E+01 0.  1.
         13    1    6    6    0    0  0.28154921434E+02 -0.15288069316E+02  0.10837257507E+03  0.11300902482E+03  0.00000000000E+00 0. -1.
        -14    1    6    6    0    0  0.22896523755E+03  0.94205836973E+01  0.28699294646E+03  0.36725846310E+03  0.00000000000E+00 0.  1.
</event>
<event>
12    1  0.8563264E-002  0.1888473E+03  0.7818608E-02  0.1159661E+00
         21   -1    0    0  503  502  0.00000000000E+00  0.00000000000E+00  0.49213022801E+02  0.49213022801E+02  0.00000000000E+00 0.  1.
         21   -1    0    0  501  503 -0.00000000000E+00 -0.00000000000E+00 -0.11734452334E+04  0.11734452334E+04  0.00000000000E+00 0. -1.
          6    2    1    2  501    0  0.48042050324E+02  0.59280730450E+02 -0.94189988796E+03  0.96064493203E+03  0.17274560169E+03 0.  0.
         24    2    3    3    0    0  0.39792814722E+02  0.10708949056E+03 -0.65661188749E+03  0.67122298980E+03  0.79683775999E+02 0.  0.
         -6    2    1    2    0  502 -0.48042050324E+02 -0.59280730450E+02 -0.18233232266E+03  0.26201332419E+03  0.17199901908E+03 0.  0.
        -24    2    5    5    0    0 -0.27123076008E+02  0.33685874696E+02 -0.69603705672E+02  0.11433047398E+03  0.79726921614E+02 0.  0.
          5    1    3    3  501    0  0.82492356020E+01 -0.47808760114E+02 -0.28528800047E+03  0.28942194223E+03  0.47000000000E+01 0. -1.
        -11    1    4    4    0    0  0.39899528174E+01  0.71459054583E+02 -0.21208561222E+03  0.22383615239E+03  0.00000000000E+00 0.  1.
         12    1    4    4    0    0  0.35802861904E+02  0.35630435981E+02 -0.44452627527E+03  0.44738683741E+03  0.00000000000E+00 0. -1.
         -5    1    5    5    0  502 -0.20918974316E+02 -0.92966605146E+02 -0.11272861699E+03  0.14768285021E+03  0.47000000000E+01 0.  1.
         11    1    6    6    0    0 -0.56165912494E+01  0.14023034105E+02 -0.81475978239E+02  0.82864507557E+02  0.00000000000E+00 0. -1.
        -12    1    6    6    0    0 -0.21506484759E+02  0.19662840590E+02  0.11872272566E+02  0.31465966418E+02  0.00000000000E+00 0.  1.
</event>
<event>
12    1  0.8563264E-002  0.1802990E+03  0.7818608E-02  0.1168522E+00
         21   -1    0    0  501  502  0.00000000000E+00  0.00000000000E+00  0.17602143001E+03  0.17602143001E+03  0.00000000000E+00 0.  1.
         21   -1    0    0  502  503 -0.00000000000E+00 -0.00000000000E+00 -0.23598903623E+03  0.23598903623E+03  0.00000000000E+00 0.  1.
         -6    2    1    2    0  503 -0.25259117672E+02  0.16125049576E+02 -0.12962240309E+03  0.21872437267E+03  0.17360974503E+03 0.  0.
        -24    2    3    3    0    0  0.28712803880E+02  0.51982371173E+02 -0.36739535873E+02  0.10537520924E+03  0.78914822485E+02 0.  0.
          6    2    1    2  501    0  0.25259117672E+02 -0.16125049576E+02  0.69654796871E+02  0.19328609357E+03  0.17779112180E+03 0.  0.
         24    2    5    5    0    0 -0.24284935642E+00 -0.53954914009E+02 -0.13524191056E+02  0.98300394657E+02  0.81048578794E+02 0.  0.
          5    1    5    5  501    0  0.25501967029E+02  0.37829864433E+02  0.83178987927E+02  0.94985698912E+02  0.47000000000E+01 0. -1.
        -11    1    6    6    0    0  0.36410066606E+02 -0.28399797056E+02  0.10805660409E+02  0.47423662025E+02  0.00000000000E+00 0.  1.
         12    1    6    6    0    0 -0.36652915962E+02 -0.25555116953E+02 -0.24329851464E+02  0.50876732632E+02  0.00000000000E+00 0. -1.
         -5    1    3    3    0  503 -0.53971921553E+02 -0.35857321597E+02 -0.92882867212E+02  0.11334916343E+03  0.47000000000E+01 0.  1.
         13    1    4    4    0    0 -0.14950966689E+01 -0.19466024759E+02 -0.15555883161E+02  0.24962911186E+02  0.00000000000E+00 0. -1.
        -14    1    4    4    0    0  0.30207900549E+02  0.71448395932E+02 -0.21183652712E+02  0.80412298058E+02  0.00000000000E+00 0.  1.
</event>
<event>
12    1  0.8563264E-002  0.2029180E+03  0.7818608E-02  0.1147768E+00
         21   -1    0    0  501  502  0.00000000000E+00  0.00000000000E+00  0.16207031407E+03  0.16207031407E+03  0.00000000000E+00 0. -1.
         21   -1    0    0  502  503 -0.00000000000E+00 -0.00000000000E+00 -0.11854303136E+04  0.11854303136E+04  0.00000000000E+00 0. -1.
         -6    2    1    2    0  503  0.83175381172E+02  0.67948777289E+02 -0.11103846845E+04  0.11287736118E+04  0.17216427842E+03 0.  0.
        -24    2    3    3    0    0  0.11270488133E+03  0.11161030272E+02 -0.80413198765E+03  0.81586844419E+03  0.78651800948E+02 0.  0.
          6    2    1    2  501    0 -0.83175381172E+02 -0.67948777289E+02  0.87024684946E+02  0.21872701589E+03  0.16950820429E+03 0.  0.
         24    2    5    5    0    0 -0.17997859544E+02  0.22896010077E+02  0.30540367733E+02  0.93373703973E+02  0.83293362921E+02 0.  0.
          5    1    5    5  501    0 -0.65177521628E+02 -0.90844787366E+02  0.56484317213E+02  0.12535331192E+03  0.47000000000E+01 0. -1.
        -13    1    6    6    0    0 -0.26956700010E+02  0.16015274929E+02 -0.22852246222E+02  0.38799199269E+02  0.00000000000E+00 0.  1.
         14    1    6    6    0    0  0.89588404663E+01  0.68807351484E+01  0.53392613956E+02  0.54574504704E+02  0.00000000000E+00 0. -1.
         -5    1    3    3    0  503 -0.29529500160E+02  0.56787747017E+02 -0.30625269685E+03  0.31290516762E+03  0.47000000000E+01 0.  1.
         11    1    4    4    0    0  0.73139812488E+02  0.16952646742E+02 -0.70483676908E+03  0.70882416398E+03  0.00000000000E+00 0. -1.
        -12    1    4    4    0    0  0.39565068844E+02 -0.57916164693E+01 -0.99295218571E+02  0.10704428021E+03  0.00000000000E+00 0.  1.
</event>
<event>
12    1  0.8563264E-002  0.1805983E+03  0.7818608E-02  0.1167299E+00
         21   -1    0    0  501  502  0.00000000000E+00  0.00000000000E+00  0.73301379856E+03  0.73301379856E+03  0.00000000000E+00 0. -1.
         21   -1    0    0  502  503 -0.00000000000E+00 -0.00000000000E+00 -0.47513380660E+02  0.47513380660E+02  0.00000000000E+00 0. -1.
         -6    2    1    2    0  503  0.41909017723E+02 -0.35701534462E+02  0.24289429607E+03  0.30249377168E+03  0.17167957802E+03 0.  0.
        -24    2    3    3    0    0  0.53594162994E+02 -0.20658826709E+02  0.52263244581E+02  0.11085579666E+03  0.79110299527E+02 0.  0.
          6    2    1    2  501    0 -0.41909017723E+02  0.35701534462E+02  0.44260612183E+03  0.47803340754E+03  0.17200230904E+03 0.  0.
         24    2    5    5    0    0 -0.53691369502E+02 -0.32460232486E+02  0.18054932385E+03  0.20696015977E+03  0.79360062624E+02 0.  0.
          5    1    5    5  501    0  0.11782351779E+02  0.68161766948E+02  0.26205679798E+03  0.27107324777E+03  0.47000000000E+01 0. -1.
        -11    1    6    6    0    0  0.47701216688E+01 -0.12655517180E+02 -0.25267481131E+01  0.13758656615E+02  0.00000000000E+00 0.  1.
         12    1    6    6    0    0 -0.58461491171E+02 -0.19804715306E+02  0.18307607196E+03  0.19320150316E+03  0.00000000000E+00 0. -1.
         -5    1    3    3    0  503 -0.11685145271E+02 -0.15042707753E+02  0.19063105149E+03  0.19163797501E+03  0.47000000000E+01 0.  1.
         13    1    4    4    0    0  0.64024716137E+01 -0.42146140651E+02  0.37922128670E+02  0.57055908173E+02  0.00000000000E+00 0. -1.
        -14    1    4    4    0    0  0.47191691380E+02  0.21487313943E+02  0.14341115911E+02  0.53799888488E+02  0.00000000000E+00 0.  1.
</event>
<event>
12    1  0.8563264E-002  0.2155500E+03  0.7818608E-02  0.1137469E+00
         21   -1    0    0  503  502  0.00000000000E+00  0.00000000000E+00  0.53215839540E+03  0.53215839540E+03  0.00000000000E+00 0. -1.
         21   -1    0    0  501  503 -0.00000000000E+00 -0.00000000000E+00 -0.87162548670E+02  0.87162548670E+02  0.00000000000E+00 0. -1.
          6    2    1    2  501    0  0.12764235218E+03  0.83751229986E+01  0.24208245494E+03  0.32413842866E+03  0.17349090232E+03 0.  0.
         24    2    3    3    0    0  0.13063101266E+03  0.45573513000E+02  0.13026397475E+03  0.20616336849E+03  0.79957643988E+02 0.  0.
         -6    2    1    2    0  502 -0.12764235218E+03 -0.83751229986E+01  0.20291339179E+03  0.29518251541E+03  0.17203534545E+03 0.  0.
        -24    2    5    5    0    0 -0.15738727857E+03  0.12553777739E+02  0.16942345398E+03  0.24551919427E+03  0.81529229139E+02 0.  0.
          5    1    3    3  501    0 -0.29886604840E+01 -0.37198390001E+02  0.11181848019E+03  0.11797506017E+03  0.47000000000E+01 0. -1.
        -13    1    4    4    0    0  0.12752596979E+02  0.11472838489E+02  0.64900058015E+02  0.67128773883E+02  0.00000000000E+00 0.  1.
         14    1    4    4    0    0  0.11787841568E+03  0.34100674511E+02  0.65363916735E+02  0.13903459460E+03  0.00000000000E+00 0. -1.
         -5    1    5    5    0  502  0.29744926397E+02 -0.20928900738E+02  0.33489937810E+02  0.49663321144E+02  0.47000000000E+01 0.  1.
         13    1    6    6    0    0 -0.68957521185E+02  0.34542471240E+02  0.39023168534E+02  0.86435697081E+02  0.00000000000E+00 0. -1.
        -14    1    6    6    0    0 -0.88429757388E+02 -0.21988693501E+02  0.13040028544E+03  0.15908349719E+03  0.00000000000E+00 0.  1.
</event>
<event>
12    1  0.8563264E-002  0.1782768E+03  0.7818608E-02  0.1169676E+00
         21   -1    0    0  501  502  0.00000000000E+00  0.00000000000E+00  0.13138546578E+03  0.13138546578E+03  0.00000000000E+00 0. -1.
         21   -1    0    0  502  503 -0.00000000000E+00 -0.00000000000E+00 -0.36216106968E+03  0.36216106968E+03  0.00000000000E+00 0. -1.
         -6    2    1    2    0  503 -0.40375026815E+02  0.27626426470E+02 -0.25839227855E+03  0.31392547276E+03  0.17143299159E+03 0.  0.
        -24    2    3    3    0    0  0.23459340739E+01 -0.39911850159E+02 -0.18503603991E+03  0.20534496320E+03  0.79559780394E+02 0.  0.
          6    2    1    2  501    0  0.40375026815E+02 -0.27626426470E+02  0.27616674648E+02  0.17962106270E+03  0.17060973952E+03 0.  0.
         24    2    5    5    0    0  0.80855033206E+02 -0.44397680207E+02  0.48671626625E+02  0.13078145918E+03  0.78906098782E+02 0.  0.
          5    1    5    5  501    0 -0.40480006391E+02  0.16771253737E+02 -0.21054951977E+02  0.48839603520E+02  0.47000000000E+01 0. -1.
        -11    1    6    6    0    0  0.20300808853E+02  0.22526114760E+02  0.58423720829E+01  0.30881742143E+02  0.00000000000E+00 0.  1.
         12    1    6    6    0    0  0.60554224353E+02 -0.66923794967E+02  0.42829254542E+02  0.99899717039E+02  0.00000000000E+00 0. -1.
         -5    1    3    3    0  503 -0.42720960889E+02  0.67538276630E+02 -0.73356238638E+02  0.10858050956E+03  0.47000000000E+01 0.  1.
         11    1    4    4    0    0  0.12090115605E+02 -0.69425890995E+01 -0.16492991785E+03  0.16551812059E+03  0.00000000000E+00 0. -1.
        -12    1    4    4    0    0 -0.97441815309E+01 -0.32969261060E+02 -0.20106122056E+02  0.39826842615E+02  0.00000000000E+00 0.  1.
</event>
<event>
12    1  0.8563264E-002  0.2213975E+03  0.7818608E-02  0.1133184E+00
         21   -1    0    0  503  502  0.00000000000E+00  0.00000000000E+00  0.15210272777E+04  0.15210272777E+04  0.00000000000E+00 0. -1.
         21   -1    0    0  501  503 -0.00000000000E+00 -0.00000000000E+00 -0.41355461760E+02  0.41355461760E+02  0.00000000000E+00 0.  1.
          6    2    1    2  501    0  0.10890276250E+03  0.88254127802E+02  0.36515291284E+03  0.42608646174E+03  0.16901011911E+03 0.  0.
         24    2    3    3    0    0  0.13691574301E+03  0.86976031071E+02  0.34983921631E+03  0.39379157189E+03  0.79834667676E+02 0.  0.
         -6    2    1    2    0  502 -0.10890276250E+03 -0.88254127802E+02  0.11145189031E+04  0.11362962777E+04  0.17137165068E+03 0.  0.
        -24    2    5    5    0    0 -0.10699837230E+03 -0.12443537577E+03  0.84929951454E+03  0.86857230892E+03  0.78583560658E+02 0.  0.
          5    1    3    3  501    0 -0.28012980512E+02  0.12780967312E+01  0.15313696539E+02  0.32294889845E+02  0.47000000000E+01 0. -1.
        -11    1    4    4    0    0  0.63479229248E+02  0.42362478056E+01  0.80412703484E+02  0.10253663357E+03  0.00000000000E+00 0.  1.
         12    1    4    4    0    0  0.73436513763E+02  0.82739783265E+02  0.26942651282E+03  0.29125493833E+03  0.00000000000E+00 0. -1.
         -5    1    5    5    0  502 -0.19043902013E+01  0.36181247966E+02  0.26521938856E+03  0.26772396881E+03  0.47000000000E+01 0.  1.
         11    1    6    6    0    0 -0.41201586590E+02 -0.27275922860E+02  0.44057458613E+03  0.44333679370E+03  0.00000000000E+00 0. -1.
        -12    1    6    6    0    0 -0.65796785707E+02 -0.97159452908E+02  0.40872492841E+03  0.42523551522E+03  0.00000000000E+00 0.  1.
</event>
<event>
12    1  0.8563264E-002  0.1898944E+03  0.7818608E-02  0.1158699E+00
         21   -1    0    0  501  502  0.00000000000E+00  0.00000000000E+00  0.63022907021E+03  0.63022907021E+03  0.00000000000E+00 0. -1.
         21   -1    0    0  502  503 -0.00000000000E+00 -0.00000000000E+00 -0.99110580045E+02  0.99110580045E+02  0.00000000000E+00 0.  1.
         -6    2    1    2    0  503 -0.78024499808E+02  0.68028737154E+01  0.27681745204E+02  0.19127975569E+03  0.17230079588E+03 0.  0.
        -24    2    3    3    0    0 -0.84927512291E+02 -0.22007959148E+02 -0.33872046757E+02  0.12280585573E+03  0.78974236559E+02 0.  0.
          6    2    1    2  501    0  0.78024499808E+02 -0.68028737154E+01  0.50343674496E+03  0.53805989456E+03  0.17299072893E+03 0.  0.
         24    2    5    5    0    0  0.52424414778E+02  0.24778517043E+02  0.48250079032E+03  0.49209085289E+03  0.77356969090E+02 0.  0.
          5    1    5    5  501    0  0.25600085030E+02 -0.31581390759E+02  0.20935954648E+02  0.45969041678E+02  0.47000000000E+01 0. -1.
        -11    1    6    6    0    0  0.52661489783E+02  0.21200656132E+02  0.16359186746E+03  0.17316177241E+03  0.00000000000E+00 0.  1.
         12    1    6    6    0    0 -0.23707500523E+00  0.35778609109E+01  0.31890892286E+03  0.31892908047E+03  0.00000000000E+00 0. -1.
         -5    1    3    3    0  503  0.69030124834E+01  0.28810832864E+02  0.61553791961E+02  0.68473899965E+02  0.47000000000E+01 0.  1.
         13    1    4    4    0    0 -0.30811551818E+02 -0.47622409495E+02 -0.68995129572E+01  0.57138856224E+02  0.00000000000E+00 0. -1.
        -14    1    4    4    0    0 -0.54115960473E+02  0.25614450346E+02 -0.26972533800E+02  0.65666999506E+02  0.00000000000E+00 0.  1.
</event>
<event>
12    1  0.8563264E-002  0.2190801E+03  0.7818608E-02  0.1134674E+00
         21   -1    0    0  503  502  0.00000000000E+00  0.00000000000E+00  0.10746126347E+03  0.10746126347E+03  0.00000000000E+00 0. -1.
         21   -1    0    0  501  503 -0.00000000000E+00 -0.00000000000E+00 -0.97795950790E+03  0.97795950790E+03  0.00000000000E+00 0. -1.
          6    2    1    2  501    0  0.12689589407E+03  0.47407380053E+02 -0.83594797098E+03  0.86417884790E+03  0.17218026409E+03 0.  0.
         24    2    3    3    0    0  0.10192023163E+03  0.90953962786E+02 -0.72854196025E+03  0.74552713183E+03  0.79855867010E+02 0.  0.
         -6    2    1    2    0  502 -0.12689589407E+03 -0.47407380053E+02 -0.34550273450E+02  0.22124192348E+03  0.17147664475E+03 0.  0.
        -24    2    5    5    0    0 -0.13481045402E+03 -0.62745272104E+02  0.13897049585E+02  0.16959771469E+03  0.80370573952E+02 0.  0.
          5    1    3    3  501    0  0.24975662442E+02 -0.43546582734E+02 -0.10740601074E+03  0.11865171606E+03  0.47000000000E+01 0. -1.
        -13    1    4    4    0    0 -0.11472358258E+02  0.23378816066E+02 -0.10710941333E+03  0.11022980753E+03  0.00000000000E+00 0.  1.
         14    1    4    4    0    0  0.11339258989E+03  0.67575146720E+02 -0.62143254692E+03  0.63529732430E+03  0.00000000000E+00 0. -1.
         -5    1    5    5    0  502  0.79145599517E+01  0.15337892051E+02 -0.48447323035E+02  0.51644208785E+02  0.47000000000E+01 0.  1.
         11    1    6    6    0    0 -0.10944923066E+03 -0.67876232435E+02 -0.16317922389E+02  0.12981753200E+03  0.00000000000E+00 0. -1.
        -12    1    6    6    0    0 -0.25361223359E+02  0.51309603310E+01  0.30214971974E+02  0.39780182699E+02  0.00000000000E+00 0.  1.
</event>
<event>
12    1  0.8563264E-002  0.1978223E+03  0.7818608E-02  0.1151637E+00
         21   -1    0    0  503  502  0.00000000000E+00  0.00000000000E+00  0.46161564825E+03  0.46161564825E+03  0.00000000000E+00 0. -1.
         21   -1    0    0  501  503 -0.00000000000E+00 -0.00000000000E+00 -0.87822731989E+02  0.87822731989E+02  0.00000000000E+00 0. -1.
          6    2    1    2  501    0 -0.42689785481E+02  0.88311065590E+02  0.13482196605E+03  0.23921139348E+03  0.17153386298E+03 0.  0.
         24    2    3    3    0    0 -0.43761683670E+02  0.48547060514E+02  0.37795199100E+01  0.10218388618E+03  0.78456100990E+02 0.  0.
         -6    2    1    2    0  502  0.42689785481E+02 -0.88311065590E+02  0.23897095021E+03  0.31022698676E+03  0.17179175236E+03 0.  0.
        -24    2    5    5    0    0  0.87270485115E+02 -0.75706989235E+02  0.12722375308E+03  0.18916573125E+03  0.79057603926E+02 0.  0.
          5    1    3    3  501    0  0.10718981887E+01  0.39764005076E+02  0.13104244614E+03  0.13702750729E+03  0.47000000000E+01 0. -1.
        -13    1    4    4    0    0 -0.59821091101E+02  0.58114874356E+02  0.38373213127E+01  0.83490278457E+02  0.00000000000E+00 0.  1.
         14    1    4    4    0    0  0.16059407432E+02 -0.95678138429E+01 -0.57801402691E-01  0.18693607725E+02  0.00000000000E+00 0. -1.
         -5    1    5    5    0  502 -0.44580699635E+02 -0.12604076355E+02  0.11174719713E+03  0.12106125551E+03  0.47000000000E+01 0.  1.
         13    1    6    6    0    0  0.97220631074E+01 -0.47863830945E+01 -0.11059022933E+02  0.15483215507E+02  0.00000000000E+00 0. -1.
        -14    1    6    6    0    0  0.77548422008E+02 -0.70920606140E+02  0.13828277602E+03  0.17368251574E+03  0.00000000000E+00 0.  1.
</event>
<event>
12    1  0.8563264E-002  0.2296753E+03  0.7818608E-02  0.1126987E+00
         21   -1    0    0  501  502  0.00000000000E+00  0.00000000000E+00  0.16548372393E+03  0.16548372393E+03  0.00000000000E+00 0.  1.
         21   -1    0    0  502  503 -0.00000000000E+00 -0.00000000000E+00 -0.66410594261E+03  0.66410594261E+03  0.00000000000E+00 0. -1.
         -6    2    1    2    0  503  0.75342152744E+02  0.13100089141E+03 -0.54865373887E+03  0.59452814846E+03  0.17206138616E+03 0.  0.
        -24    2    3    3    0    0  0.55204772073E+02  0.21829078808E+01 -0.21278108354E+03  0.23420590716E+03  0.80773049267E+02 0.  0.
          6    2    1    2  501    0 -0.75342152744E+02 -0.13100089141E+03  0.50031520186E+02  0.23506151809E+03  0.17295401338E+03 0.  0.
         24    2    5    5    0    0 -0.38079329544E+02 -0.19143820817E+02  0.66297559997E+02  0.11595150052E+03  0.85046239168E+02 0.  0.
          5    1    5    5  501    0 -0.37262823200E+02 -0.11185707059E+03 -0.16266039811E+02  0.11911001757E+03  0.47000000000E+01 0. -1.
        -13    1    6    6    0    0 -0.13356236702E+02  0.29797793480E+02  0.39013124539E+01  0.32886437843E+02  0.00000000000E+00 0.  1.
         14    1    6    6    0    0 -0.24723092842E+02 -0.48941614297E+02  0.62396247543E+02  0.83065062674E+02  0.00000000000E+00 0. -1.
         -5    1    3    3    0  503  0.20137380671E+02  0.12881798353E+03 -0.33587265533E+03  0.36032224130E+03  0.47000000000E+01 0.  1.
         11    1    4    4    0    0  0.13245137092E+01  0.58717925659E+01 -0.15499382820E+03  0.15511066715E+03  0.00000000000E+00 0. -1.
        -12    1    4    4    0    0  0.53880258363E+02 -0.36888846851E+01 -0.57787255344E+02  0.79095240007E+02  0.00000000000E+00 0.  1.
</event>
<event>
12    1  0.8563264E-002  0.2020015E+03  0.7818608E-02  0.1148186E+00
         21   -1    0    0  503  502  0.00000000000E+00  0.00000000000E+00  0.73720913092E+03  0.73720913092E+03  0.00000000000E+00 0.  1.
         21   -1    0    0  501  503 -0.00000000000E+00 -0.00000000000E+00 -0.47101136274E+03  0.47101136274E+03  0.00000000000E+00 0. -1.
          6    2    1    2  501    0 -0.53533540476E+02 -0.89792757040E+02 -0.43454219820E+03  0.47894611236E+03  0.17214493124E+03 0.  0.
         24    2    3    3    0    0 -0.38855856730E+02 -0.10508989271E+03 -0.42831254853E+03  0.45635551045E+03  0.11070252724E+03 0.  0.
         -6    2    1    2    0  502  0.53533540476E+02  0.89792757040E+02  0.70073996638E+03  0.72927438130E+03  0.17284687895E+03 0.  0.
        -24    2    5    5    0    0 -0.29446000005E+02  0.80702132225E+02  0.36367208545E+03  0.38199194588E+03  0.79249983706E+02 0.  0.
          5    1    3    3  501    0 -0.14677683745E+02  0.15297135667E+02 -0.62296496760E+01  0.22590601914E+02  0.47000000000E+01 0. -1.
        -11    1    4    4    0    0  0.14375806774E+02  0.23640211045E+01 -0.35565900800E+01  0.14996724616E+02  0.00000000000E+00 0.  1.
         12    1    4    4    0    0 -0.53231663505E+02 -0.10745391381E+03 -0.42475595845E+03  0.44135878583E+03  0.00000000000E+00 0. -1.
         -5    1    5    5    0  502  0.82979540481E+02  0.90906248155E+01  0.33706788093E+03  0.34728243542E+03  0.47000000000E+01 0.  1.
         11    1    6    6    0    0  0.21224723552E+02  0.43654817258E+02  0.10294181138E+03  0.11381233891E+03  0.00000000000E+00 0. -1.
        -12    1    6    6    0    0 -0.50670723557E+02  0.37047314966E+02  0.26073027408E+03  0.26817960697E+03  0.00000000000E+00 0.  1.
</event>
<event>
12    1  0.8563264E-002  0.2213713E+03  0.7818608E-02  0.1133101E+00
         21   -1    0    0  503  502  0.00000000000E+00  0.00000000000E+00  0.38757792807E+03  0.38757792807E+03  0.00000000000E+00 0. -1.
         21   -1    0    0  501  503 -0.00000000000E+00 -0.00000000000E+00 -0.13197664288E+03  0.13197664288E+03  0.00000000000E+00 0. -1.
          6    2    1    2  501    0 -0.88547532176E+02 -0.10571269606E+03  0.71554815991E+02  0.23264858032E+03  0.17317456704E+03 0.  0.
         24    2    3    3    0    0 -0.10643647310E+03 -0.44632616971E+02  0.90731926068E+02  0.16601043944E+03  0.77500905102E+02 0.  0.
         -6    2    1    2    0  502  0.88547532176E+02  0.10571269606E+03  0.18404646920E+03  0.28690599063E+03  0.17154038905E+03 0.  0.
        -24    2    5    5    0    0  0.26223044619E+02 -0.11704523241E+02  0.69855868541E+02  0.11159846537E+03  0.82156747555E+02 0.  0.
          5    1    3    3  501    0  0.17888940922E+02 -0.61080079085E+02 -0.19177110078E+02  0.66638140875E+02  0.47000000000E+01 0. -1.
        -11    1    4    4    0    0  0.60121379146E+01 -0.16668319769E+02  0.30853989984E+02  0.35580154358E+02  0.00000000000E+00 0.  1.
         12    1    4    4    0    0 -0.11244861101E+03 -0.27964297202E+02  0.59877936085E+02  0.13043028508E+03  0.00000000000E+00 0. -1.
         -5    1    5    5    0  502  0.62324487557E+02  0.11741721930E+03  0.11419060066E+03  0.17530752527E+03  0.47000000000E+01 0.  1.
         13    1    6    6    0    0  0.45253030211E+02  0.64080720557E+00  0.83214831632E+01  0.46016241254E+02  0.00000000000E+00 0. -1.
        -14    1    6    6    0    0 -0.19029985592E+02 -0.12345330446E+02  0.61534385378E+02  0.65582224111E+02  0.00000000000E+00 0.  1.
</event>
<event>
12    1  0.8563264E-002  0.1915383E+03  0.7818608E-02  0.1157094E+00
         21   -1    0    0  501  502  0.00000000000E+00  0.00000000000E+00  0.16958410749E+03  0.16958410749E+03  0.00000000000E+00 0.  1.
         21   -1    0    0  502  503 -0.00000000000E+00 -0.00000000000E+00 -0.21686492517E+03  0.21686492517E+03  0.00000000000E+00 0.  1.
         -6    2    1    2    0  503  0.45409004886E+02  0.70496147805E+02 -0.13504019712E+02  0.19201375386E+03  0.17220696427E+03 0.  0.
        -24    2    3    3    0    0  0.86043918982E+02  0.27947704195E+02  0.22265224022E+02  0.12299857369E+03  0.80301175362E+02 0.  0.
          6    2    1    2  501    0 -0.45409004886E+02 -0.70496147805E+02 -0.33776797964E+02  0.19443527880E+03  0.17214099158E+03 0.  0.
         24    2    5    5    0    0  0.11852765761E+02 -0.81962576252E+02 -0.58625754460E+02  0.13079606135E+03  0.82536528985E+02 0.  0.
          5    1    5    5  501    0 -0.57261770647E+02  0.11466428447E+02  0.24848956495E+02  0.63639217451E+02  0.47000000000E+01 0.  1.
        -11    1    6    6    0    0  0.27641490114E+02 -0.81749184692E+01 -0.46005768338E+02  0.54290072647E+02  0.00000000000E+00 0.  1.
         12    1    6    6    0    0 -0.15788724353E+02 -0.73787657783E+02 -0.12619986122E+02  0.76505988704E+02  0.00000000000E+00 0. -1.
         -5    1    3    3    0  503 -0.40634914096E+02  0.42548443610E+02 -0.35769243735E+02  0.69015180175E+02  0.47000000000E+01 0.  1.
         11    1    4    4    0    0 -0.41840290527E+01 -0.13205464691E+01 -0.19040189750E+02  0.19539159855E+02  0.00000000000E+00 0. -1.
        -12    1    4    4    0    0  0.90227948034E+02  0.29268250664E+02  0.41305413773E+02  0.10345941383E+03  0.00000000000E+00 0.  1.
</event>
<event>
12    1  0.8563264E-002  0.2638297E+03  0.7818608E-02  0.1104888E+00
         21   -1    0    0  503  502  0.00000000000E+00  0.00000000000E+00  0.48078871581E+03  0.48078871581E+03  0.00000000000E+00 0.  1.
         21   -1    0    0  501  503 -0.00000000000E+00 -0.00000000000E+00 -0.21083204114E+03  0.21083204114E+03  0.00000000000E+00 0. -1.
          6    2    1    2  501    0  0.79938021719E+02  0.18191044187E+03 -0.58748426401E+02  0.27013154772E+03  0.17331525984E+03 0.  0.
         24    2    3    3    0    0  0.64433631096E+02  0.52218506263E+02  0.18094758178E+02  0.11851575268E+03  0.82704885876E+02 0.  0.
         -6    2    1    2    0  502 -0.79938021719E+02 -0.18191044187E+03  0.32870510107E+03  0.42148920922E+03  0.17356443715E+03 0.  0.
        -24    2    5    5    0    0 -0.98158059134E+02 -0.90903575475E+02  0.13407932497E+03  0.20581468079E+03  0.80522995695E+02 0.  0.
          5    1    3    3  501    0  0.15504390623E+02  0.12969193561E+03 -0.76843184579E+02  0.15161579504E+03  0.47000000000E+01 0. -1.
        -13    1    4    4    0    0  0.46434078245E+01  0.52039989147E+02  0.25731674656E+02  0.58239512251E+02  0.00000000000E+00 0.  1.
         14    1    4    4    0    0  0.59790223272E+02  0.17851711563E+00 -0.76369164775E+01  0.60276240431E+02  0.00000000000E+00 0. -1.
         -5    1    5    5    0  502  0.18220037415E+02 -0.91006866394E+02  0.19462577610E+03  0.21567452843E+03  0.47000000000E+01 0.  1.
         13    1    6    6    0    0 -0.44311025666E+02  0.54474113548E+01  0.50219218758E+02  0.67194577301E+02  0.00000000000E+00 0. -1.
        -14    1    6    6    0    0 -0.53847033469E+02 -0.96350986830E+02  0.83860106216E+02  0.13862010349E+03  0.00000000000E+00 0.  1.
</event>
<event>
12    1  0.8563264E-002  0.1840554E+03  0.7818608E-02  0.1163989E+00
         21   -1    0    0  503  502  0.00000000000E+00  0.00000000000E+00  0.22729868365E+03  0.22729868365E+03  0.00000000000E+00 0. -1.
         21   -1    0    0  501  503 -0.00000000000E+00 -0.00000000000E+00 -0.28855781687E+03  0.28855781687E+03  0.00000000000E+00 0. -1.
          6    2    1    2  501    0  0.23179757105E+02 -0.57645450786E+02 -0.21008819503E+03  0.27915739486E+03  0.17300723186E+03 0.  0.
         24    2    3    3    0    0  0.31097116115E+02 -0.10295499660E+03 -0.18079721472E+03  0.22442448846E+03  0.78179001122E+02 0.  0.
         -6    2    1    2    0  502 -0.23179757105E+02  0.57645450786E+02  0.14882906182E+03  0.23669910566E+03  0.17325148728E+03 0.  0.
        -24    2    5    5    0    0 -0.16357866786E+02  0.37691484332E+02  0.17883561910E+03  0.19972367538E+03  0.78861524545E+02 0.  0.
          5    1    3    3  501    0 -0.79173590098E+01  0.45309545810E+02 -0.29290980319E+02  0.54732906403E+02  0.47000000000E+01 0. -1.
        -11    1    4    4    0    0  0.18273273530E+02 -0.18607348887E+01 -0.18043555271E+01  0.18456179418E+02  0.00000000000E+00 0.  1.
         12    1    4    4    0    0  0.12823842584E+02 -0.10109426171E+03 -0.17899285919E+03  0.20596830904E+03  0.00000000000E+00 0. -1.
         -5    1    5    5    0  502 -0.68218903190E+01  0.19953966454E+02 -0.30006557281E+02  0.36975430283E+02  0.47000000000E+01 0.  1.
         11    1    6    6    0    0  0.22479069478E+02  0.40694240539E+02  0.69134836251E+02  0.83312396203E+02  0.00000000000E+00 0. -1.
        -12    1    6    6    0    0 -0.38836936264E+02 -0.30027562069E+01  0.10970078285E+03  0.11641127918E+03  0.00000000000E+00 0.  1.
</event>
<event>
12    1  0.8563264E-002  0.1748263E+03  0.7818608E-02  0.1172986E+00
         21   -1    0    0  503  502  0.00000000000E+00  0.00000000000E+00  0.16163410199E+03  0.16163410199E+03  0.00000000000E+00 0.  1.
         21   -1    0    0  501  503 -0.00000000000E+00 -0.00000000000E+00 -0.22049459624E+03  0.22049459624E+03  0.00000000000E+00 0.  1.
          6    2    1    2  501    0 -0.16690502607E+02 -0.23533596534E+02 -0.10194783186E+03  0.20237984728E+03  0.17242922931E+03 0.  0.
         24    2    3    3    0    0  0.43781036144E+02  0.61245345047E+01 -0.13501254375E+02  0.91108562550E+02  0.78512401896E+02 0.  0.
         -6    2    1    2    0  502  0.16690502607E+02  0.23533596534E+02  0.43087337609E+02  0.17974885095E+03  0.17210673349E+03 0.  0.
        -24    2    5    5    0    0  0.47767790731E+02  0.56285444328E+02 -0.11013400899E+02  0.10912689063E+03  0.79608857457E+02 0.  0.
          5    1    3    3  501    0 -0.60471538751E+02 -0.29658131039E+02 -0.88446577484E+02  0.11127128473E+03  0.47000000000E+01 0. -1.
        -13    1    4    4    0    0 -0.14829140879E+02  0.24532598338E+02 -0.39238655772E+01  0.28933518996E+02  0.00000000000E+00 0.  1.
         14    1    4    4    0    0  0.58610177023E+02 -0.18408063834E+02 -0.95773887980E+01  0.62175043554E+02  0.00000000000E+00 0. -1.
         -5    1    5    5    0  502 -0.31077288124E+02 -0.32751847794E+02  0.54100738508E+02  0.70621960311E+02  0.47000000000E+01 0.  1.
         13    1    6    6    0    0  0.39402152017E+02  0.37556784584E+02  0.30807033420E+02  0.62546902082E+02  0.00000000000E+00 0. -1.
        -14    1    6    6    0    0  0.83656387141E+01  0.18728659744E+02 -0.41820434320E+02  0.46579988553E+02  0.00000000000E+00 0.  1.
</event>
<event>
12    1  0.8563264E-002  0.2174678E+03  0.7818608E-02  0.1139285E+00
         21   -1    0    0  503  502  0.00000000000E+00  0.00000000000E+00  0.99737947514E+02  0.99737947514E+02  0.00000000000E+00 0.  1.
         21   -1    0    0  501  503 -0.00000000000E+00 -0.00000000000E+00 -0.47494065780E+03  0.47494065780E+03  0.00000000000E+00 0.  1.
          6    2    1    2  501    0 -0.13077290586E+03 -0.46837227516E+01 -0.26208625897E+03  0.32955093029E+03  0.15096727575E+03 0.  0.
         24    2    3    3    0    0 -0.30521477322E+02 -0.19681540748E+02 -0.69205090719E+02  0.11160479352E+03  0.79670331556E+02 0.  0.
         -6    2    1    2    0  502  0.13077290586E+03  0.46837227516E+01 -0.11311645132E+03  0.24512767503E+03  0.17369155230E+03 0.  0.
        -24    2    5    5    0    0  0.22510259569E+02 -0.50401038033E+02 -0.54666957194E+02  0.11024415188E+03  0.78219693138E+02 0.  0.
          5    1    3    3  501    0 -0.10025142854E+03  0.14997817997E+02 -0.19288116825E+03  0.21794613677E+03  0.47000000000E+01 0. -1.
        -13    1    4    4    0    0 -0.16832814087E+02 -0.47268936823E+02 -0.62388492479E+02  0.80062600584E+02  0.00000000000E+00 0.  1.
         14    1    4    4    0    0 -0.13688663235E+02  0.27587396075E+02 -0.68165982398E+01  0.31542192932E+02  0.00000000000E+00 0. -1.
         -5    1    5    5    0  502  0.10826264629E+03  0.55084760784E+02 -0.58449494127E+02  0.13488352315E+03  0.47000000000E+01 0.  1.
         11    1    6    6    0    0  0.43223886877E+02 -0.39363813684E+02 -0.93434292362E+01  0.59204002351E+02  0.00000000000E+00 0. -1.
        -12    1    6    6    0    0 -0.20713627308E+02 -0.11037224349E+02 -0.45323527957E+02  0.51040149530E+02  0.00000000000E+00 0.  1.
</event>
<event>
12    1  0.8563264E-002  0.1901711E+03  0.7818608E-02  0.1158452E+00
         21   -1    0    0  503  502  0.00000000000E+00  0.00000000000E+00  0.62671293011E+03  0.62671293011E+03  0.00000000000E+00 0.  1.
         21   -1    0    0  501  503 -0.00000000000E+00 -0.00000000000E+00 -0.61747415312E+02  0.61747415312E+02  0.00000000000E+00 0. -1.
          6    2    1    2  501    0  0.79800282143E+02 -0.12302674242E+02  0.19276962715E+03  0.27078619478E+03  0.17217895721E+03 0.  0.
         24    2    3    3    0    0 -0.16713988955E+02 -0.33553346769E+02  0.11092930591E+03  0.14238633579E+03  0.81014648069E+02 0.  0.
         -6    2    1    2    0  502 -0.79800282143E+02  0.12302674242E+02  0.37219588764E+03  0.41767415064E+03  0.17147150350E+03 0.  0.
        -24    2    5    5    0    0 -0.87103653005E+02 -0.47986616807E+02  0.28086349657E+03  0.30789330760E+03  0.77615870782E+02 0.  0.
          5    1    3    3  501    0  0.96514271098E+02  0.21250672528E+02  0.81840321240E+02  0.12839985899E+03  0.47000000000E+01 0. -1.
        -13    1    4    4    0    0  0.26748618251E+02 -0.31047547632E+02  0.76869312777E+02  0.87111021341E+02  0.00000000000E+00 0.  1.
         14    1    4    4    0    0 -0.43462607206E+02 -0.25057991374E+01  0.34059993136E+02  0.55275314444E+02  0.00000000000E+00 0. -1.
         -5    1    5    5    0  502  0.73033708618E+01  0.60289291049E+02  0.91332391071E+02  0.10978084305E+03  0.47000000000E+01 0.  1.
         11    1    6    6    0    0 -0.70453800775E+02 -0.13978297499E+02  0.10008303158E+03  0.12318986994E+03  0.00000000000E+00 0. -1.
        -12    1    6    6    0    0 -0.16649852230E+02 -0.34008319308E+02  0.18078046499E+03  0.18470343766E+03  0.00000000000E+00 0.  1.
</event>
<event>
12    1  0.8563264E-002  0.4672272E+03  0.7818608E-02  0.1022756E+00
         21   -1    0    0  503  502  0.00000000000E+00  0.00000000000E+00  0.29736481400E+03  0.29736481400E+03  0.00000000000E+00 0.  1.
         21   -1    0    0  501  503 -0.00000000000E+00 -0.00000000000E+00 -0.29360412880E+04  0.29360412880E+04  0.00000000000E+00 0. -1.
          6    2    1    2  501    0 -0.43169595074E+03 -0.46972804770E+02 -0.27200152772E+04  0.27598522368E+04  0.17243382040E+03 0.  0.
         24    2    3    3    0    0 -0.23448992832E+03  0.27096056283E+02 -0.17181984550E+04  0.17361162128E+04  0.78573857066E+02 0.  0.
         -6    2    1    2    0  502  0.43169595074E+03  0.46972804770E+02  0.81338803197E+02  0.47355386522E+03  0.17049757793E+03 0.  0.
        -24    2    5    5    0    0  0.13933191648E+03  0.62542996380E+02  0.45450909200E+02  0.17854676305E+03  0.80549066417E+02 0.  0.
          5    1    3    3  501    0 -0.19720602243E+03 -0.74068861053E+02 -0.10018168222E+04  0.10237360240E+04  0.47000000000E+01 0. -1.
        -11    1    4    4    0    0 -0.24044875847E+03  0.25112233191E+02 -0.16481071696E+04  0.16657441197E+04  0.00000000000E+00 0.  1.
         12    1    4    4    0    0  0.59588301502E+01  0.19838230916E+01 -0.70091285352E+02  0.70372093141E+02  0.00000000000E+00 0. -1.
         -5    1    5    5    0  502  0.29236403426E+03 -0.15570191610E+02  0.35887893998E+02  0.29500710217E+03  0.47000000000E+01 0.  1.
         11    1    6    6    0    0  0.12066097213E+03  0.27043865024E+02  0.83941491557E+01  0.12393910832E+03  0.00000000000E+00 0. -1.
        -12    1    6    6    0    0  0.18670944355E+02  0.35499131356E+02  0.37056760044E+02  0.54607654730E+02  0.00000000000E+00 0.  1.
</event>
<event>
12    1  0.8563264E-002  0.2113717E+03  0.7818608E-02  0.1140539E+00
         21   -1    0    0  501  502  0.00000000000E+00  0.00000000000E+00  0.20727299545E+03  0.20727299545E+03  0.00000000000E+00 0. -1.
         21   -1    0    0  502  503 -0.00000000000E+00 -0.00000000000E+00 -0.30734805401E+03  0.30734805401E+03  0.00000000000E+00 0.  1.
         -6    2    1    2    0  503  0.83425726546E+02  0.90162765362E+02 -0.19089879523E+03  0.28481634907E+03  0.17201403016E+03 0.  0.
        -24    2    3    3    0    0  0.65906799741E+02  0.11588479903E+03 -0.19893568878E+03  0.25233223803E+03  0.79518282040E+02 0.  0.
          6    2    1    2  501    0 -0.83425726546E+02 -0.90162765362E+02  0.90823736664E+02  0.22980470039E+03  0.17167432269E+03 0.  0.
         24    2    5    5    0    0  0.52004297967E+01 -0.25493585826E+02  0.97295697900E+02  0.11980163383E+03  0.64876893036E+02 0.  0.
          5    1    5    5  501    0 -0.88626156343E+02 -0.64669179536E+02 -0.64719612357E+01  0.11000306656E+03  0.47000000000E+01 0. -1.
        -13    1    6    6    0    0  0.33473148263E+02 -0.24676897175E+02  0.56201869711E+02  0.69914598388E+02  0.00000000000E+00 0.  1.
         14    1    6    6    0    0 -0.28272718466E+02 -0.81668865129E+00  0.41093828189E+02  0.49887035441E+02  0.00000000000E+00 0. -1.
         -5    1    3    3    0  503  0.17518926805E+02 -0.25722033670E+02  0.80368935501E+01  0.32484111046E+02  0.47000000000E+01 0.  1.
         13    1    4    4    0    0  0.80908934543E+02  0.89400051636E+02 -0.13188549254E+03  0.17869641313E+03  0.00000000000E+00 0. -1.
        -14    1    4    4    0    0 -0.15002134802E+02  0.26484747396E+02 -0.67050196235E+02  0.73635824898E+02  0.00000000000E+00 0.  1.
</event>
<event>
12    1  0.8563264E-002  0.2246786E+03  0.7818608E-02  0.1130552E+00
         21   -1    0    0  501  502  0.00000000000E+00  0.00000000000E+00  0.10890023850E+03  0.10890023850E+03  0.00000000000E+00 0.  1.
         21   -1    0    0  502  503 -0.00000000000E+00 -0.00000000000E+00 -0.52762670207E+03  0.52762670207E+03  0.00000000000E+00 0. -1.
         -6    2    1    2    0  503  0.10890658764E+02 -0.14244089152E+03 -0.32159215468E+03  0.39230342343E+03  0.17341409417E+03 0.  0.
        -24    2    3    3    0    0  0.13871540580E+02 -0.15997653187E+03 -0.32767808705E+03  0.37292526790E+03  0.76911743699E+02 0.  0.
          6    2    1    2  501    0 -0.10890658764E+02  0.14244089152E+03 -0.97134308883E+02  0.24422351714E+03  0.17263266879E+03 0.  0.
         24    2    5    5    0    0  0.10658564030E+02  0.10906744927E+03  0.27221310371E+01  0.13665235816E+03  0.81591320098E+02 0.  0.
          5    1    5    5  501    0 -0.21549222794E+02  0.33373442250E+02 -0.99856439920E+02  0.10757115898E+03  0.47000000000E+01 0. -1.
        -11    1    6    6    0    0 -0.32568326845E+02  0.29245572962E+02  0.12047069145E+02  0.45399684210E+02  0.00000000000E+00 0.  1.
         12    1    6    6    0    0  0.43226890875E+02  0.79821876306E+02 -0.93249381075E+01  0.91252673947E+02  0.00000000000E+00 0. -1.
         -5    1    3    3    0  503 -0.29808818164E+01  0.17535640355E+02  0.60859323635E+01  0.19378155531E+02  0.47000000000E+01 0.  1.
         13    1    4    4    0    0  0.44007408252E+02 -0.96421071902E+02 -0.17100691215E+03  0.20118906305E+03  0.00000000000E+00 0. -1.
        -14    1    4    4    0    0 -0.30135867672E+02 -0.63555459971E+02 -0.15667117490E+03  0.17173620485E+03  0.00000000000E+00 0.  1.
</event>
<event>
12    1  0.8563264E-002  0.1895373E+03  0.7818608E-02  0.1159132E+00
         21   -1    0    0  503  502  0.00000000000E+00  0.00000000000E+00  0.58062978849E+02  0.58062978849E+02  0.00000000000E+00 0. -1.
         21   -1    0    0  501  503 -0.00000000000E+00 -0.00000000000E+00 -0.71552241116E+03  0.71552241116E+03  0.00000000000E+00 0. -1.
          6    2    1    2  501    0  0.67483135680E+02 -0.36702332303E+02 -0.47281459017E+03  0.50897604807E+03  0.17205216079E+03 0.  0.
         24    2    3    3    0    0  0.50181345576E+02  0.29164462739E+02 -0.16727912324E+03  0.19590768783E+03  0.83837841986E+02 0.  0.
         -6    2    1    2    0  502 -0.67483135680E+02  0.36702332303E+02 -0.18464484215E+03  0.26460934195E+03  0.17327247709E+03 0.  0.
        -24    2    5    5    0    0 -0.21681523302E+02  0.73558208955E+02 -0.17112336676E+03  0.20410261805E+03  0.80583953027E+02 0.  0.
          5    1    3    3  501    0  0.17301790104E+02 -0.65866795042E+02 -0.30553546692E+03  0.31306836023E+03  0.47000000000E+01 0. -1.
        -11    1    4    4    0    0  0.34681613539E+02 -0.19418054600E+02 -0.31022230014E+02  0.50420768709E+02  0.00000000000E+00 0.  1.
         12    1    4    4    0    0  0.15499732037E+02  0.48582517339E+02 -0.13625689323E+03  0.14548691913E+03  0.00000000000E+00 0. -1.
         -5    1    5    5    0  502 -0.45801612379E+02 -0.36855876652E+02 -0.13521475387E+02  0.60506723898E+02  0.47000000000E+01 0.  1.
         13    1    6    6    0    0 -0.49751866201E+01  0.34050797205E+02 -0.78602257218E+01  0.35298617829E+02  0.00000000000E+00 0. -1.
        -14    1    6    6    0    0 -0.16706336682E+02  0.39507411750E+02 -0.16326314104E+03  0.16880400022E+03  0.00000000000E+00 0.  1.
</event>
<event>
12    1  0.8563264E-002  0.2693780E+03  0.7818608E-02  0.1101710E+00
         21   -1    0    0  503  502  0.00000000000E+00  0.00000000000E+00  0.51178540182E+03  0.51178540182E+03  0.00000000000E+00 0. -1.
         21   -1    0    0  501  503 -0.00000000000E+00 -0.00000000000E+00 -0.17817929855E+03  0.17817929855E+03  0.00000000000E+00 0.  1.
          6    2    1    2  501    0  0.18650914214E+03 -0.89366717728E+02  0.10185561170E+02  0.26905453763E+03  0.17179792846E+03 0.  0.
         24    2    3    3    0    0  0.19923155234E+03 -0.10690205838E+03 -0.85546481212E+01  0.24002639031E+03  0.80113822193E+02 0.  0.
         -6    2    1    2    0  502 -0.18650914214E+03  0.89366717728E+02  0.32342054210E+03  0.42091016274E+03  0.17260488899E+03 0.  0.
        -24    2    5    5    0    0 -0.12672963448E+03  0.47887520136E+02  0.30873155099E+03  0.34653294963E+03  0.80101808759E+02 0.  0.
          5    1    3    3  501    0 -0.12722410192E+02  0.17535340652E+02  0.18740209291E+02  0.29028147326E+02  0.47000000000E+01 0. -1.
        -11    1    4    4    0    0  0.12872562125E+03 -0.97528126699E+02 -0.32962132160E+02  0.16482876939E+03  0.00000000000E+00 0.  1.
         12    1    4    4    0    0  0.70505931086E+02 -0.93739316813E+01  0.24407484039E+02  0.75197620911E+02  0.00000000000E+00 0. -1.
         -5    1    5    5    0  502 -0.59779507667E+02  0.41479197592E+02  0.14688991117E+02  0.74377213109E+02  0.47000000000E+01 0.  1.
         11    1    6    6    0    0 -0.64510062340E+02  0.10985945768E+02  0.23210936285E+03  0.24115761541E+03  0.00000000000E+00 0. -1.
        -12    1    6    6    0    0 -0.62219572136E+02  0.36901574368E+02  0.76622188140E+02  0.10537533423E+03  0.00000000000E+00 0.  1.
</event>
<event>
12    1  0.8563264E-002  0.2443842E+03  0.7818608E-02  0.1117079E+00
         21   -1    0    0  503  502  0.00000000000E+00  0.00000000000E+00  0.11673590628E+04  0.11673590628E+04  0.00000000000E+00 0.  1.
         21   -1    0    0  501  503 -0.00000000000E+00 -0.00000000000E+00 -0.22564453439E+03  0.22564453439E+03  0.00000000000E+00 0. -1.
          6    2    1    2  501    0  0.84967187918E+02  0.15089375843E+03 -0.14177250400E+03  0.28252981850E+03  0.17243928234E+03 0.  0.
         24    2    3    3    0    0 -0.34781950664E+00  0.91250916749E+02 -0.12977615367E+03  0.17763977380E+03  0.79919887308E+02 0.  0.
         -6    2    1    2    0  502 -0.84967187918E+02 -0.15089375843E+03  0.10834870324E+04  0.11104737787E+04  0.17093716508E+03 0.  0.
        -24    2    5    5    0    0 -0.98046359069E+02 -0.12309267990E+03  0.58837098200E+03  0.61438310345E+03  0.80754498194E+02 0.  0.
          5    1    3    3  501    0  0.85315007424E+02  0.59642841685E+02 -0.11996350329E+02  0.10489004470E+03  0.47000000000E+01 0. -1.
        -11    1    4    4    0    0  0.15956128730E+02 -0.49432401380E+00  0.21663558631E+01  0.16110105462E+02  0.00000000000E+00 0.  1.
         12    1    4    4    0    0 -0.16303948236E+02  0.91745240763E+02 -0.13194250953E+03  0.16152966833E+03  0.00000000000E+00 0. -1.
         -5    1    5    5    0  502  0.13079171152E+02 -0.27801078538E+02  0.49511605037E+03  0.49609067520E+03  0.47000000000E+01 0.  1.
         13    1    6    6    0    0 -0.93288964687E+02 -0.11335430868E+03  0.58484001229E+03  0.60298413761E+03  0.00000000000E+00 0. -1.
        -14    1    6    6    0    0 -0.47573943822E+01 -0.97383712172E+01  0.35309697078E+01  0.11398965846E+02  0.00000000000E+00 0.  1.
</event>
<event>
12    1  0.8563264E-002  0.1903896E+03  0.7818608E-02  0.1161820E+00
         21   -1    0    0  501  502  0.00000000000E+00  0.00000000000E+00  0.22814694816E+02  0.22814694816E+02  0.00000000000E+00 0. -1.
         21   -1    0    0  502  503 -0.00000000000E+00 -0.00000000000E+00 -0.14634734519E+04  0.14634734519E+04  0.00000000000E+00 0.  1.
         -6    2    1    2    0  503  0.77826555714E+01 -0.29219834231E+02 -0.65352851455E+03  0.67645963015E+03  0.17199925420E+03 0.  0.
        -24    2    3    3    0    0  0.33126156396E+02 -0.59197041523E+02 -0.24754476281E+03  0.26855544695E+03  0.79006243610E+02 0.  0.
          6    2    1    2  501    0 -0.77826555714E+01  0.29219834231E+02 -0.78713024250E+03  0.80982851653E+03  0.18797297438E+03 0.  0.
         24    2    5    5    0    0  0.69638518302E+02  0.90013549081E+01 -0.53578274913E+03  0.54600949240E+03  0.78311326827E+02 0.  0.
          5    1    5    5  501    0 -0.77421173874E+02  0.20218479323E+02 -0.25134749337E+03  0.26381902413E+03  0.47000000000E+01 0. -1.
        -11    1    6    6    0    0  0.46054379097E+02  0.11493444867E+02 -0.50462752824E+03  0.50685505558E+03  0.00000000000E+00 0.  1.
         12    1    6    6    0    0  0.23584139206E+02 -0.24920899586E+01 -0.31155220891E+02  0.39154436827E+02  0.00000000000E+00 0. -1.
         -5    1    3    3    0  503 -0.25343500824E+02  0.29977207291E+02 -0.40598375174E+03  0.40790418320E+03  0.47000000000E+01 0.  1.
         11    1    4    4    0    0  0.41122085986E+01 -0.49886088147E+02 -0.58156035376E+02  0.76731066074E+02  0.00000000000E+00 0. -1.
        -12    1    4    4    0    0  0.29013947797E+02 -0.93109533759E+01 -0.18938872743E+03  0.19182438088E+03  0.00000000000E+00 0.  1.
</event>
<event>
12    1  0.8563264E-002  0.2008627E+03  0.7818608E-02  0.1149463E+00
         21   -1    0    0  501  502  0.00000000000E+00  0.00000000000E+00  0.21940510412E+03  0.21940510412E+03  0.00000000000E+00 0. -1.
         21   -1    0    0  502  503 -0.00000000000E+00 -0.00000000000E+00 -0.45428112802E+03  0.45428112802E+03  0.00000000000E+00 0. -1.
         -6    2    1    2    0  503  0.10229911194E+03 -0.67557951186E+01 -0.37849704972E+03  0.42849254050E+03  0.17272837505E+03 0.  0.
        -24    2    3    3    0    0 -0.12387510715E+02 -0.13497863259E+02 -0.19462332150E+03  0.21162826306E+03  0.81071830626E+02 0.  0.
          6    2    1    2  501    0 -0.10229911194E+03  0.67557951186E+01  0.14362102581E+03  0.24519369164E+03  0.17024158803E+03 0.  0.
         24    2    5    5    0    0 -0.53954627765E+02 -0.42103058551E+02  0.14137575753E+03  0.17626250884E+03  0.79984984911E+02 0.  0.
          5    1    5    5  501    0 -0.48344484175E+02  0.48858853669E+02  0.22452682865E+01  0.68931182797E+02  0.47000000000E+01 0. -1.
        -11    1    6    6    0    0 -0.23336461555E+02 -0.60434695934E+02  0.64057665267E+02  0.91106132560E+02  0.00000000000E+00 0.  1.
         12    1    6    6    0    0 -0.30618166210E+02  0.18331637383E+02  0.77318092260E+02  0.85156376284E+02  0.00000000000E+00 0. -1.
         -5    1    3    3    0  503  0.11468662266E+03  0.67420681408E+01 -0.18387372822E+03  0.21686427743E+03  0.47000000000E+01 0.  1.
         11    1    4    4    0    0 -0.10047495405E+01 -0.44128469678E+02 -0.69693603660E+02  0.82495634726E+02  0.00000000000E+00 0. -1.
        -12    1    4    4    0    0 -0.11382761174E+02  0.30630606419E+02 -0.12492971784E+03  0.12913262834E+03  0.00000000000E+00 0.  1.
</event>
<event>
12    1  0.8563264E-002  0.2595518E+03  0.7818608E-02  0.1107600E+00
         21   -1    0    0  503  502  0.00000000000E+00  0.00000000000E+00  0.12609006989E+03  0.12609006989E+03  0.00000000000E+00 0. -1.
         21   -1    0    0  501  503 -0.00000000000E+00 -0.00000000000E+00 -0.64084687993E+03  0.64084687993E+03  0.00000000000E+00 0.  1.
          6    2    1    2  501    0 -0.77398001229E+02 -0.17712561135E+03 -0.99655168966E+02  0.27802566858E+03  0.17321428029E+03 0.  0.
         24    2    3    3    0    0 -0.57111581092E+02 -0.59149478003E+02 -0.11079941261E+03  0.15770862470E+03  0.76387872241E+02 0.  0.
         -6    2    1    2    0  502  0.77398001229E+02  0.17712561135E+03 -0.41510164107E+03  0.48891128124E+03  0.17135033034E+03 0.  0.
        -24    2    5    5    0    0  0.49133137268E+02  0.31612934816E+02 -0.13536080984E+03  0.17228869166E+03  0.89148200264E+02 0.  0.
          5    1    3    3  501    0 -0.20286420138E+02 -0.11797613335E+03  0.11144243647E+02  0.12031704388E+03  0.47000000000E+01 0. -1.
        -13    1    4    4    0    0 -0.44482716665E+02 -0.65132731994E+02 -0.11804264547E+03  0.14196848597E+03  0.00000000000E+00 0.  1.
         14    1    4    4    0    0 -0.12628864427E+02  0.59832539910E+01  0.72432328545E+01  0.15740138729E+02  0.00000000000E+00 0. -1.
         -5    1    5    5    0  502  0.28264863961E+02  0.14551267654E+03 -0.27974083124E+03  0.31662258957E+03  0.47000000000E+01 0.  1.
         13    1    6    6    0    0  0.49047246299E+02  0.42628649534E+02 -0.14419923165E+03  0.15816526970E+03  0.00000000000E+00 0. -1.
        -14    1    6    6    0    0  0.85890968650E-01 -0.11015714718E+02  0.88384218095E+01  0.14123421968E+02  0.00000000000E+00 0.  1.
</event>
<event>
12    1  0.8563264E-002  0.1996241E+03  0.7818608E-02  0.1151662E+00
         21   -1    0    0  503  502  0.00000000000E+00  0.00000000000E+00  0.11787275566E+04  0.11787275566E+04  0.00000000000E+00 0. -1.
         21   -1    0    0  501  503 -0.00000000000E+00 -0.00000000000E+00 -0.38734517772E+02  0.38734517772E+02  0.00000000000E+00 0. -1.
          6    2    1    2  501    0  0.17234022216E+02  0.83755591560E+02  0.31788572317E+03  0.37146550202E+03  0.17211413526E+03 0.  0.
         24    2    3    3    0    0 -0.35463443349E+01  0.17138761747E+02  0.52506398839E+02  0.97024431056E+02  0.79690053271E+02 0.  0.
         -6    2    1    2    0  502 -0.17234022216E+02 -0.83755591560E+02  0.82210731569E+03  0.84599657239E+03  0.18038223676E+03 0.  0.
        -24    2    5    5    0    0  0.17191894957E+02 -0.13779151395E+02  0.66967724546E+03  0.67471066444E+03  0.79255544625E+02 0.  0.
          5    1    3    3  501    0  0.20780366551E+02  0.66616829813E+02  0.26537932434E+03  0.27444107097E+03  0.47000000000E+01 0. -1.
        -13    1    4    4    0    0  0.14378235218E+02 -0.15736091872E+02  0.55508359208E+02  0.59460374850E+02  0.00000000000E+00 0.  1.
         14    1    4    4    0    0 -0.17924579552E+02  0.32874853618E+02 -0.30019603695E+01  0.37564056205E+02  0.00000000000E+00 0. -1.
         -5    1    5    5    0  502 -0.34425917173E+02 -0.69976440165E+02  0.15243007023E+03  0.17128590795E+03  0.47000000000E+01 0.  1.
         13    1    6    6    0    0 -0.21104393519E+02 -0.20677284821E+02  0.48894310923E+03  0.48983498201E+03  0.00000000000E+00 0. -1.
        -14    1    6    6    0    0  0.38296288476E+02  0.68981334258E+01  0.18073413623E+03  0.18487568243E+03  0.00000000000E+00 0.  1.
</event>
<event>
12    1  0.8563264E-002  0.1803366E+03  0.7818608E-02  0.1167545E+00
         21   -1    0    0  503  502  0.00000000000E+00  0.00000000000E+00  0.52326090273E+03  0.52326090273E+03  0.00000000000E+00 0.  1.
         21   -1    0    0  501  503 -0.00000000000E+00 -0.00000000000E+00 -0.13552488806E+03  0.13552488806E+03  0.00000000000E+00 0.  1.
          6    2    1    2  501    0 -0.36916733455E+02 -0.41667126089E+02 -0.48588985698E+02  0.18676767627E+03  0.17152924172E+03 0.  0.
         24    2    3    3    0    0 -0.45572915594E+02  0.19430616225E+02  0.18057510711E+02  0.95818739563E+02  0.80004485347E+02 0.  0.
         -6    2    1    2    0  502  0.36916733455E+02  0.41667126089E+02  0.43632500037E+03  0.47201811452E+03  0.17123842994E+03 0.  0.
        -24    2    5    5    0    0 -0.98655477375E+01  0.34224189781E+02  0.40084226211E+03  0.41264561375E+03  0.91286687153E+02 0.  0.
          5    1    3    3  501    0  0.86561821385E+01 -0.61097742314E+02 -0.66646496410E+02  0.90948936711E+02  0.47000000000E+01 0. -1.
        -13    1    4    4    0    0 -0.59201498239E+02 -0.11123967785E+02  0.73146442348E+01  0.60680013788E+02  0.00000000000E+00 0.  1.
         14    1    4    4    0    0  0.13628582645E+02  0.30554584010E+02  0.10742866477E+02  0.35138725775E+02  0.00000000000E+00 0. -1.
         -5    1    5    5    0  502  0.46782281193E+02  0.74429363082E+01  0.35482738254E+02  0.59372500777E+02  0.47000000000E+01 0.  1.
         11    1    6    6    0    0 -0.22763304028E+02  0.55509729031E+02  0.16638972641E+03  0.17687577302E+03  0.00000000000E+00 0. -1.
        -12    1    6    6    0    0  0.12897756291E+02 -0.21285539250E+02  0.23445253570E+03  0.23576984072E+03  0.00000000000E+00 0.  1.
</event>
<event>
12    1  0.8563264E-002  0.2090621E+03  0.7818608E-02  0.1142364E+00
         21   -1    0    0  503  502  0.00000000000E+00  0.00000000000E+00  0.45680323153E+03  0.45680323153E+03  0.00000000000E+00 0. -1.
         21   -1    0    0  501  503 -0.00000000000E+00 -0.00000000000E+00 -0.12767021013E+04  0.12767021013E+04  0.00000000000E+00 0.  1.
          6    2    1    2  501    0 -0.94567943888E+02  0.70239045779E+02 -0.12436147025E+04  0.12610203356E+04  0.17238949778E+03 0.  0.
         24    2    3    3    0    0 -0.26725571128E+02  0.97946949322E+02 -0.93477685513E+03  0.94357235335E+03  0.78823575743E+02 0.  0.
         -6    2    1    2    0  502  0.94567943888E+02 -0.70239045779E+02  0.42371583267E+03  0.47248499729E+03  0.17271463817E+03 0.  0.
        -24    2    5    5    0    0 -0.89386014711E+01  0.59053286786E+01  0.18242716010E+03  0.19907343168E+03  0.78967024490E+02 0.  0.
          5    1    3    3  501    0 -0.67842372759E+02 -0.27707903543E+02 -0.30883784733E+03  0.31744798220E+03  0.47000000000E+01 0. -1.
        -13    1    4    4    0    0  0.21591696780E+02  0.52141729797E+02 -0.29573773459E+03  0.30107435795E+03  0.00000000000E+00 0.  1.
         14    1    4    4    0    0 -0.48317267909E+02  0.45805219524E+02 -0.63903912054E+03  0.64249799540E+03  0.00000000000E+00 0. -1.
         -5    1    5    5    0  502  0.10350654536E+03 -0.76144374457E+02  0.24128867257E+03  0.27341156560E+03  0.47000000000E+01 0.  1.
         13    1    6    6    0    0  0.60888222839E+01  0.25329935257E+02  0.16917127638E+03  0.17116541745E+03  0.00000000000E+00 0. -1.
        -14    1    6    6    0    0 -0.15027423755E+02 -0.19424606578E+02  0.13255883716E+02  0.27908014235E+02  0.00000000000E+00 0.  1.
</event>
<event>
12    1  0.8563264E-002  0.2011630E+03  0.7818608E-02  0.1150625E+00
         21   -1    0    0  503  502  0.00000000000E+00  0.00000000000E+00  0.41907901248E+03  0.41907901248E+03  0.00000000000E+00 0. -1.
         21   -1    0    0  501  503 -0.00000000000E+00 -0.00000000000E+00 -0.95452794265E+02  0.95452794265E+02  0.00000000000E+00 0. -1.
          6    2    1    2  501    0  0.98686430326E+02 -0.11575910792E+02  0.11259358707E+03  0.22298195154E+03  0.16483513468E+03 0.  0.
         24    2    3    3    0    0  0.91300975084E+02  0.22764577644E+02  0.20854939178E+02  0.12463621645E+03  0.79026349506E+02 0.  0.
         -6    2    1    2    0  502 -0.98686430326E+02  0.11575910792E+02  0.21103263115E+03  0.29154985520E+03  0.17491007237E+03 0.  0.
        -24    2    5    5    0    0 -0.12670817029E+03 -0.29605731952E+02  0.16273231305E+03  0.22200737654E+03  0.76642088592E+02 0.  0.
          5    1    3    3  501    0  0.73854552422E+01 -0.34340488436E+02  0.91738647887E+02  0.98345735095E+02  0.47000000000E+01 0. -1.
        -11    1    4    4    0    0 -0.10862530841E+02 -0.10041599035E+02  0.72552323494E+01  0.16476246050E+02  0.00000000000E+00 0.  1.
         12    1    4    4    0    0  0.10216350592E+03  0.32806176679E+02  0.13599706829E+02  0.10815997040E+03  0.00000000000E+00 0. -1.
         -5    1    5    5    0  502  0.28021739966E+02  0.41181642744E+02  0.48300318094E+02  0.69542478657E+02  0.47000000000E+01 0.  1.
         11    1    6    6    0    0 -0.90166938666E+02 -0.46139648938E+02  0.76585055441E+02  0.12698115903E+03  0.00000000000E+00 0. -1.
        -12    1    6    6    0    0 -0.36541231626E+02  0.16533916986E+02  0.86147257614E+02  0.95026217509E+02  0.00000000000E+00 0.  1.
</event>
<event>
12    1  0.8563264E-002  0.1870844E+03  0.7818608E-02  0.1161177E+00
         21   -1    0    0  503  502  0.00000000000E+00  0.00000000000E+00  0.12880546803E+03  0.12880546803E+03  0.00000000000E+00 0. -1.
         21   -1    0    0  501  503 -0.00000000000E+00 -0.00000000000E+00 -0.41179027302E+03  0.41179027302E+03  0.00000000000E+00 0. -1.
          6    2    1    2  501    0  0.70527604764E+02 -0.19331699957E+02  0.16290158200E+02  0.18779225499E+03  0.17219960547E+03 0.  0.
         24    2    3    3    0    0  0.70248409513E+02  0.27080541862E+02 -0.37706219111E+02  0.11643489445E+03  0.80418473621E+02 0.  0.
         -6    2    1    2    0  502 -0.70527604764E+02  0.19331699957E+02 -0.29927496319E+03  0.35280348606E+03  0.17192131492E+03 0.  0.
        -24    2    5    5    0    0 -0.39834886587E+02  0.68886659646E+02 -0.25789210325E+03  0.28116293835E+03  0.78816691867E+02 0.  0.
          5    1    3    3  501    0  0.27919525099E+00 -0.46412241819E+02  0.53996377311E+02  0.71357360541E+02  0.47000000000E+01 0. -1.
        -11    1    4    4    0    0 -0.14363361570E+02  0.20669518172E+02 -0.62202898223E+01  0.25927343530E+02  0.00000000000E+00 0.  1.
         12    1    4    4    0    0  0.84611771083E+02  0.64110236897E+01 -0.31485929289E+02  0.90507550921E+02  0.00000000000E+00 0. -1.
         -5    1    5    5    0  502 -0.30692718177E+02 -0.49554959689E+02 -0.41382859938E+02  0.71640547705E+02  0.47000000000E+01 0.  1.
         13    1    6    6    0    0 -0.42389113417E+02  0.77694552721E+02 -0.16004556999E+03  0.18288757457E+03  0.00000000000E+00 0. -1.
        -14    1    6    6    0    0  0.25542268297E+01 -0.88078930752E+01 -0.97846533263E+02  0.98275363783E+02  0.00000000000E+00 0.  1.
</event>
<event>
12    1  0.8563264E-002  0.2395044E+03  0.7818608E-02  0.1120436E+00
         21   -1    0    0  501  502  0.00000000000E+00  0.00000000000E+00  0.99576781091E+02  0.99576781091E+02  0.00000000000E+00 0.  1.
         21   -1    0    0  502  503 -0.00000000000E+00 -0.00000000000E+00 -0.66538536918E+03  0.66538536918E+03  0.00000000000E+00 0.  1.
         -6    2    1    2    0  503  0.16089014287E+03 -0.47624742142E+02 -0.42556198653E+03  0.48741669543E+03  0.16828035078E+03 0.  0.
        -24    2    3    3    0    0  0.25815747266E+02 -0.23881700330E+02 -0.10188191926E+03  0.13584920499E+03  0.82693969588E+02 0.  0.
          6    2    1    2  501    0 -0.16089014287E+03  0.47624742142E+02 -0.14024660156E+03  0.27754545485E+03  0.17090528406E+03 0.  0.
         24    2    5    5    0    0 -0.11044730907E+02  0.18412591425E+02 -0.27116075313E+02  0.87472828713E+02  0.80344288029E+02 0.  0.
          5    1    5    5  501    0 -0.14984541197E+03  0.29212150717E+02 -0.11313052624E+03  0.19007262613E+03  0.47000000000E+01 0. -1.
        -11    1    6    6    0    0 -0.43464970200E+02 -0.35370202021E+01 -0.99846427278E+01  0.44737090170E+02  0.00000000000E+00 0.  1.
         12    1    6    6    0    0  0.32420239294E+02  0.21949611627E+02 -0.17131432585E+02  0.42735738544E+02  0.00000000000E+00 0. -1.
         -5    1    3    3    0  503  0.13507439561E+03 -0.23743041812E+02 -0.32368006727E+03  0.35156749044E+03  0.47000000000E+01 0.  1.
         13    1    4    4    0    0  0.29516134543E+02 -0.46387285138E+02 -0.98480574270E+02  0.11278921016E+03  0.00000000000E+00 0. -1.
        -14    1    4    4    0    0 -0.37003872763E+01  0.22505584808E+02 -0.34013449901E+01  0.23059994824E+02  0.00000000000E+00 0.  1.
</event>
<event>
12    1  0.8563264E-002  0.2040405E+03  0.7818608E-02  0.1146425E+00
         21   -1    0    0  501  502  0.00000000000E+00  0.00000000000E+00  0.86864100369E+02  0.86864100369E+02  0.00000000000E+00 0. -1.
         21   -1    0    0  502  503 -0.00000000000E+00 -0.00000000000E+00 -0.48684393526E+03  0.48684393526E+03  0.00000000000E+00 0. -1.
         -6    2    1    2    0  503  0.60893980309E+02 -0.91660612395E+02 -0.23695472598E+03  0.31253815449E+03  0.17153078774E+03 0.  0.
        -24    2    3    3    0    0 -0.21683766898E+02 -0.77301989858E+02 -0.96779568029E+02  0.14914776529E+03  0.80205908266E+02 0.  0.
          6    2    1    2  501    0 -0.60893980309E+02  0.91660612395E+02 -0.16302510891E+03  0.26116988114E+03  0.17182193101E+03 0.  0.
         24    2    5    5    0    0 -0.71459982890E+02 -0.29417409075E+01 -0.91811760922E+02  0.14219645305E+03  0.81702195938E+02 0.  0.
          5    1    5    5  501    0  0.10566002581E+02  0.94602353303E+02 -0.71213347990E+02  0.11897342810E+03  0.47000000000E+01 0. -1.
        -13    1    6    6    0    0 -0.31931453858E+01  0.11801249143E+02 -0.66958533266E+02  0.68065489317E+02  0.00000000000E+00 0.  1.
         14    1    6    6    0    0 -0.68266837505E+02 -0.14742990051E+02 -0.24853227656E+02  0.74130963729E+02  0.00000000000E+00 0. -1.
         -5    1    3    3    0  503  0.82577747207E+02 -0.14358622537E+02 -0.14017515795E+03  0.16339038920E+03  0.47000000000E+01 0.  1.
         13    1    4    4    0    0  0.18102093546E+02 -0.36709492368E+02 -0.80035005945E+02  0.89893686081E+02  0.00000000000E+00 0. -1.
        -14    1    4    4    0    0 -0.39785860444E+02 -0.40592497490E+02 -0.16744562085E+02  0.59254079211E+02  0.00000000000E+00 0.  1.
</event>
<event>
12    1  0.8563264E-002  0.1831433E+03  0.7818608E-02  0.1165402E+00
         21   -1    0    0  503  502  0.00000000000E+00  0.00000000000E+00  0.36801117001E+02  0.36801117001E+02  0.00000000000E+00 0. -1.
         21   -1    0    0  501  503 -0.00000000000E+00 -0.00000000000E+00 -0.96074377777E+03  0.96074377777E+03  0.00000000000E+00 0. -1.
          6    2    1    2  501    0  0.28864737009E+02  0.48084331327E+02 -0.33835359424E+03  0.38473968071E+03  0.17434503495E+03 0.  0.
         24    2    3    3    0    0  0.81126730597E+01  0.56366764159E+02 -0.88292167509E+02  0.13363800013E+03  0.82586806865E+02 0.  0.
         -6    2    1    2    0  502 -0.28864737009E+02 -0.48084331327E+02 -0.58558906652E+03  0.61280521406E+03  0.17166944861E+03 0.  0.
        -24    2    5    5    0    0 -0.52017055460E+02 -0.82787656590E+02 -0.33144245371E+03  0.35521456703E+03  0.82241828561E+02 0.  0.
          5    1    3    3  501    0  0.20752063949E+02 -0.82824328324E+01 -0.25006142673E+03  0.25110168058E+03  0.47000000000E+01 0. -1.
        -11    1    4    4    0    0 -0.25899061874E+02  0.60584001960E+02 -0.54482793506E+02  0.85495950124E+02  0.00000000000E+00 0.  1.
         12    1    4    4    0    0  0.34011734934E+02 -0.42172378001E+01 -0.33809374004E+02  0.48142050002E+02  0.00000000000E+00 0. -1.
         -5    1    5    5    0  502  0.23152318451E+02  0.34703325264E+02 -0.25414661281E+03  0.25759064703E+03  0.47000000000E+01 0.  1.
         11    1    6    6    0    0 -0.50451822184E+02 -0.74741187891E+01 -0.16053672193E+03  0.16844372325E+03  0.00000000000E+00 0. -1.
        -12    1    6    6    0    0 -0.15652332765E+01 -0.75313537801E+02 -0.17090573178E+03  0.18677084378E+03  0.00000000000E+00 0.  1.
</event>
<event>
12    1  0.8563264E-002  0.2206117E+03  0.7818608E-02  0.1133470E+00
         21   -1    0    0  503  502  0.00000000000E+00  0.00000000000E+00  0.79492542062E+03  0.79492542062E+03  0.00000000000E+00 0.  1.
         21   -1    0    0  501  503 -0.00000000000E+00 -0.00000000000E+00 -0.70458794037E+02  0.70458794037E+02  0.00000000000E+00 0.  1.
          6    2    1    2  501    0 -0.12087170426E+03  0.67801188236E+02  0.20489409286E+03  0.30091530425E+03  0.17135186321E+03 0.  0.
         24    2    3    3    0    0 -0.13677457957E+03  0.63985989257E+02  0.21990202974E+03  0.27822642248E+03  0.79066725248E+02 0.  0.
         -6    2    1    2    0  502  0.12087170426E+03 -0.67801188236E+02  0.51957253372E+03  0.56446891041E+03  0.17164662247E+03 0.  0.
        -24    2    5    5    0    0  0.83716574928E+02 -0.95965487949E+02  0.48101551962E+03  0.50378559515E+03  0.78779159547E+02 0.  0.
          5    1    3    3  501    0  0.15902875315E+02  0.38151989784E+01 -0.15007936881E+02  0.22688881769E+02  0.47000000000E+01 0. -1.
        -13    1    4    4    0    0 -0.49258823697E+02  0.57223018705E+02  0.62551633649E+02  0.98049030867E+02  0.00000000000E+00 0.  1.
         14    1    4    4    0    0 -0.87515755874E+02  0.67629705524E+01  0.15735039609E+03  0.18017739161E+03  0.00000000000E+00 0. -1.
         -5    1    5    5    0  502  0.37155129328E+02  0.28164299713E+02  0.38557014105E+02  0.60683315255E+02  0.47000000000E+01 0.  1.
         11    1    6    6    0    0  0.85094392149E+01 -0.52561814826E+02  0.10327645868E+03  0.11619458615E+03  0.00000000000E+00 0. -1.
        -12    1    6    6    0    0  0.75207135713E+02 -0.43403673122E+02  0.37773906094E+03  0.38759100900E+03  0.00000000000E+00 0.  1.
</event>
<event>
12    1  0.8563264E-002  0.3433986E+03  0.7818608E-02  0.1065718E+00
         21   -1    0    0  503  502  0.00000000000E+00  0.00000000000E+00  0.32872961915E+03  0.32872961915E+03  0.00000000000E+00 0.  1.
         21   -1    0    0  501  503 -0.00000000000E+00 -0.00000000000E+00 -0.44540330560E+03  0.44540330560E+03  0.00000000000E+00 0. -1.
          6    2    1    2  501    0 -0.28682626996E+03 -0.78913901017E+02 -0.23232435550E+03  0.41178274856E+03  0.16460167963E+03 0.  0.
         24    2    3    3    0    0 -0.17467230560E+03 -0.11298313193E+03 -0.15576681287E+03  0.27170287295E+03  0.79268838353E+02 0.  0.
         -6    2    1    2    0  502  0.28682626996E+03  0.78913901017E+02  0.11565066905E+03  0.36235017619E+03  0.17153967477E+03 0.  0.
        -24    2    5    5    0    0  0.22615405688E+03  0.12111200924E+03  0.81064499637E+02  0.28061835318E+03  0.79758578327E+02 0.  0.
          5    1    3    3  501    0 -0.11215396435E+03  0.34069230913E+02 -0.76557542633E+02  0.14007987560E+03  0.47000000000E+01 0. -1.
        -11    1    4    4    0    0 -0.64723712986E+02 -0.72473636460E+02 -0.34593168115E+02  0.10314201028E+03  0.00000000000E+00 0.  1.
         12    1    4    4    0    0 -0.10994859262E+03 -0.40509495470E+02 -0.12117364476E+03  0.16856086267E+03  0.00000000000E+00 0. -1.
         -5    1    5    5    0  502  0.60672213076E+02 -0.42198108221E+02  0.34586169414E+02  0.81731823005E+02  0.47000000000E+01 0.  1.
         13    1    6    6    0    0  0.13284028565E+03  0.89474339000E+02  0.86327261989E+02  0.18194668173E+03  0.00000000000E+00 0. -1.
        -14    1    6    6    0    0  0.93313771231E+02  0.31637670239E+02 -0.52627623516E+01  0.98671671451E+02  0.00000000000E+00 0.  1.
</event>
<event>
12    1  0.8563264E-002  0.1726501E+03  0.7818608E-02  0.1175422E+00
         21   -1    0    0  503  502  0.00000000000E+00  0.00000000000E+00  0.18993866901E+03  0.18993866901E+03  0.00000000000E+00 0.  1.
         21   -1    0    0  501  503 -0.00000000000E+00 -0.00000000000E+00 -0.18649097144E+03  0.18649097144E+03  0.00000000000E+00 0.  1.
          6    2    1    2  501    0 -0.11601551955E+02  0.11364401368E+02 -0.74584521745E+02  0.18696435079E+03  0.17067241124E+03 0.  0.
         24    2    3    3    0    0 -0.66948782876E+02  0.13954686365E+02 -0.77087461432E+02  0.13130125481E+03  0.81367499687E+02 0.  0.
         -6    2    1    2    0  502  0.11601551955E+02 -0.11364401368E+02  0.78032219316E+02  0.18946528966E+03  0.17188462150E+03 0.  0.
        -24    2    5    5    0    0  0.63556439300E+02 -0.38579128262E+01  0.88492627190E+02  0.13573291746E+03  0.80858984331E+02 0.  0.
          5    1    3    3  501    0  0.55347230921E+02 -0.25902849975E+01  0.25029396866E+01  0.55663095980E+02  0.47000000000E+01 0. -1.
        -11    1    4    4    0    0 -0.48833114796E+02  0.21417375148E+01  0.23854544983E+01  0.48938231817E+02  0.00000000000E+00 0.  1.
         12    1    4    4    0    0 -0.18115668080E+02  0.11812948850E+02 -0.79472915930E+02  0.82363022996E+02  0.00000000000E+00 0. -1.
         -5    1    5    5    0  502 -0.51954887345E+02 -0.75064885415E+01 -0.10460407874E+02  0.53732372199E+02  0.47000000000E+01 0.  1.
         11    1    6    6    0    0  0.44237394551E+02 -0.41463815883E+02  0.51198710243E+02  0.79356808371E+02  0.00000000000E+00 0. -1.
        -12    1    6    6    0    0  0.19319044749E+02  0.37605903056E+02  0.37293916947E+02  0.56376109088E+02  0.00000000000E+00 0.  1.
</event>
<event>
12    1  0.8563264E-002  0.2391375E+03  0.7818608E-02  0.1120720E+00
         21   -1    0    0  501  502  0.00000000000E+00  0.00000000000E+00  0.13674994293E+04  0.13674994293E+04  0.00000000000E+00 0. -1.
         21   -1    0    0  502  503 -0.00000000000E+00 -0.00000000000E+00 -0.48638956936E+02  0.48638956936E+02  0.00000000000E+00 0. -1.
         -6    2    1    2    0  503 -0.47202358253E+01  0.16408907447E+03  0.38481945059E+03  0.45197067755E+03  0.17100870980E+03 0.  0.
        -24    2    3    3    0    0 -0.43512618788E+02  0.10652418176E+03  0.34409014671E+03  0.37135100226E+03  0.79137781929E+02 0.  0.
          6    2    1    2  501    0  0.47202358253E+01 -0.16408907447E+03  0.93404102182E+03  0.96416770873E+03  0.17389432171E+03 0.  0.
         24    2    5    5    0    0 -0.22330507704E+02 -0.38014362433E+02  0.58384045228E+03  0.59095315295E+03  0.80076288209E+02 0.  0.
          5    1    5    5  501    0  0.27050743529E+02 -0.12607471204E+03  0.35020056954E+03  0.37321455578E+03  0.47000000000E+01 0. -1.
        -13    1    6    6    0    0  0.23366400145E+02 -0.30124479148E+02  0.37983457900E+03  0.38174308154E+03  0.00000000000E+00 0.  1.
         14    1    6    6    0    0 -0.45696907848E+02 -0.78898832846E+01  0.20400587328E+03  0.20921007141E+03  0.00000000000E+00 0. -1.
         -5    1    3    3    0  503  0.38792382963E+02  0.57564892712E+02  0.40729303881E+02  0.80619675287E+02  0.47000000000E+01 0.  1.
         11    1    4    4    0    0 -0.51142150208E+02  0.11425707222E+03  0.28513730540E+03  0.31140565346E+03  0.00000000000E+00 0. -1.
        -12    1    4    4    0    0  0.76295314202E+01 -0.77328904562E+01  0.58952841309E+02  0.59945348801E+02  0.00000000000E+00 0.  1.
</event>
<event>
12    1  0.8563264E-002  0.1994986E+03  0.7818608E-02  0.1150415E+00
         21   -1    0    0  501  502  0.00000000000E+00  0.00000000000E+00  0.35437308947E+03  0.35437308947E+03  0.00000000000E+00 0. -1.
         21   -1    0    0  502  503 -0.00000000000E+00 -0.00000000000E+00 -0.11576975817E+03  0.11576975817E+03  0.00000000000E+00 0.  1.
         -6    2    1    2    0  503  0.76144868670E+02 -0.61885678662E+02  0.16402929101E+03  0.25827372099E+03  0.17370039838E+03 0.  0.
        -24    2    3    3    0    0  0.60008798762E+02 -0.10870905475E+03  0.13717775765E+03  0.20174146344E+03  0.80393820416E+02 0.  0.
          6    2    1    2  501    0 -0.76144868670E+02  0.61885678662E+02  0.74574040286E+02  0.21186912665E+03  0.17233502574E+03 0.  0.
         24    2    5    5    0    0 -0.53094968381E+02  0.91281167949E+02  0.41991968164E+01  0.13205621236E+03  0.79182590765E+02 0.  0.
          5    1    5    5  501    0 -0.23049900289E+02 -0.29395489287E+02  0.70374843470E+02  0.79812914288E+02  0.47000000000E+01 0. -1.
        -11    1    6    6    0    0 -0.24571579670E+02  0.24976286315E+02 -0.35333250262E+02  0.49759581787E+02  0.00000000000E+00 0.  1.
         12    1    6    6    0    0 -0.28523388711E+02  0.66304881634E+02  0.39532447079E+02  0.82296630576E+02  0.00000000000E+00 0. -1.
         -5    1    3    3    0  503  0.16136069908E+02  0.46823376091E+02  0.26851533361E+02  0.56532257557E+02  0.47000000000E+01 0.  1.
         13    1    4    4    0    0 -0.91496874922E+01  0.57414081620E+01  0.24867185937E+02  0.27111943592E+02  0.00000000000E+00 0. -1.
        -14    1    4    4    0    0  0.69158486254E+02 -0.11445046292E+03  0.11231057172E+03  0.17462951985E+03  0.00000000000E+00 0.  1.
</event>
<event>
12    1  0.8563264E-002  0.1980080E+03  0.7818608E-02  0.1151462E+00
         21   -1    0    0  501  502  0.00000000000E+00  0.00000000000E+00  0.55038283868E+03  0.55038283868E+03  0.00000000000E+00 0. -1.
         21   -1    0    0  502  503 -0.00000000000E+00 -0.00000000000E+00 -0.73877292185E+02  0.73877292185E+02  0.00000000000E+00 0.  1.
         -6    2    1    2    0  503 -0.42722690470E+02  0.89741758694E+02  0.17856789405E+03  0.26652556126E+03  0.17108644156E+03 0.  0.
        -24    2    3    3    0    0 -0.24963381543E+02  0.12876443032E+03  0.11036844633E+03  0.18583221194E+03  0.71756310651E+02 0.  0.
          6    2    1    2  501    0  0.42722690470E+02 -0.89741758694E+02  0.29793765244E+03  0.35773456960E+03  0.17125526565E+03 0.  0.
         24    2    5    5    0    0  0.16779754517E+01 -0.67815263841E+02  0.29428761118E+03  0.31082132405E+03  0.73504909887E+02 0.  0.
          5    1    5    5  501    0  0.41044715018E+02 -0.21926494853E+02  0.36500412652E+01  0.46913245557E+02  0.47000000000E+01 0. -1.
        -13    1    6    6    0    0 -0.70780077600E+01  0.14939796929E+02  0.57893936283E+02  0.60208002661E+02  0.00000000000E+00 0.  1.
         14    1    6    6    0    0  0.87559832117E+01 -0.82755060770E+02  0.23639367490E+03  0.25061332139E+03  0.00000000000E+00 0. -1.
         -5    1    3    3    0  503 -0.17759308926E+02 -0.39022671625E+02  0.68199447725E+02  0.80693349319E+02  0.47000000000E+01 0.  1.
         11    1    4    4    0    0 -0.14513761246E+02  0.23530467873E+02  0.65236242338E+02  0.70852660488E+02  0.00000000000E+00 0. -1.
        -12    1    4    4    0    0 -0.10449620297E+02  0.10523396244E+03  0.45132203989E+02  0.11497955146E+03  0.00000000000E+00 0.  1.
</event>
<event>
12    1  0.8563264E-002  0.2879996E+03  0.7818608E-02  0.1091418E+00
         21   -1    0    0  501  502  0.00000000000E+00  0.00000000000E+00  0.54982795084E+03  0.54982795084E+03  0.00000000000E+00 0.  1.
         21   -1    0    0  502  503 -0.00000000000E+00 -0.00000000000E+00 -0.16609379903E+03  0.16609379903E+03  0.00000000000E+00 0. -1.
         -6    2    1    2    0  503 -0.18211338544E+03 -0.14234511422E+03  0.83114046293E+02  0.29960909122E+03  0.17155245889E+03 0.  0.
        -24    2    3    3    0    0 -0.41583881442E+02 -0.11014752889E+02  0.41533777272E+00  0.90187574433E+02  0.79265894933E+02 0.  0.
          6    2    1    2  501    0  0.18211338544E+03  0.14234511422E+03  0.30062010552E+03  0.41631265866E+03  0.17180327474E+03 0.  0.
         24    2    5    5    0    0  0.11637903047E+03  0.30721866857E+02  0.21558905982E+03  0.26128645600E+03  0.85463779112E+02 0.  0.
          5    1    5    5  501    0  0.65734354966E+02  0.11162324736E+03  0.85031045704E+02  0.15502620265E+03  0.47000000000E+01 0. -1.
        -11    1    6    6    0    0  0.95426964574E+02  0.48739205443E+02  0.11592346136E+03  0.15786090273E+03  0.00000000000E+00 0.  1.
         12    1    6    6    0    0  0.20952065898E+02 -0.18017338586E+02  0.99665598457E+02  0.10342555328E+03  0.00000000000E+00 0. -1.
         -5    1    3    3    0  503 -0.14052950400E+03 -0.13133036133E+03  0.82698708520E+02  0.20942151678E+03  0.47000000000E+01 0.  1.
         11    1    4    4    0    0  0.14581869094E+02 -0.27946033090E+02 -0.19124885972E+00  0.31522186597E+02  0.00000000000E+00 0. -1.
        -12    1    4    4    0    0 -0.56165750536E+02  0.16931280202E+02  0.60658663244E+00  0.58665387835E+02  0.00000000000E+00 0.  1.
</event>
<event>
12    1  0.8563264E-002  0.1884187E+03  0.7818608E-02  0.1160034E+00
         21   -1    0    0  501  502  0.00000000000E+00  0.00000000000E+00  0.42750478359E+02  0.42750478359E+02  0.00000000000E+00 0.  1.
         21   -1    0    0  502  503 -0.00000000000E+00 -0.00000000000E+00 -0.92369630711E+03  0.92369630711E+03  0.00000000000E+00 0.  1.
         -6    2    1    2    0  503  0.64883756630E+02 -0.38470748357E+02 -0.59683161916E+03  0.62586707123E+03  0.17266067552E+03 0.  0.
        -24    2    3    3    0    0  0.15742763172E+02 -0.49834368483E+02 -0.54591049494E+03  0.55404075299E+03  0.78813632162E+02 0.  0.
          6    2    1    2  501    0 -0.64883756630E+02  0.38470748357E+02 -0.28411420959E+03  0.34057971424E+03  0.17199929449E+03 0.  0.
         24    2    5    5    0    0 -0.12888946049E+02 -0.36711157559E+02 -0.97009855904E+02  0.13228687117E+03  0.81086806086E+02 0.  0.
          5    1    5    5  501    0 -0.51994810580E+02  0.75181905916E+02 -0.18710435369E+03  0.20829284307E+03  0.47000000000E+01 0. -1.
        -13    1    6    6    0    0  0.22852747909E+02  0.88214049613E+01 -0.73684829124E+01  0.25580457637E+02  0.00000000000E+00 0.  1.
         14    1    6    6    0    0 -0.35741693959E+02 -0.45532562521E+02 -0.89641372991E+02  0.10670641353E+03  0.00000000000E+00 0. -1.
         -5    1    3    3    0  503  0.49140993458E+02  0.11363620126E+02 -0.50921124218E+02  0.71826318241E+02  0.47000000000E+01 0.  1.
         13    1    4    4    0    0 -0.21417425543E+02  0.99658688613E+01 -0.16435130944E+03  0.16604028901E+03  0.00000000000E+00 0. -1.
        -14    1    4    4    0    0  0.37160188715E+02 -0.59800237344E+02 -0.38155918550E+03  0.38800046398E+03  0.00000000000E+00 0.  1.
</event>
<event>
12    1  0.8563264E-002  0.1901516E+03  0.7818608E-02  0.1159361E+00
         21   -1    0    0  501  502  0.00000000000E+00  0.00000000000E+00  0.10954816559E+03  0.10954816559E+03  0.00000000000E+00 0.  1.
         21   -1    0    0  502  503 -0.00000000000E+00 -0.00000000000E+00 -0.32239291817E+03  0.32239291817E+03  0.00000000000E+00 0.  1.
         -6    2    1    2    0  503 -0.66824296709E+02 -0.24632683833E+02 -0.11260073348E+03  0.22098996286E+03  0.17631047264E+03 0.  0.
        -24    2    3    3    0    0 -0.32414619757E+02 -0.60938650422E+02 -0.99644335026E+01  0.10671639133E+03  0.80776677041E+02 0.  0.
          6    2    1    2  501    0  0.66824296709E+02  0.24632683833E+02 -0.10024401910E+03  0.21095112090E+03  0.17140378146E+03 0.  0.
         24    2    5    5    0    0  0.66421093116E+01 -0.14239346399E+02  0.55604557375E+01  0.83085537922E+02  0.81396629794E+02 0.  0.
          5    1    5    5  501    0  0.60182187398E+02  0.38872030232E+02 -0.10580447483E+03  0.12786558297E+03  0.47000000000E+01 0. -1.
        -13    1    6    6    0    0  0.28904426551E+02  0.13480880381E+01 -0.27752404892E+02  0.40093380911E+02  0.00000000000E+00 0.  1.
         14    1    6    6    0    0 -0.22262317239E+02 -0.15587434437E+02  0.33312860629E+02  0.42992157011E+02  0.00000000000E+00 0. -1.
         -5    1    3    3    0  503 -0.34409676953E+02  0.36305966589E+02 -0.10263629998E+03  0.11427357153E+03  0.47000000000E+01 0.  1.
         13    1    4    4    0    0 -0.29339616774E+01  0.19243027542E+02 -0.85880631182E+01  0.21275738958E+02  0.00000000000E+00 0. -1.
        -14    1    4    4    0    0 -0.29480658079E+02 -0.80181677964E+02 -0.13763703844E+01  0.85440652370E+02  0.00000000000E+00 0.  1.
</event>
<event>
12    1  0.8563264E-002  0.1751829E+03  0.7818608E-02  0.1173409E+00
         21   -1    0    0  501  502  0.00000000000E+00  0.00000000000E+00  0.56163137569E+03  0.56163137569E+03  0.00000000000E+00 0.  1.
         21   -1    0    0  502  503 -0.00000000000E+00 -0.00000000000E+00 -0.56897558215E+02  0.56897558215E+02  0.00000000000E+00 0.  1.
         -6    2    1    2    0  503 -0.28289822512E+02  0.28555262761E+02  0.17545090918E+03  0.24554598294E+03  0.16701524217E+03 0.  0.
        -24    2    3    3    0    0  0.45395983924E+02 -0.62423501330E+01  0.95322115624E+02  0.13116422963E+03  0.77575686369E+02 0.  0.
          6    2    1    2  501    0  0.28289822512E+02 -0.28555262761E+02  0.32928290830E+03  0.37298295097E+03  0.17050903474E+03 0.  0.
         24    2    5    5    0    0  0.17878124750E+02 -0.76679485609E+02  0.28608124626E+03  0.30731090305E+03  0.79988379242E+02 0.  0.
          5    1    5    5  501    0  0.10411697763E+02  0.48124222848E+02  0.43201662037E+02  0.65672047918E+02  0.47000000000E+01 0. -1.
        -13    1    6    6    0    0  0.38328640757E+02 -0.27980215573E+02  0.67980542462E+02  0.82905556624E+02  0.00000000000E+00 0.  1.
         14    1    6    6    0    0 -0.20450516007E+02 -0.48699270036E+02  0.21810070380E+03  0.22440534643E+03  0.00000000000E+00 0. -1.
         -5    1    3    3    0  503 -0.73685806436E+02  0.34797612894E+02  0.80128793554E+02  0.11438175331E+03  0.47000000000E+01 0.  1.
         13    1    4    4    0    0  0.29407435936E+02 -0.40921748865E+02  0.42128709744E+02  0.65682684196E+02  0.00000000000E+00 0. -1.
        -14    1    4    4    0    0  0.15988547987E+02  0.34679398732E+02  0.53193405880E+02  0.65481545432E+02  0.00000000000E+00 0.  1.
</event>
<event>
12    1  0.8563264E-002  0.1858666E+03  0.7818608E-02  0.1162246E+00
         21   -1    0    0  501  502  0.00000000000E+00  0.00000000000E+00  0.28443895741E+02  0.28443895741E+02  0.00000000000E+00 0. -1.
         21   -1    0    0  502  503 -0.00000000000E+00 -0.00000000000E+00 -0.14118810785E+04  0.14118810785E+04  0.00000000000E+00 0. -1.
         -6    2    1    2    0  503  0.66283526024E+02  0.22726138602E+02 -0.96098712544E+03  0.97879441493E+03  0.17214025746E+03 0.  0.
        -24    2    3    3    0    0  0.46028546543E+02  0.81766363489E+02 -0.61827527291E+03  0.63041313499E+03  0.79699701249E+02 0.  0.
          6    2    1    2  501    0 -0.66283526024E+02 -0.22726138602E+02 -0.42245005735E+03  0.46153055934E+03  0.17215232515E+03 0.  0.
         24    2    5    5    0    0 -0.77934016015E+02  0.24509591823E+02 -0.37943906012E+03  0.39642307875E+03  0.80640102183E+02 0.  0.
          5    1    5    5  501    0  0.11650489991E+02 -0.47235730425E+02 -0.43010997230E+02  0.65107480588E+02  0.47000000000E+01 0. -1.
        -13    1    6    6    0    0 -0.80398143092E+02  0.21284260137E+01 -0.19982092790E+03  0.21539915236E+03  0.00000000000E+00 0.  1.
         14    1    6    6    0    0  0.24641270774E+01  0.22381165809E+02 -0.17961813222E+03  0.18102392639E+03  0.00000000000E+00 0. -1.
         -5    1    3    3    0  503  0.20254979481E+02 -0.59040224887E+02 -0.34271185252E+03  0.34838127994E+03  0.47000000000E+01 0.  1.
         13    1    4    4    0    0  0.61584962618E+02  0.29073633843E+02 -0.35254602016E+03  0.35906361572E+03  0.00000000000E+00 0. -1.
        -14    1    4    4    0    0 -0.15556416075E+02  0.52692729645E+02 -0.26572925276E+03  0.27134951927E+03  0.00000000000E+00 0.  1.
</event>
<event>
12    1  0.8563264E-002  0.2322635E+03  0.7818608E-02  0.1127174E+00
         21   -1    0    0  503  502  0.00000000000E+00  0.00000000000E+00  0.20797684397E+03  0.20797684397E+03  0.00000000000E+00 0. -1.
         21   -1    0    0  501  503 -0.00000000000E+00 -0.00000000000E+00 -0.28362892483E+03  0.28362892483E+03  0.00000000000E+00 0. -1.
          6    2    1    2  501    0 -0.63232863344E+02  0.14374060360E+03 -0.12780403410E+03  0.26510410397E+03  0.17113316067E+03 0.  0.
         24    2    3    3    0    0 -0.19822366215E+02  0.55654168288E+02  0.55133195760E+01  0.99455988566E+02  0.79817193127E+02 0.  0.
         -6    2    1    2    0  502  0.63232863344E+02 -0.14374060360E+03  0.52151953243E+02  0.22650166483E+03  0.15467198134E+03 0.  0.
        -24    2    5    5    0    0  0.44398713234E+02 -0.13918014643E+02  0.22620457649E+02  0.91954910698E+02  0.76020152780E+02 0.  0.
          5    1    3    3  501    0 -0.43410497128E+02  0.88086435313E+02 -0.13331735368E+03  0.16564811541E+03  0.47000000000E+01 0. -1.
        -13    1    4    4    0    0 -0.14621033536E+02 -0.19118471629E+02 -0.18637069249E+01  0.24140505019E+02  0.00000000000E+00 0.  1.
         14    1    4    4    0    0 -0.52013326793E+01  0.74772639917E+02  0.73770265010E+01  0.75315483546E+02  0.00000000000E+00 0. -1.
         -5    1    5    5    0  502  0.18834150109E+02 -0.12982258896E+03  0.29531495594E+02  0.13454675413E+03  0.47000000000E+01 0.  1.
         11    1    6    6    0    0  0.34905465337E+02 -0.36371363857E+02  0.38001978764E+02  0.63130167188E+02  0.00000000000E+00 0. -1.
        -12    1    6    6    0    0  0.94932478973E+01  0.22453349214E+02 -0.15381521116E+02  0.28824743510E+02  0.00000000000E+00 0.  1.
</event>
<event>
12    1  0.8563264E-002  0.1860221E+03  0.7818608E-02  0.1162991E+00
         21   -1    0    0  503  502  0.00000000000E+00  0.00000000000E+00  0.13675236071E+03  0.13675236071E+03  0.00000000000E+00 0. -1.
         21   -1    0    0  501  503 -0.00000000000E+00 -0.00000000000E+00 -0.25670934053E+03  0.25670934053E+03  0.00000000000E+00 0. -1.
          6    2    1    2  501    0  0.42729060582E+02  0.44710857340E+02 -0.95844304535E+02  0.20588330901E+03  0.17139712026E+03 0.  0.
         24    2    3    3    0    0  0.75941414203E+02 -0.14781611470E+02 -0.60317939270E+02  0.12889872024E+03  0.83612390551E+02 0.  0.
         -6    2    1    2    0  502 -0.42729060582E+02 -0.44710857340E+02 -0.24112675288E+02  0.18757839224E+03  0.17544058465E+03 0.  0.
        -24    2    5    5    0    0 -0.22245086041E+02 -0.28360040202E+02  0.57743909581E+02  0.10149974843E+03  0.75290796941E+02 0.  0.
          5    1    3    3  501    0 -0.33212353621E+02  0.59492468810E+02 -0.35526365265E+02  0.76984588764E+02  0.47000000000E+01 0. -1.
        -13    1    4    4    0    0  0.66935528743E+02 -0.12703864773E+02 -0.25709349433E+00  0.68130898170E+02  0.00000000000E+00 0.  1.
         14    1    4    4    0    0  0.90058854598E+01 -0.20777466976E+01 -0.60060845776E+02  0.60767822073E+02  0.00000000000E+00 0. -1.
         -5    1    5    5    0  502 -0.20483974541E+02 -0.16350817138E+02 -0.81856584869E+02  0.86078643812E+02  0.47000000000E+01 0.  1.
         11    1    6    6    0    0  0.18281831566E+02 -0.36901808980E+02  0.21466174884E+02  0.46440989821E+02  0.00000000000E+00 0. -1.
        -12    1    6    6    0    0 -0.40526917607E+02  0.85417687780E+01  0.36277734697E+02  0.55058758607E+02  0.00000000000E+00 0.  1.
</event>
<event>
12    1  0.8563264E-002  0.1783823E+03  0.7818608E-02  0.1169428E+00
         21   -1    0    0  501  502  0.00000000000E+00  0.00000000000E+00  0.52059216271E+03  0.52059216271E+03  0.00000000000E+00 0.  1.
         21   -1    0    0  502  503 -0.00000000000E+00 -0.00000000000E+00 -0.16124477893E+03  0.16124477893E+03  0.00000000000E+00 0.  1.
         -6    2    1    2    0  503 -0.45729700501E+02 -0.28010474523E+01 -0.89099401179E+02  0.19921413582E+03  0.17218744799E+03 0.  0.
        -24    2    3    3    0    0 -0.73074725575E+00  0.42105651247E+02 -0.71679578930E+00  0.90241238658E+02  0.79809444929E+02 0.  0.
          6    2    1    2  501    0  0.45729700501E+02  0.28010474523E+01  0.44844678496E+03  0.48262280581E+03  0.17239838274E+03 0.  0.
         24    2    5    5    0    0 -0.38955508648E+02 -0.16849729544E+01  0.28945996131E+03  0.30237128953E+03  0.78236543508E+02 0.  0.
          5    1    5    5  501    0  0.84685209150E+02  0.44860204067E+01  0.15898682365E+03  0.18025151628E+03  0.47000000000E+01 0. -1.
        -13    1    6    6    0    0 -0.30203801847E+02 -0.35276618381E+02  0.10707546711E+03  0.11671274612E+03  0.00000000000E+00 0.  1.
         14    1    6    6    0    0 -0.87517068017E+01  0.33591645426E+02  0.18238449420E+03  0.18565854341E+03  0.00000000000E+00 0. -1.
         -5    1    3    3    0  503 -0.44998953246E+02 -0.44906698699E+02 -0.88382605390E+02  0.10897289717E+03  0.47000000000E+01 0.  1.
         11    1    4    4    0    0 -0.19228649366E+02 -0.12641372375E+02 -0.18773436028E+02  0.29698268507E+02  0.00000000000E+00 0. -1.
        -12    1    4    4    0    0  0.18497902111E+02  0.54747023623E+02  0.18056640239E+02  0.60542970151E+02  0.00000000000E+00 0.  1.
</event>
<event>
12    1  0.8563264E-002  0.1707734E+03  0.7818608E-02  0.1177183E+00
         21   -1    0    0  501  502  0.00000000000E+00  0.00000000000E+00  0.34295808636E+03  0.34295808636E+03  0.00000000000E+00 0. -1.
         21   -1    0    0  502  503 -0.00000000000E+00 -0.00000000000E+00 -0.45100874576E+03  0.45100874576E+03  0.00000000000E+00 0. -1.
         -6    2    1    2    0  503  0.10076477247E+02  0.10938985833E+02 -0.41177712801E+03  0.44578466206E+03  0.17012455724E+03 0.  0.
        -24    2    3    3    0    0  0.30371182645E+02  0.65621769039E+02 -0.21199192680E+03  0.23760613659E+03  0.79293592486E+02 0.  0.
          6    2    1    2  501    0 -0.10076477247E+02 -0.10938985833E+02  0.30372646861E+03  0.34818217005E+03  0.16958731970E+03 0.  0.
         24    2    5    5    0    0 -0.10807241554E+02  0.58660693297E+02  0.18481669779E+03  0.21031893003E+03  0.80740121015E+02 0.  0.
          5    1    5    5  501    0  0.73076430714E+00 -0.69599679131E+02  0.11890977082E+03  0.13786324002E+03  0.47000000000E+01 0. -1.
        -11    1    6    6    0    0 -0.41613434898E+02  0.11999570500E+02  0.96763111480E+02  0.10601305297E+03  0.00000000000E+00 0.  1.
         12    1    6    6    0    0  0.30806193344E+02  0.46661122798E+02  0.88053586306E+02  0.10430587707E+03  0.00000000000E+00 0. -1.
         -5    1    3    3    0  503 -0.20294705398E+02 -0.54682783206E+02 -0.19978520121E+03  0.20817852548E+03  0.47000000000E+01 0.  1.
         13    1    4    4    0    0  0.45550636608E+02  0.49263252891E+02 -0.20255206563E+03  0.21337541534E+03  0.00000000000E+00 0. -1.
        -14    1    4    4    0    0 -0.15179453963E+02  0.16358516148E+02 -0.94398611652E+01  0.24230721244E+02  0.00000000000E+00 0.  1.
</event>
<event>
12    1  0.8563264E-002  0.1951625E+03  0.7818608E-02  0.1154053E+00
         21   -1    0    0  503  502  0.00000000000E+00  0.00000000000E+00  0.32560784865E+03  0.32560784865E+03  0.00000000000E+00 0. -1.
         21   -1    0    0  501  503 -0.00000000000E+00 -0.00000000000E+00 -0.14756435992E+03  0.14756435992E+03  0.00000000000E+00 0. -1.
          6    2    1    2  501    0  0.25316008336E+02 -0.86723652418E+02 -0.19359158627E+02  0.19612028447E+03  0.17299276514E+03 0.  0.
         24    2    3    3    0    0 -0.21045441954E+02  0.12007758754E+02  0.14469315118E+02  0.81823603584E+02  0.76802630985E+02 0.  0.
         -6    2    1    2    0  502 -0.25316008336E+02  0.86723652418E+02  0.19740264735E+03  0.27705192410E+03  0.17212806656E+03 0.  0.
        -24    2    5    5    0    0 -0.27672978753E+02  0.38157009002E+01  0.16956678413E+03  0.18943794681E+03  0.79708770449E+02 0.  0.
          5    1    3    3  501    0  0.46361450290E+02 -0.98731411172E+02 -0.33828473745E+02  0.11429668088E+03  0.47000000000E+01 0. -1.
        -11    1    4    4    0    0 -0.28807866450E+02  0.24963004782E+02 -0.20823054440E+02  0.43435519720E+02  0.00000000000E+00 0.  1.
         12    1    4    4    0    0  0.77624244963E+01 -0.12955246028E+02  0.35292369558E+02  0.38388083864E+02  0.00000000000E+00 0. -1.
         -5    1    5    5    0  502  0.23569704163E+01  0.82907951518E+02  0.27835863223E+02  0.87613977286E+02  0.47000000000E+01 0.  1.
         11    1    6    6    0    0 -0.73075516276E-02  0.34738736282E+02  0.11931875039E+03  0.12427286126E+03  0.00000000000E+00 0. -1.
        -12    1    6    6    0    0 -0.27665671201E+02 -0.30923035382E+02  0.50248033743E+02  0.65165085554E+02  0.00000000000E+00 0.  1.
</event>
<event>
12    1  0.8563264E-002  0.1859054E+03  0.7818608E-02  0.1162992E+00
         21   -1    0    0  501  502  0.00000000000E+00  0.00000000000E+00  0.28451148999E+03  0.28451148999E+03  0.00000000000E+00 0.  1.
         21   -1    0    0  502  503 -0.00000000000E+00 -0.00000000000E+00 -0.13770342891E+03  0.13770342891E+03  0.00000000000E+00 0.  1.
         -6    2    1    2    0  503  0.46179901411E+02  0.39240699976E+02 -0.32030679723E+01  0.18593297298E+03  0.17575094585E+03 0.  0.
        -24    2    3    3    0    0  0.35414805448E+02 -0.21317524610E+02  0.51889393273E+02  0.10322592889E+03  0.79085004650E+02 0.  0.
          6    2    1    2  501    0 -0.46179901411E+02 -0.39240699976E+02  0.15001112905E+03  0.23628194591E+03  0.17220163558E+03 0.  0.
         24    2    5    5    0    0 -0.30301283435E+01  0.27006741498E+01  0.16173083492E+03  0.17479679904E+03  0.66185970358E+02 0.  0.
          5    1    5    5  501    0 -0.43149773068E+02 -0.41941374126E+02 -0.11719705874E+02  0.61485146866E+02  0.47000000000E+01 0. -1.
        -11    1    6    6    0    0 -0.12138270475E+02 -0.21167324223E+02  0.13729008629E+03  0.13944160433E+03  0.00000000000E+00 0.  1.
         12    1    6    6    0    0  0.91081421313E+01  0.23867998373E+02  0.24440748635E+02  0.35355194714E+02  0.00000000000E+00 0. -1.
         -5    1    3    3    0  503  0.10765095964E+02  0.60558224586E+02 -0.55092461245E+02  0.82707044091E+02  0.47000000000E+01 0.  1.
         13    1    4    4    0    0  0.10876154719E+02  0.30107449023E+02  0.15037428016E+02  0.35367689626E+02  0.00000000000E+00 0. -1.
        -14    1    4    4    0    0  0.24538650729E+02 -0.51424973633E+02  0.36851965257E+02  0.67858239264E+02  0.00000000000E+00 0.  1.
</event>
<event>
12    1  0.8563264E-002  0.2974290E+03  0.7818608E-02  0.1087301E+00
         21   -1    0    0  501  502  0.00000000000E+00  0.00000000000E+00  0.11054085282E+03  0.11054085282E+03  0.00000000000E+00 0. -1.
         21   -1    0    0  502  503 -0.00000000000E+00 -0.00000000000E+00 -0.16397357617E+04  0.16397357617E+04  0.00000000000E+00 0. -1.
         -6    2    1    2    0  503 -0.13229755324E+03 -0.19445567103E+03 -0.14004510456E+04  0.14316868073E+04  0.18206683522E+03 0.  0.
        -24    2    3    3    0    0 -0.15006075411E+03 -0.19134073880E+03 -0.10896866998E+04  0.11203641407E+04  0.93108516477E+02 0.  0.
          6    2    1    2  501    0  0.13229755324E+03  0.19445567103E+03 -0.12874386333E+03  0.31858980726E+03  0.17207217193E+03 0.  0.
         24    2    5    5    0    0  0.16059295952E+03  0.18694549295E+03 -0.10220165090E+03  0.27879518662E+03  0.80887963595E+02 0.  0.
          5    1    5    5  501    0 -0.28295406276E+02  0.75101780810E+01 -0.26542212429E+02  0.39794620638E+02  0.47000000000E+01 0. -1.
        -13    1    6    6    0    0  0.23537183371E+02 -0.44297877316E+01 -0.10970709463E+02  0.26343471421E+02  0.00000000000E+00 0.  1.
         14    1    6    6    0    0  0.13705577615E+03  0.19137528068E+03 -0.91230941435E+02  0.25245171520E+03  0.00000000000E+00 0. -1.
         -5    1    3    3    0  503  0.17763200864E+02 -0.31149322363E+01 -0.31076434580E+03  0.31132266659E+03  0.47000000000E+01 0.  1.
         13    1    4    4    0    0 -0.53087811891E+02 -0.63322737459E+02 -0.58320659889E+03  0.58903142687E+03  0.00000000000E+00 0. -1.
        -14    1    4    4    0    0 -0.96972942217E+02 -0.12801800134E+03 -0.50648010090E+03  0.53133271384E+03  0.00000000000E+00 0.  1.
</event>
<event>
12    1  0.8563264E-002  0.2014470E+03  0.7818608E-02  0.1149264E+00
         21   -1    0    0  501  502  0.00000000000E+00  0.00000000000E+00  0.71187559194E+02  0.71187559194E+02  0.00000000000E+00 0.  1.
         21   -1    0    0  502  503 -0.00000000000E+00 -0.00000000000E+00 -0.10481069315E+04  0.10481069315E+04  0.00000000000E+00 0.  1.
         -6    2    1    2    0  503 -0.70689142034E+02 -0.70920515932E+02 -0.87259500917E+03  0.89554617472E+03  0.17479767346E+03 0.  0.
        -24    2    3    3    0    0 -0.60051699033E+02 -0.19203980448E+02 -0.79568014464E+03  0.80213449654E+03  0.79610668456E+02 0.  0.
          6    2    1    2  501    0  0.70689142034E+02  0.70920515932E+02 -0.10432436311E+03  0.22374831595E+03  0.17074267706E+03 0.  0.
         24    2    5    5    0    0  0.99686258081E+02  0.90762091372E+02 -0.62127582959E+02  0.16863770798E+03  0.80023326034E+02 0.  0.
          5    1    5    5  501    0 -0.28997116047E+02 -0.19841575440E+02 -0.42196780153E+02  0.55110607965E+02  0.47000000000E+01 0. -1.
        -13    1    6    6    0    0  0.80234112476E+01 -0.71918179057E+01  0.11375104868E+02  0.15668132741E+02  0.00000000000E+00 0.  1.
         14    1    6    6    0    0  0.91662846833E+02  0.97953909277E+02 -0.73502687827E+02  0.15296957524E+03  0.00000000000E+00 0. -1.
         -5    1    3    3    0  503 -0.10637443001E+02 -0.51716535484E+02 -0.76914864524E+02  0.93411678182E+02  0.47000000000E+01 0.  1.
         13    1    4    4    0    0 -0.60791084465E+02  0.13926531284E+02 -0.37495255038E+03  0.38010382695E+03  0.00000000000E+00 0. -1.
        -14    1    4    4    0    0  0.73938543232E+00 -0.33130511732E+02 -0.42072759426E+03  0.42203066959E+03  0.00000000000E+00 0.  1.
</event>
<event>
12    1  0.8563264E-002  0.2228363E+03  0.7818608E-02  0.1131793E+00
         21   -1    0    0  503  502  0.00000000000E+00  0.00000000000E+00  0.11954425740E+03  0.11954425740E+03  0.00000000000E+00 0.  1.
         21   -1    0    0  501  503 -0.00000000000E+00 -0.00000000000E+00 -0.48553689905E+03  0.48553689905E+03  0.00000000000E+00 0. -1.
          6    2    1    2  501    0 -0.90939195603E+02 -0.11119804047E+03 -0.29807499503E+03  0.37216219384E+03  0.17035567018E+03 0.  0.
         24    2    3    3    0    0 -0.10548321989E+03 -0.57198436888E+02 -0.10064217850E+03  0.16690797860E+03  0.57715287120E+02 0.  0.
         -6    2    1    2    0  502  0.90939195603E+02  0.11119804047E+03 -0.67917646617E+02  0.23291896261E+03  0.17030412479E+03 0.  0.
        -24    2    5    5    0    0  0.78405962665E+01  0.76219680490E+02 -0.87045348792E+02  0.14063233374E+03  0.79559071777E+02 0.  0.
          5    1    3    3  501    0  0.14544024290E+02 -0.53999603577E+02 -0.19743281653E+03  0.20525421524E+03  0.47000000000E+01 0. -1.
        -11    1    4    4    0    0 -0.98513446567E+02 -0.29098678546E+02 -0.88218726449E+02  0.13540375159E+03  0.00000000000E+00 0.  1.
         12    1    4    4    0    0 -0.69697733255E+01 -0.28099758342E+02 -0.12423452050E+02  0.31504227017E+02  0.00000000000E+00 0. -1.
         -5    1    5    5    0  502  0.83098599337E+02  0.34978359975E+02  0.19127702176E+02  0.92286628873E+02  0.47000000000E+01 0.  1.
         13    1    6    6    0    0  0.23148065412E+02 -0.78108285741E+01 -0.25792158152E+02  0.35525728669E+02  0.00000000000E+00 0. -1.
        -14    1    6    6    0    0 -0.15307469145E+02  0.84030509064E+02 -0.61253190640E+02  0.10510660507E+03  0.00000000000E+00 0.  1.
</event>
<event>
12    1  0.8563264E-002  0.1778705E+03  0.7818608E-02  0.1170121E+00
         21   -1    0    0  503  502  0.00000000000E+00  0.00000000000E+00  0.11269402434E+03  0.11269402434E+03  0.00000000000E+00 0. -1.
         21   -1    0    0  501  503 -0.00000000000E+00 -0.00000000000E+00 -0.32662692391E+03  0.32662692391E+03  0.00000000000E+00 0. -1.
          6    2    1    2  501    0  0.18185943430E+02  0.40648574624E+02 -0.19092020218E+03  0.26093762358E+03  0.17220593673E+03 0.  0.
         24    2    3    3    0    0 -0.44118727366E+02  0.61117252067E+02 -0.13450434478E+03  0.17430230905E+03  0.81290193559E+02 0.  0.
         -6    2    1    2    0  502 -0.18185943430E+02 -0.40648574624E+02 -0.23012697388E+02  0.17838332467E+03  0.17119576841E+03 0.  0.
        -24    2    5    5    0    0 -0.39466502882E+02 -0.52688760478E+02 -0.70323467441E+02  0.12492093370E+03  0.79537030822E+02 0.  0.
          5    1    3    3  501    0  0.62304670796E+02 -0.20468677443E+02 -0.56415857398E+02  0.86635314539E+02  0.47000000000E+01 0. -1.
        -11    1    4    4    0    0  0.96724818313E+01  0.44853404366E+01  0.69425247109E+01  0.12722964787E+02  0.00000000000E+00 0.  1.
         12    1    4    4    0    0 -0.53791209197E+02  0.56631911631E+02 -0.14144686949E+03  0.16157934426E+03  0.00000000000E+00 0. -1.
         -5    1    5    5    0  502  0.21280559452E+02  0.12040185854E+02  0.47310770053E+02  0.53462390977E+02  0.47000000000E+01 0.  1.
         11    1    6    6    0    0 -0.43254071517E+02 -0.30107049739E+02 -0.18636559864E+01  0.52733503207E+02  0.00000000000E+00 0. -1.
        -12    1    6    6    0    0  0.37875686359E+01 -0.22581710739E+02 -0.68459811455E+02  0.72187430488E+02  0.00000000000E+00 0.  1.
</event>
<event>
12    1  0.8563264E-002  0.1869578E+03  0.7818608E-02  0.1161820E+00
         21   -1    0    0  503  502  0.00000000000E+00  0.00000000000E+00  0.10960442493E+04  0.10960442493E+04  0.00000000000E+00 0. -1.
         21   -1    0    0  501  503 -0.00000000000E+00 -0.00000000000E+00 -0.32045876632E+02  0.32045876632E+02  0.00000000000E+00 0. -1.
          6    2    1    2  501    0 -0.55518343909E+02 -0.76780619920E+01  0.60463294392E+03  0.63213670012E+03  0.17571161494E+03 0.  0.
         24    2    3    3    0    0 -0.36040361168E+02 -0.61841777824E+02  0.23714948129E+03  0.26014303724E+03  0.79443125744E+02 0.  0.
         -6    2    1    2    0  502  0.55518343909E+02  0.76780619920E+01  0.45936542879E+03  0.49595342585E+03  0.17835908807E+03 0.  0.
        -24    2    5    5    0    0  0.83691252263E+02  0.21252211959E+02  0.44678565093E+03  0.46191945571E+03  0.79349123926E+02 0.  0.
          5    1    3    3  501    0 -0.19477982741E+02  0.54163715832E+02  0.36748346263E+03  0.37199366289E+03  0.47000000000E+01 0. -1.
        -13    1    4    4    0    0 -0.14543927830E+02 -0.40767356783E+02  0.34723177358E+02  0.55490560113E+02  0.00000000000E+00 0.  1.
         14    1    4    4    0    0 -0.21496433338E+02 -0.21074421041E+02  0.20242630393E+03  0.20465247712E+03  0.00000000000E+00 0. -1.
         -5    1    5    5    0  502 -0.28172908353E+02 -0.13574149967E+02  0.12579777860E+02  0.34033970139E+02  0.47000000000E+01 0.  1.
         11    1    6    6    0    0  0.37446224617E+02  0.40676143417E+02  0.13121339049E+03  0.14238582172E+03  0.00000000000E+00 0. -1.
        -12    1    6    6    0    0  0.46245027645E+02 -0.19423931458E+02  0.31557226044E+03  0.31953363400E+03  0.00000000000E+00 0.  1.
</event>
<event>
12    1  0.8563264E-002  0.1736901E+03  0.7818608E-02  0.1174127E+00
         21   -1    0    0  503  502  0.00000000000E+00  0.00000000000E+00  0.35911961972E+03  0.35911961972E+03  0.00000000000E+00 0. -1.
         21   -1    0    0  501  503 -0.00000000000E+00 -0.00000000000E+00 -0.85613183411E+02  0.85613183411E+02  0.00000000000E+00 0. -1.
          6    2    1    2  501    0 -0.16089050235E+01 -0.22137992976E+02  0.16840927845E+03  0.24172134773E+03  0.17197338623E+03 0.  0.
         24    2    3    3    0    0  0.56296187924E+01  0.49300907573E+02  0.57302589068E+02  0.10934801520E+03  0.78810720208E+02 0.  0.
         -6    2    1    2    0  502  0.16089050235E+01  0.22137992976E+02  0.10509715786E+03  0.20301145540E+03  0.17226595463E+03 0.  0.
        -24    2    5    5    0    0  0.59521171609E+02  0.35824337120E+02  0.97401294852E+02  0.14282455529E+03  0.78010822046E+02 0.  0.
          5    1    3    3  501    0 -0.72385238159E+01 -0.71438900549E+02  0.11110668939E+03  0.13237333253E+03  0.47000000000E+01 0. -1.
        -11    1    4    4    0    0  0.22642529283E+02  0.11580010750E+02  0.62658352286E+02  0.67622850373E+02  0.00000000000E+00 0.  1.
         12    1    4    4    0    0 -0.17012910491E+02  0.37720896823E+02 -0.53557632182E+01  0.41725164831E+02  0.00000000000E+00 0. -1.
         -5    1    5    5    0  502 -0.57912266585E+02 -0.13686344144E+02  0.76958630069E+01  0.60186900107E+02  0.47000000000E+01 0.  1.
         13    1    6    6    0    0  0.31753836344E+01  0.46650696915E+02  0.49362591037E+02  0.67992911232E+02  0.00000000000E+00 0. -1.
        -14    1    6    6    0    0  0.56345787974E+02 -0.10826359795E+02  0.48038703815E+02  0.74831644062E+02  0.00000000000E+00 0.  1.
</event>
<event>
12    1  0.8563264E-002  0.1735684E+03  0.7818608E-02  0.1174574E+00
         21   -1    0    0  501  502  0.00000000000E+00  0.00000000000E+00  0.81624931036E+02  0.81624931036E+02  0.00000000000E+00 0. -1.
         21   -1    0    0  502  503 -0.00000000000E+00 -0.00000000000E+00 -0.10368837830E+04  0.10368837830E+04  0.00000000000E+00 0. -1.
         -6    2    1    2    0  503  0.13386581611E+02 -0.13807674948E+02 -0.92679481636E+03  0.94262185319E+03  0.17093119678E+03 0.  0.
        -24    2    3    3    0    0 -0.48716685143E+02 -0.19440577856E+02 -0.72708079275E+03  0.73334613419E+03  0.79992636357E+02 0.  0.
          6    2    1    2  501    0 -0.13386581611E+02  0.13807674948E+02 -0.28464035596E+02  0.17588686083E+03  0.17249966387E+03 0.  0.
         24    2    5    5    0    0  0.10582935975E+02 -0.54767773972E+02 -0.37789968244E+02  0.10249617350E+03  0.77239085197E+02 0.  0.
          5    1    5    5  501    0 -0.23969517587E+02  0.68575448920E+02  0.93259326474E+01  0.73390687336E+02  0.47000000000E+01 0. -1.
        -11    1    6    6    0    0 -0.24055563360E+02 -0.54552508236E+02 -0.30997153872E+02  0.67197245714E+02  0.00000000000E+00 0.  1.
         12    1    6    6    0    0  0.34638499336E+02 -0.21526573597E+00 -0.67928143723E+01  0.35298927784E+02  0.00000000000E+00 0. -1.
         -5    1    3    3    0  503  0.62103266754E+02  0.56329029084E+01 -0.19971402361E+03  0.20927571900E+03  0.47000000000E+01 0.  1.
         13    1    4    4    0    0  0.90905449210E+01  0.50825041817E+01 -0.13711318242E+02  0.17218307224E+02  0.00000000000E+00 0. -1.
        -14    1    4    4    0    0 -0.57807230064E+02 -0.24523082038E+02 -0.71336947450E+03  0.71612782697E+03  0.00000000000E+00 0.  1.
</event>
<event>
12    1  0.8563264E-002  0.2866753E+03  0.7818608E-02  0.1092206E+00
         21   -1    0    0  501  502  0.00000000000E+00  0.00000000000E+00  0.12155354950E+03  0.12155354950E+03  0.00000000000E+00 0.  1.
         21   -1    0    0  502  503 -0.00000000000E+00 -0.00000000000E+00 -0.11448151870E+04  0.11448151870E+04  0.00000000000E+00 0. -1.
         -6    2    1    2    0  503  0.22649617995E+03  0.35414143441E+02 -0.91804307236E+03  0.96176181458E+03  0.17212792972E+03 0.  0.
        -24    2    3    3    0    0  0.22111933701E+03  0.12509146492E+02 -0.90336482210E+03  0.93363548606E+03  0.80975175716E+02 0.  0.
          6    2    1    2  501    0 -0.22649617995E+03 -0.35414143441E+02 -0.10521856516E+03  0.30460692195E+03  0.17076225976E+03 0.  0.
         24    2    5    5    0    0 -0.19885920681E+03 -0.58653376634E+02 -0.33248269708E+02  0.22394914073E+03  0.77862490777E+02 0.  0.
          5    1    5    5  501    0 -0.27636973136E+02  0.23239233193E+02 -0.71970295452E+02  0.80657781218E+02  0.47000000000E+01 0. -1.
        -13    1    6    6    0    0 -0.41173170814E+02  0.12869202332E+02  0.12400334120E+02  0.44884458889E+02  0.00000000000E+00 0.  1.
         14    1    6    6    0    0 -0.15768603600E+03 -0.71522578966E+02 -0.45648603827E+02  0.17906468184E+03  0.00000000000E+00 0. -1.
         -5    1    3    3    0  503  0.53768429411E+01  0.22904996949E+02 -0.14678250262E+02  0.28126328520E+02  0.47000000000E+01 0.  1.
         13    1    4    4    0    0  0.14161709679E+03  0.25427086790E+02 -0.42910876515E+03  0.45258841255E+03  0.00000000000E+00 0. -1.
        -14    1    4    4    0    0  0.79502240220E+02 -0.12917940298E+02 -0.47425605695E+03  0.48104707352E+03  0.00000000000E+00 0.  1.
</event>
<event>
12    1  0.8563264E-002  0.2405753E+03  0.7818608E-02  0.1119599E+00
         21   -1    0    0  503  502  0.00000000000E+00  0.00000000000E+00  0.50381841451E+02  0.50381841451E+02  0.00000000000E+00 0.  1.
         21   -1    0    0  501  503 -0.00000000000E+00 -0.00000000000E+00 -0.19888471534E+04  0.19888471534E+04  0.00000000000E+00 0. -1.
          6    2    1    2  501    0  0.16640544660E+03  0.48304024204E+01 -0.16327155218E+04  0.16501796085E+04  0.17210072543E+03 0.  0.
         24    2    3    3    0    0  0.54705490329E+02 -0.12568384892E+02 -0.38801422524E+03  0.40034641734E+03  0.81065158474E+02 0.  0.
         -6    2    1    2    0  502 -0.16640544660E+03 -0.48304024204E+01 -0.30574979018E+03  0.38904938640E+03  0.17367321444E+03 0.  0.
        -24    2    5    5    0    0 -0.13572654825E+03  0.27720482650E+02 -0.30472476008E+03  0.34406165908E+03  0.79568365446E+02 0.  0.
          5    1    3    3  501    0  0.11169995627E+03  0.17398787313E+02 -0.12447012965E+04  0.12498331911E+04  0.47000000000E+01 0. -1.
        -11    1    4    4    0    0  0.45547124317E+02 -0.44493444494E+02 -0.21753377156E+03  0.22666086761E+03  0.00000000000E+00 0.  1.
         12    1    4    4    0    0  0.91583660116E+01  0.31925059602E+02 -0.17048045368E+03  0.17368554973E+03  0.00000000000E+00 0. -1.
         -5    1    5    5    0  502 -0.30678898352E+02 -0.32550885071E+02 -0.10250301003E+01  0.44987727323E+02  0.47000000000E+01 0.  1.
         11    1    6    6    0    0 -0.86972322687E+02 -0.15196267726E+02 -0.12562066668E+03  0.15354368552E+03  0.00000000000E+00 0. -1.
        -12    1    6    6    0    0 -0.48754225563E+02  0.42916750376E+02 -0.17910409341E+03  0.19051797356E+03  0.00000000000E+00 0.  1.
</event>
<event>
12    1  0.8563264E-002  0.1974305E+03  0.7818608E-02  0.1152113E+00
         21   -1    0    0  501  502  0.00000000000E+00  0.00000000000E+00  0.17644661669E+03  0.17644661669E+03  0.00000000000E+00 0.  1.
         21   -1    0    0  502  503 -0.00000000000E+00 -0.00000000000E+00 -0.35029953704E+03  0.35029953704E+03  0.00000000000E+00 0.  1.
         -6    2    1    2    0  503 -0.95725109134E+02  0.79410690679E+01 -0.24771711461E+03  0.31676893283E+03  0.17248892962E+03 0.  0.
        -24    2    3    3    0    0 -0.25373046910E+02 -0.13864874158E+02 -0.22253095278E+03  0.23878595670E+03  0.81625252978E+02 0.  0.
          6    2    1    2  501    0  0.95725109134E+02 -0.79410690679E+01  0.73864194254E+02  0.20997722089E+03  0.17148806665E+03 0.  0.
         24    2    5    5    0    0  0.10887877984E+03  0.41365272824E+02  0.34188923497E+02  0.14516710198E+03  0.79617400818E+02 0.  0.
          5    1    5    5  501    0 -0.13153670705E+02 -0.49306341892E+02  0.39675270757E+02  0.64810118912E+02  0.47000000000E+01 0. -1.
        -13    1    6    6    0    0  0.10227075865E+03  0.43788983729E+02  0.10159286031E+01  0.11125563034E+03  0.00000000000E+00 0.  1.
         14    1    6    6    0    0  0.66080211836E+01 -0.24237109049E+01  0.33172994894E+02  0.33911471640E+02  0.00000000000E+00 0. -1.
         -5    1    3    3    0  503 -0.70352062224E+02  0.21805943226E+02 -0.25186161822E+02  0.77982976132E+02  0.47000000000E+01 0.  1.
         11    1    4    4    0    0  0.24806591178E+02  0.99216686915E+01 -0.40879544010E+02  0.48835884286E+02  0.00000000000E+00 0. -1.
        -12    1    4    4    0    0 -0.50179638088E+02 -0.23786542849E+02 -0.18165140877E+03  0.18995007241E+03  0.00000000000E+00 0.  1.
</event>
<event>
12    1  0.8563264E-002  0.2137915E+03  0.7818608E-02  0.1138638E+00
         21   -1    0    0  501  502  0.00000000000E+00  0.00000000000E+00  0.37702433663E+03  0.37702433663E+03  0.00000000000E+00 0. -1.
         21   -1    0    0  502  503 -0.00000000000E+00 -0.00000000000E+00 -0.25058477658E+03  0.25058477658E+03  0.00000000000E+00 0.  1.
         -6    2    1    2    0  503 -0.95309436373E+02  0.81967513224E+02 -0.16235882660E+03  0.26828848701E+03  0.17267241181E+03 0.  0.
        -24    2    3    3    0    0 -0.52131934754E+02 -0.22391746597E+02 -0.54364214158E+02  0.11195525934E+03  0.79745742054E+02 0.  0.
          6    2    1    2  501    0  0.95309436373E+02 -0.81967513224E+02  0.28879838665E+03  0.35932062621E+03  0.17292843143E+03 0.  0.
         24    2    5    5    0    0  0.12709849386E+03 -0.31646901763E+02  0.20362524361E+03  0.25530494273E+03  0.81005064126E+02 0.  0.
          5    1    5    5  501    0 -0.31789057485E+02 -0.50320611461E+02  0.85173143044E+02  0.10401568348E+03  0.47000000000E+01 0. -1.
        -11    1    6    6    0    0 -0.26095114001E+01  0.49017901546E+00 -0.60842903645E+01  0.66384045112E+01  0.00000000000E+00 0.  1.
         12    1    6    6    0    0  0.12970800526E+03 -0.32137080779E+02  0.20970953397E+03  0.24866653822E+03  0.00000000000E+00 0. -1.
         -5    1    3    3    0  503 -0.43177501619E+02  0.10435925982E+03 -0.10799461244E+03  0.15633322767E+03  0.47000000000E+01 0.  1.
         11    1    4    4    0    0  0.57523580834E+01  0.13977469455E+02  0.99497801558E+01  0.18095784068E+02  0.00000000000E+00 0. -1.
        -12    1    4    4    0    0 -0.57884292838E+02 -0.36369216052E+02 -0.64313994314E+02  0.93859475271E+02  0.00000000000E+00 0.  1.
</event>
<event>
12    1  0.8563264E-002  0.2011626E+03  0.7818608E-02  0.1148971E+00
         21   -1    0    0  503  502  0.00000000000E+00  0.00000000000E+00  0.17103472731E+04  0.17103472731E+04  0.00000000000E+00 0. -1.
         21   -1    0    0  501  503 -0.00000000000E+00 -0.00000000000E+00 -0.44466268701E+02  0.44466268701E+02  0.00000000000E+00 0. -1.
          6    2    1    2  501    0 -0.23692594974E+02  0.10115170334E+03  0.22997983186E+03  0.30488989750E+03  0.17109681583E+03 0.  0.
         24    2    3    3    0    0  0.45586602952E+02  0.85032443709E+02  0.17242465203E+03  0.21327043165E+03  0.80283009017E+02 0.  0.
         -6    2    1    2    0  502  0.23692594974E+02 -0.10115170334E+03  0.14359011725E+04  0.14499236443E+04  0.17225966120E+03 0.  0.
        -24    2    5    5    0    0 -0.39569327272E+02 -0.46154383923E+02  0.48081125113E+03  0.49115066601E+03  0.79709213305E+02 0.  0.
          5    1    3    3  501    0 -0.69279197925E+02  0.16119259635E+02  0.57555179834E+02  0.91619465847E+02  0.47000000000E+01 0. -1.
        -11    1    4    4    0    0  0.37453435018E+02  0.74730879902E+02  0.17975242476E+03  0.19823823651E+03  0.00000000000E+00 0.  1.
         12    1    4    4    0    0  0.81331679334E+01  0.10301563806E+02 -0.73277727349E+01  0.15032195141E+02  0.00000000000E+00 0. -1.
         -5    1    5    5    0  502  0.63261922245E+02 -0.54997319421E+02  0.95508992138E+03  0.95877297828E+03  0.47000000000E+01 0.  1.
         13    1    6    6    0    0  0.22771344330E+01 -0.37314060329E+02  0.37735386291E+03  0.37920108425E+03  0.00000000000E+00 0. -1.
        -14    1    6    6    0    0 -0.41846461705E+02 -0.88403235941E+01  0.10345738822E+03  0.11194958176E+03  0.00000000000E+00 0.  1.
</event>
<event>
12    1  0.8563264E-002  0.1807076E+03  0.7818608E-02  0.1167234E+00
         21   -1    0    0  501  502  0.00000000000E+00  0.00000000000E+00  0.29545823274E+03  0.29545823274E+03  0.00000000000E+00 0. -1.
         21   -1    0    0  502  503 -0.00000000000E+00 -0.00000000000E+00 -0.11761237144E+03  0.11761237144E+03  0.00000000000E+00 0. -1.
         -6    2    1    2    0  503  0.19440677042E+02 -0.51970882189E+02  0.37083469928E+02  0.18400886297E+03  0.17147934392E+03 0.  0.
        -24    2    3    3    0    0 -0.36305855078E+00 -0.99171102523E+02  0.12693340821E+02  0.12711407287E+03  0.78497307166E+02 0.  0.
          6    2    1    2  501    0 -0.19440677042E+02  0.51970882189E+02  0.14076239138E+03  0.22906174121E+03  0.17197766698E+03 0.  0.
         24    2    5    5    0    0 -0.18168611876E+02 -0.27251045371E+02  0.11770380255E+03  0.14640872871E+03  0.80675973981E+02 0.  0.
          5    1    5    5  501    0 -0.12720651656E+01  0.79221927561E+02  0.23058588829E+02  0.82653012498E+02  0.47000000000E+01 0. -1.
        -13    1    6    6    0    0 -0.22541934069E+02 -0.19851234929E+02  0.16978470803E+01  0.30084763660E+02  0.00000000000E+00 0.  1.
         14    1    6    6    0    0  0.43733221930E+01 -0.73998104420E+01  0.11600595547E+03  0.11632396505E+03  0.00000000000E+00 0. -1.
         -5    1    3    3    0  503  0.19803735593E+02  0.47200220334E+02  0.24390129107E+02  0.56894790103E+02  0.47000000000E+01 0.  1.
         11    1    4    4    0    0 -0.51824141496E+01 -0.52700742066E+02  0.45670184396E+02  0.69928473267E+02  0.00000000000E+00 0. -1.
        -12    1    4    4    0    0  0.48193555989E+01 -0.46470360457E+02 -0.32976843575E+02  0.57185599600E+02  0.00000000000E+00 0.  1.
</event>
<event>
12    1  0.8563264E-002  0.1741608E+03  0.7818608E-02  0.1173606E+00
         21   -1    0    0  501  502  0.00000000000E+00  0.00000000000E+00  0.23416554535E+03  0.23416554535E+03  0.00000000000E+00 0.  1.
         21   -1    0    0  502  503 -0.00000000000E+00 -0.00000000000E+00 -0.50297386651E+03  0.50297386651E+03  0.00000000000E+00 0.  1.
         -6    2    1    2    0  503  0.24711949224E+02 -0.12200874972E+02 -0.45201271964E+03  0.48436313741E+03  0.17185054082E+03 0.  0.
        -24    2    3    3    0    0 -0.42046147022E+02  0.24449079801E+02 -0.29482744111E+03  0.30963716801E+03  0.81156144526E+02 0.  0.
          6    2    1    2  501    0 -0.24711949224E+02  0.12200874972E+02  0.18320439848E+03  0.25277627445E+03  0.17196642555E+03 0.  0.
         24    2    5    5    0    0 -0.48771498175E+01 -0.37100588416E+02  0.17903861965E+03  0.19926461896E+03  0.79065294489E+02 0.  0.
          5    1    5    5  501    0 -0.19834799407E+02  0.49301463388E+02  0.41657788326E+01  0.53511655487E+02  0.47000000000E+01 0. -1.
        -11    1    6    6    0    0  0.78173806037E+01  0.10660785744E+02  0.12629901191E+03  0.12698899244E+03  0.00000000000E+00 0.  1.
         12    1    6    6    0    0 -0.12694530421E+02 -0.47761374159E+02  0.52739607741E+02  0.72275626520E+02  0.00000000000E+00 0. -1.
         -5    1    3    3    0  503  0.66758096246E+02 -0.36649954773E+02 -0.15718527852E+03  0.17472596940E+03  0.47000000000E+01 0.  1.
         11    1    4    4    0    0 -0.19694315398E+02  0.27663083662E+02 -0.34769785831E+02  0.48600928627E+02  0.00000000000E+00 0. -1.
        -12    1    4    4    0    0 -0.22351831624E+02 -0.32140038609E+01 -0.26005765528E+03  0.26103623938E+03  0.00000000000E+00 0.  1.
</event>
<event>
12    1  0.8563264E-002  0.3135617E+03  0.7818608E-02  0.1080084E+00
         21   -1    0    0  503  502  0.00000000000E+00  0.00000000000E+00  0.62287033772E+03  0.62287033772E+03  0.00000000000E+00 0.  1.
         21   -1    0    0  501  503 -0.00000000000E+00 -0.00000000000E+00 -0.16715403859E+03  0.16715403859E+03  0.00000000000E+00 0. -1.
          6    2    1    2  501    0  0.13015966498E+03  0.21086771011E+03  0.10464028482E+03  0.31930651172E+03  0.17204746340E+03 0.  0.
         24    2    3    3    0    0  0.10047390785E+03  0.11858308277E+03  0.13141716608E+03  0.21862489478E+03  0.79808642371E+02 0.  0.
         -6    2    1    2    0  502 -0.13015966498E+03 -0.21086771011E+03  0.35107601431E+03  0.47071786460E+03  0.19213071246E+03 0.  0.
        -24    2    5    5    0    0 -0.81475393292E+02 -0.22041362251E+03  0.33955857904E+03  0.41957078190E+03  0.74291370465E+02 0.  0.
          5    1    3    3  501    0  0.29685757125E+02  0.92284627341E+02 -0.26776881259E+02  0.10068161694E+03  0.47000000000E+01 0. -1.
        -13    1    4    4    0    0  0.24435817139E+02  0.14573013675E+02 -0.72297861832E+01  0.29355607558E+02  0.00000000000E+00 0.  1.
         14    1    4    4    0    0  0.76038090713E+02  0.10401006910E+03  0.13864695226E+03  0.18926928722E+03  0.00000000000E+00 0. -1.
         -5    1    5    5    0  502 -0.48684271685E+02  0.95459123931E+01  0.11517435265E+02  0.51147082693E+02  0.47000000000E+01 0.  1.
         13    1    6    6    0    0 -0.28074008262E+02 -0.17216284364E+03  0.24404521867E+03  0.29997710483E+03  0.00000000000E+00 0. -1.
        -14    1    6    6    0    0 -0.53401385031E+02 -0.48250778867E+02  0.95513360375E+02  0.11959367707E+03  0.00000000000E+00 0.  1.
</event>
<event>
12    1  0.8563264E-002  0.2931250E+03  0.7818608E-02  0.1089143E+00
         21   -1    0    0  503  502  0.00000000000E+00  0.00000000000E+00  0.15018043651E+03  0.15018043651E+03  0.00000000000E+00 0. -1.
         21   -1    0    0  501  503 -0.00000000000E+00 -0.00000000000E+00 -0.87787893179E+03  0.87787893179E+03  0.00000000000E+00 0.  1.
          6    2    1    2  501    0  0.21153585710E+03 -0.98708794431E+02 -0.66898994632E+03  0.72911291638E+03  0.17195130595E+03 0.  0.
         24    2    3    3    0    0  0.32674596474E+02 -0.57294741125E+02 -0.20226317635E+03  0.22755290784E+03  0.80744143701E+02 0.  0.
         -6    2    1    2    0  502 -0.21153585710E+03  0.98708794431E+02 -0.58708548959E+02  0.29894645192E+03  0.17728914930E+03 0.  0.
        -24    2    5    5    0    0 -0.21437102208E+03  0.72759887762E+02 -0.79396419518E+01  0.24166682346E+03  0.84207358791E+02 0.  0.
          5    1    3    3  501    0  0.17886126063E+03 -0.41414053306E+02 -0.46672676997E+03  0.50156000854E+03  0.47000000000E+01 0. -1.
        -13    1    4    4    0    0  0.18203423376E+02 -0.52296753773E+02 -0.50264884846E+02  0.74785518160E+02  0.00000000000E+00 0.  1.
         14    1    4    4    0    0  0.14471173098E+02 -0.49979873519E+01 -0.15199829150E+03  0.15276738968E+03  0.00000000000E+00 0. -1.
         -5    1    5    5    0  502  0.28351649770E+01  0.25948906669E+02 -0.50768907008E+02  0.57279628460E+02  0.47000000000E+01 0.  1.
         11    1    6    6    0    0 -0.79981945567E+02 -0.98165819081E+01 -0.21360535920E+02  0.83365156941E+02  0.00000000000E+00 0. -1.
        -12    1    6    6    0    0 -0.13438907651E+03  0.82576469670E+02  0.13420893968E+02  0.15830166652E+03  0.00000000000E+00 0.  1.
</event>
<event>
12    1  0.8563264E-002  0.2025343E+03  0.7818608E-02  0.1148014E+00
         21   -1    0    0  503  502  0.00000000000E+00  0.00000000000E+00  0.28027810799E+02  0.28027810799E+02  0.00000000000E+00 0.  1.
         21   -1    0    0  501  503 -0.00000000000E+00 -0.00000000000E+00 -0.15157758375E+04  0.15157758375E+04  0.00000000000E+00 0.  1.
          6    2    1    2  501    0 -0.61640845769E+02  0.84575042172E+02 -0.90816893701E+03  0.93047889113E+03  0.17340016453E+03 0.  0.
         24    2    3    3    0    0 -0.21790240356E+01  0.66861968998E+02 -0.79216142566E+03  0.79883811517E+03  0.78404967315E+02 0.  0.
         -6    2    1    2    0  502  0.61640845769E+02 -0.84575042172E+02 -0.57957908968E+03  0.61332475716E+03  0.17118062077E+03 0.  0.
        -24    2    5    5    0    0 -0.24077541511E+02 -0.25808934582E+02 -0.19650413011E+03  0.21637436735E+03  0.83415613570E+02 0.  0.
          5    1    3    3  501    0 -0.59461821733E+02  0.17713073175E+02 -0.11600751135E+03  0.13164077596E+03  0.47000000000E+01 0. -1.
        -11    1    4    4    0    0 -0.30050018012E+02  0.68811702830E+02 -0.56730906281E+03  0.57225660920E+03  0.00000000000E+00 0.  1.
         12    1    4    4    0    0  0.27870993977E+02 -0.19497338322E+01 -0.22485236286E+03  0.22658150597E+03  0.00000000000E+00 0. -1.
         -5    1    5    5    0  502  0.85718387280E+02 -0.58766107590E+02 -0.38307495957E+03  0.39695038981E+03  0.47000000000E+01 0.  1.
         11    1    6    6    0    0 -0.19762357634E+02 -0.35232331107E+02 -0.20104178087E+03  0.20506015115E+03  0.00000000000E+00 0. -1.
        -12    1    6    6    0    0 -0.43151838775E+01  0.94233965253E+01  0.45376507557E+01  0.11314216206E+02  0.00000000000E+00 0.  1.
</event>
<event>
12    1  0.8563264E-002  0.2107278E+03  0.7818608E-02  0.1141007E+00
         21   -1    0    0  501  502  0.00000000000E+00  0.00000000000E+00  0.10590285320E+03  0.10590285320E+03  0.00000000000E+00 0. -1.
         21   -1    0    0  502  503 -0.00000000000E+00 -0.00000000000E+00 -0.54207874393E+03  0.54207874393E+03  0.00000000000E+00 0. -1.
         -6    2    1    2    0  503  0.90848275770E+02  0.80712168719E+02 -0.37240484331E+03  0.42789201143E+03  0.17215790060E+03 0.  0.
        -24    2    3    3    0    0  0.12161204390E+03  0.83710498129E+02 -0.25455501161E+03  0.30596550800E+03  0.83783658488E+02 0.  0.
          6    2    1    2  501    0 -0.90848275770E+02 -0.80712168719E+02 -0.63771047429E+02  0.22008958569E+03  0.17206050055E+03 0.  0.
         24    2    5    5    0    0 -0.81181309716E+02 -0.31100633874E+02 -0.10052913156E+03  0.15741581629E+03  0.84356259117E+02 0.  0.
          5    1    5    5  501    0 -0.96669660539E+01 -0.49611534846E+02  0.36758084129E+02  0.62673769404E+02  0.47000000000E+01 0. -1.
        -13    1    6    6    0    0 -0.30467267961E+02 -0.20247107691E+02 -0.98987260451E+02  0.10553045778E+03  0.00000000000E+00 0.  1.
         14    1    6    6    0    0 -0.50714041754E+02 -0.10853526183E+02 -0.15418711068E+01  0.51885358515E+02  0.00000000000E+00 0. -1.
         -5    1    3    3    0  503 -0.30763768132E+02 -0.29983294099E+01 -0.11784983169E+03  0.12192650343E+03  0.47000000000E+01 0.  1.
         13    1    4    4    0    0  0.10691341522E+03  0.91706524051E+02 -0.25246783977E+03  0.28910305260E+03  0.00000000000E+00 0. -1.
        -14    1    4    4    0    0  0.14698628684E+02 -0.79960259219E+01 -0.20871718451E+01  0.16862455398E+02  0.00000000000E+00 0.  1.
</event>
<event>
12    1  0.8563264E-002  0.2021966E+03  0.7818608E-02  0.1148110E+00
         21   -1    0    0  503  502  0.00000000000E+00  0.00000000000E+00  0.83557336626E+03  0.83557336626E+03  0.00000000000E+00 0.  1.
         21   -1    0    0  501  503 -0.00000000000E+00 -0.00000000000E+00 -0.48793402299E+02  0.48793402299E+02  0.00000000000E+00 0. -1.
          6    2    1    2  501    0 -0.27887520969E+02 -0.10453362398E+03  0.41331689595E+03  0.45968086718E+03  0.16961913454E+03 0.  0.
         24    2    3    3    0    0 -0.75676255226E+02 -0.11295925169E+03  0.29580857787E+03  0.33246039263E+03  0.67383304923E+02 0.  0.
         -6    2    1    2    0  502  0.27887520969E+02  0.10453362398E+03  0.37346306801E+03  0.42468590139E+03  0.17081703457E+03 0.  0.
        -24    2    5    5    0    0  0.78427642448E+02  0.83971063181E+02  0.31362680532E+03  0.34357122257E+03  0.80482155877E+02 0.  0.
          5    1    3    3  501    0  0.47788734257E+02  0.84256277083E+01  0.11750831809E+03  0.12722047455E+03  0.47000000000E+01 0. -1.
        -11    1    4    4    0    0 -0.49034830339E+02 -0.70021359766E+02  0.25016340845E+03  0.26436553545E+03  0.00000000000E+00 0.  1.
         12    1    4    4    0    0 -0.26641424888E+02 -0.42937891922E+02  0.45645169420E+02  0.68094857178E+02  0.00000000000E+00 0. -1.
         -5    1    5    5    0  502 -0.50540121479E+02  0.20562560799E+02  0.59836262696E+02  0.81114678815E+02  0.47000000000E+01 0.  1.
         13    1    6    6    0    0  0.72702504862E+02  0.30522816122E+02  0.12817685594E+03  0.15048788295E+03  0.00000000000E+00 0. -1.
        -14    1    6    6    0    0  0.57251375861E+01  0.53448247059E+02  0.18544994938E+03  0.19308333962E+03  0.00000000000E+00 0.  1.
</event>
<event>
12    1  0.8563264E-002  0.1812110E+03  0.7818608E-02  0.1166881E+00
         21   -1    0    0  501  502  0.00000000000E+00  0.00000000000E+00  0.32998218777E+03  0.32998218777E+03  0.00000000000E+00 0.  1.
         21   -1    0    0  502  503 -0.00000000000E+00 -0.00000000000E+00 -0.99599455033E+02  0.99599455033E+02  0.00000000000E+00 0.  1.
         -6    2    1    2    0  503 -0.32502837825E+02  0.41240203741E+02  0.13280750459E+03  0.22466695843E+03  0.17343650153E+03 0.  0.
        -24    2    3    3    0    0 -0.23422755175E+01  0.72642455362E+02  0.14168119350E+03  0.17998370339E+03  0.83893744216E+02 0.  0.
          6    2    1    2  501    0  0.32502837825E+02 -0.41240203741E+02  0.97575228155E+02  0.20491468438E+03  0.17237144153E+03 0.  0.
         24    2    5    5    0    0 -0.19322398296E+02  0.12860695196E+02  0.36683434285E+01  0.84692575914E+02  0.81367211545E+02 0.  0.
          5    1    5    5  501    0  0.51825236121E+02 -0.54100898937E+02  0.93906884726E+02  0.12022210846E+03  0.47000000000E+01 0. -1.
        -11    1    6    6    0    0  0.21976388459E+02 -0.13479769516E+02 -0.17677817237E+02  0.31259735415E+02  0.00000000000E+00 0.  1.
         12    1    6    6    0    0 -0.41298786755E+02  0.26340464712E+02  0.21346160666E+02  0.53432840500E+02  0.00000000000E+00 0. -1.
         -5    1    3    3    0  503 -0.30160562307E+02 -0.31402251621E+02 -0.88736889179E+01  0.44683255036E+02  0.47000000000E+01 0.  1.
         13    1    4    4    0    0  0.11230564267E+02 -0.12424702026E+02  0.56135357205E+02  0.58580518287E+02  0.00000000000E+00 0. -1.
        -14    1    4    4    0    0 -0.13572839785E+02  0.85067157388E+02  0.85545836298E+02  0.12140318511E+03  0.00000000000E+00 0.  1.
</event>
<event>
12    1  0.8563264E-002  0.2004056E+03  0.7818608E-02  0.1149745E+00
         21   -1    0    0  501  502  0.00000000000E+00  0.00000000000E+00  0.74394949859E+02  0.74394949859E+02  0.00000000000E+00 0. -1.
         21   -1    0    0  502  503 -0.00000000000E+00 -0.00000000000E+00 -0.68092336267E+03  0.68092336267E+03  0.00000000000E+00 0.  1.
         -6    2    1    2    0  503  0.98651835449E+02 -0.19431425495E+02 -0.47881632991E+03  0.51906404385E+03  0.17335696955E+03 0.  0.
        -24    2    3    3    0    0  0.12091660622E+03  0.35005051392E+02 -0.34273877752E+03  0.37074600618E+03  0.64316033766E+02 0.  0.
          6    2    1    2  501    0 -0.98651835449E+02  0.19431425495E+02 -0.12771208290E+03  0.23625426868E+03  0.17145243777E+03 0.  0.
         24    2    5    5    0    0 -0.10004793211E+03  0.34637143487E+02 -0.15556667375E+03  0.20414303735E+03  0.79145873483E+02 0.  0.
          5    1    5    5  501    0  0.13960966613E+01 -0.15205717992E+02  0.27854590854E+02  0.32111231325E+02  0.47000000000E+01 0. -1.
        -11    1    6    6    0    0 -0.76141646933E+02  0.43582194538E+02 -0.62705169818E+02  0.10783736087E+03  0.00000000000E+00 0.  1.
         12    1    6    6    0    0 -0.23906285177E+02 -0.89450510516E+01 -0.92861503933E+02  0.96305676479E+02  0.00000000000E+00 0. -1.
         -5    1    3    3    0  503 -0.22264770770E+02 -0.54436476887E+02 -0.13607755239E+03  0.14831803767E+03  0.47000000000E+01 0.  1.
         13    1    4    4    0    0  0.11907279750E+03  0.23810094416E+02 -0.33662675994E+03  0.35785866933E+03  0.00000000000E+00 0. -1.
        -14    1    4    4    0    0  0.18438087161E+01  0.11194956976E+02 -0.61120175729E+01  0.12887336850E+02  0.00000000000E+00 0.  1.
</event>
<event>
12    1  0.8563264E-002  0.2042208E+03  0.7818608E-02  0.1146310E+00
         21   -1    0    0  503  502  0.00000000000E+00  0.00000000000E+00  0.36673932370E+03  0.36673932370E+03  0.00000000000E+00 0.  1.
         21   -1    0    0  501  503 -0.00000000000E+00 -0.00000000000E+00 -0.12077065299E+03  0.12077065299E+03  0.00000000000E+00 0.  1.
          6    2    1    2  501    0  0.37209693430E+02  0.10209008805E+03  0.18270519752E+03  0.27371477142E+03  0.17242865054E+03 0.  0.
         24    2    3    3    0    0  0.22272864538E+02  0.13458192915E+03  0.17641683639E+03  0.23710244998E+03  0.80537540790E+02 0.  0.
         -6    2    1    2    0  502 -0.37209693430E+02 -0.10209008805E+03  0.63263473188E+02  0.21379520527E+03  0.17291378023E+03 0.  0.
        -24    2    5    5    0    0 -0.53441595152E+02  0.43822954500E+01  0.17607111668E+02  0.96720714329E+02  0.78547295264E+02 0.  0.
          5    1    3    3  501    0  0.14936828891E+02 -0.32491841099E+02  0.62883611351E+01  0.36612321438E+02  0.47000000000E+01 0. -1.
        -13    1    4    4    0    0  0.14922445951E+02  0.14480432250E+03  0.15851222133E+03  0.21521406905E+03  0.00000000000E+00 0.  1.
         14    1    4    4    0    0  0.73504185866E+01 -0.10222393349E+02  0.17904615056E+02  0.21888380925E+02  0.00000000000E+00 0. -1.
         -5    1    5    5    0  502  0.16231901723E+02 -0.10647238350E+03  0.45656361519E+02  0.11707449094E+03  0.47000000000E+01 0.  1.
         13    1    6    6    0    0 -0.17243851481E+02 -0.24460994620E+01 -0.31104875525E+02  0.35648942451E+02  0.00000000000E+00 0. -1.
        -14    1    6    6    0    0 -0.36197743671E+02  0.68283949120E+01  0.48711987193E+02  0.61071771878E+02  0.00000000000E+00 0.  1.
</event>
<event>
12    1  0.8563264E-002  0.1955351E+03  0.7818608E-02  0.1153584E+00
         21   -1    0    0  503  502  0.00000000000E+00  0.00000000000E+00  0.45964294571E+03  0.45964294571E+03  0.00000000000E+00 0.  1.
         21   -1    0    0  501  503 -0.00000000000E+00 -0.00000000000E+00 -0.20051636774E+03  0.20051636774E+03  0.00000000000E+00 0.  1.
          6    2    1    2  501    0 -0.90126006388E+02 -0.27401960789E+02 -0.12299604673E+03  0.23091384271E+03  0.17122970174E+03 0.  0.
         24    2    3    3    0    0  0.92499944530E+01 -0.42487799821E+02 -0.85851658617E+02  0.12365263047E+03  0.77644640533E+02 0.  0.
         -6    2    1    2    0  502  0.90126006388E+02  0.27401960789E+02  0.38212262470E+03  0.42924547075E+03  0.17134879448E+03 0.  0.
        -24    2    5    5    0    0  0.17025321700E+02  0.29457030649E+02  0.32386109312E+03  0.33562693906E+03  0.81251808283E+02 0.  0.
          5    1    3    3  501    0 -0.99376000841E+02  0.15085839031E+02 -0.37144388114E+02  0.10726121224E+03  0.47000000000E+01 0. -1.
        -11    1    4    4    0    0  0.34740054858E+01  0.14460913340E+02 -0.58223497199E+02  0.60092947629E+02  0.00000000000E+00 0.  1.
         12    1    4    4    0    0  0.57759889672E+01 -0.56948713161E+02 -0.27628161419E+02  0.63559682839E+02  0.00000000000E+00 0. -1.
         -5    1    5    5    0  502  0.73100684688E+02 -0.20550698599E+01  0.58261531571E+02  0.93618531686E+02  0.47000000000E+01 0.  1.
         11    1    6    6    0    0 -0.17154641740E+02 -0.18368547290E+02  0.55846180244E+02  0.61241171695E+02  0.00000000000E+00 0. -1.
        -12    1    6    6    0    0  0.34179963440E+02  0.47825577939E+02  0.26801491288E+03  0.27438576736E+03  0.00000000000E+00 0.  1.
</event>
<event>
12    1  0.8563264E-002  0.2174781E+03  0.7818608E-02  0.1136629E+00
         21   -1    0    0  503  502  0.00000000000E+00  0.00000000000E+00  0.42324729280E+03  0.42324729280E+03  0.00000000000E+00 0. -1.
         21   -1    0    0  501  503 -0.00000000000E+00 -0.00000000000E+00 -0.14381904963E+03  0.14381904963E+03  0.00000000000E+00 0. -1.
          6    2    1    2  501    0  0.65451846392E+02  0.10583788918E+03  0.22556751770E+01  0.21748979826E+03  0.17835672483E+03 0.  0.
         24    2    3    3    0    0  0.61211040087E+02  0.16628280684E+02  0.52658426673E+02  0.11483081889E+03  0.79936949654E+02 0.  0.
         -6    2    1    2    0  502 -0.65451846392E+02 -0.10583788918E+03  0.27717256799E+03  0.34957654417E+03  0.17289744014E+03 0.  0.
        -24    2    5    5    0    0 -0.68544858944E+02 -0.76752761924E+02  0.85548284343E+02  0.15567588033E+03  0.79542985939E+02 0.  0.
          5    1    3    3  501    0  0.42408063052E+01  0.89209608500E+02 -0.50402751496E+02  0.10265897937E+03  0.47000000000E+01 0. -1.
        -13    1    4    4    0    0  0.71414849327E+02  0.24894812507E+02  0.17963327249E+02  0.77733606117E+02  0.00000000000E+00 0.  1.
         14    1    4    4    0    0 -0.10203809240E+02 -0.82665318228E+01  0.34695099424E+02  0.37097212772E+02  0.00000000000E+00 0. -1.
         -5    1    5    5    0  502  0.30930125523E+01 -0.29085127260E+02  0.19162428365E+03  0.19390066384E+03  0.47000000000E+01 0.  1.
         13    1    6    6    0    0 -0.80147402513E+02 -0.59013028121E+02  0.89804227671E+02  0.13405574559E+03  0.00000000000E+00 0. -1.
        -14    1    6    6    0    0  0.11602543568E+02 -0.17739733804E+02 -0.42559433289E+01  0.21620134743E+02  0.00000000000E+00 0.  1.
</event>
<event>
12    1  0.8563264E-002  0.1756654E+03  0.7818608E-02  0.1172287E+00
         21   -1    0    0  501  502  0.00000000000E+00  0.00000000000E+00  0.34686320734E+02  0.34686320734E+02  0.00000000000E+00 0.  1.
         21   -1    0    0  502  503 -0.00000000000E+00 -0.00000000000E+00 -0.10765328850E+04  0.10765328850E+04  0.00000000000E+00 0.  1.
         -6    2    1    2    0  503  0.38459669543E+02 -0.50041139004E+00 -0.75626088683E+03  0.77639478852E+03  0.17140286492E+03 0.  0.
        -24    2    3    3    0    0 -0.57104150405E+01 -0.48509424314E+02 -0.25273675862E+03  0.26864041938E+03  0.76850716843E+02 0.  0.
          6    2    1    2  501    0 -0.38459669543E+02  0.50041139004E+00 -0.28558567743E+03  0.33482441721E+03  0.17049579060E+03 0.  0.
         24    2    5    5    0    0  0.13578654457E+02 -0.23632576986E+02 -0.77435620963E+02  0.11886394791E+03  0.85962108899E+02 0.  0.
          5    1    5    5  501    0 -0.52038324001E+02  0.24132988376E+02 -0.20815005647E+03  0.21596046930E+03  0.47000000000E+01 0. -1.
        -11    1    6    6    0    0 -0.38824270965E+01  0.28443965165E+02 -0.70085171130E+01  0.29550832587E+02  0.00000000000E+00 0.  1.
         12    1    6    6    0    0  0.17461081554E+02 -0.52076542151E+02 -0.70427103850E+02  0.89313115320E+02  0.00000000000E+00 0. -1.
         -5    1    3    3    0  503  0.44170084584E+02  0.48009012924E+02 -0.50352412820E+03  0.50775436913E+03  0.47000000000E+01 0.  1.
         11    1    4    4    0    0 -0.25657327354E+02 -0.47735674313E+01 -0.25906780788E+02  0.36772906926E+02  0.00000000000E+00 0. -1.
        -12    1    4    4    0    0  0.19946912313E+02 -0.43735856883E+02 -0.22682997784E+03  0.23186751246E+03  0.00000000000E+00 0.  1.
</event>
<event>
12    1  0.8563264E-002  0.3119321E+03  0.7818608E-02  0.1079544E+00
         21   -1    0    0  501  502  0.00000000000E+00  0.00000000000E+00  0.12560271994E+04  0.12560271994E+04  0.00000000000E+00 0. -1.
         21   -1    0    0  502  503 -0.00000000000E+00 -0.00000000000E+00 -0.97040395091E+02  0.97040395091E+02  0.00000000000E+00 0. -1.
         -6    2    1    2    0  503  0.13550092265E+03 -0.22212567237E+03  0.27295754649E+03  0.41373301050E+03  0.17020243072E+03 0.  0.
        -24    2    3    3    0    0  0.85753408211E+02 -0.17465874373E+03  0.27334292800E+03  0.34481158403E+03  0.79494329449E+02 0.  0.
          6    2    1    2  501    0 -0.13550092265E+03  0.22212567237E+03  0.88602925779E+03  0.93933458397E+03  0.17205028514E+03 0.  0.
         24    2    5    5    0    0 -0.88716244609E+02  0.18951404573E+03  0.48608195424E+03  0.53531446082E+03  0.80621089911E+02 0.  0.
          5    1    5    5  501    0 -0.46784678041E+02  0.32611626635E+02  0.39994730355E+03  0.40402012315E+03  0.47000000000E+01 0. -1.
        -11    1    6    6    0    0 -0.21393340183E+02  0.10060140819E+03  0.15558123291E+03  0.18650425831E+03  0.00000000000E+00 0.  1.
         12    1    6    6    0    0 -0.67322904425E+02  0.88912637539E+02  0.33050072133E+03  0.34881020251E+03  0.00000000000E+00 0. -1.
         -5    1    3    3    0  503  0.49747514439E+02 -0.47466928643E+02 -0.38538150237E+00  0.68921426469E+02  0.47000000000E+01 0.  1.
         13    1    4    4    0    0  0.81376831783E+02 -0.99529493775E+02  0.12954289110E+03  0.18250936830E+03  0.00000000000E+00 0. -1.
        -14    1    4    4    0    0  0.43765764287E+01 -0.75129249950E+02  0.14380003690E+03  0.16230221573E+03  0.00000000000E+00 0.  1.
</event>
<event>
12    1  0.8563264E-002  0.1890321E+03  0.7818608E-02  0.1159521E+00
         21   -1    0    0  503  502  0.00000000000E+00  0.00000000000E+00  0.28201609667E+03  0.28201609667E+03  0.00000000000E+00 0. -1.
         21   -1    0    0  501  503 -0.00000000000E+00 -0.00000000000E+00 -0.22312123962E+03  0.22312123962E+03  0.00000000000E+00 0.  1.
          6    2    1    2  501    0  0.76402409867E+02  0.31374982260E+01 -0.13700933790E+03  0.23346237729E+03  0.17287553560E+03 0.  0.
         24    2    3    3    0    0  0.10053234718E+03 -0.43407193670E+02 -0.10555248842E+03  0.17214120968E+03  0.80624630017E+02 0.  0.
         -6    2    1    2    0  502 -0.76402409867E+02 -0.31374982260E+01  0.19590419495E+03  0.27167495900E+03  0.17199319063E+03 0.  0.
        -24    2    5    5    0    0 -0.11211544672E+03 -0.93257171820E+01  0.18939121355E+03  0.23455051986E+03  0.80548570474E+02 0.  0.
          5    1    3    3  501    0 -0.24129937313E+02  0.46544691896E+02 -0.31456849479E+02  0.61321167614E+02  0.47000000000E+01 0. -1.
        -13    1    4    4    0    0  0.45771044650E+02 -0.51410028708E+02 -0.92463753926E+02  0.11527152888E+03  0.00000000000E+00 0.  1.
         14    1    4    4    0    0  0.54761302529E+02  0.80028350376E+01 -0.13088734495E+02  0.56869680797E+02  0.00000000000E+00 0. -1.
         -5    1    5    5    0  502  0.35713036849E+02  0.61882189560E+01  0.65129814004E+01  0.37124439141E+02  0.47000000000E+01 0.  1.
         11    1    6    6    0    0 -0.95770070688E+01  0.17109764811E+02  0.79741642301E+02  0.82116944860E+02  0.00000000000E+00 0. -1.
        -12    1    6    6    0    0 -0.10253843965E+03 -0.26435481993E+02  0.10964957125E+03  0.15243357500E+03  0.00000000000E+00 0.  1.
</event>
<event>
12    1  0.8563264E-002  0.2108948E+03  0.7818608E-02  0.1141450E+00
         21   -1    0    0  503  502  0.00000000000E+00  0.00000000000E+00  0.90461931462E+02  0.90461931462E+02  0.00000000000E+00 0.  1.
         21   -1    0    0  501  503 -0.00000000000E+00 -0.00000000000E+00 -0.49398848100E+03  0.49398848100E+03  0.00000000000E+00 0. -1.
          6    2    1    2  501    0  0.38071435285E+02 -0.11777625402E+03 -0.24032596432E+03  0.31778383280E+03  0.16706081247E+03 0.  0.
         24    2    3    3    0    0  0.53177054489E+02 -0.42825366639E+02 -0.54089670535E+02  0.11640890294E+03  0.77223889265E+02 0.  0.
         -6    2    1    2    0  502 -0.38071435285E+02  0.11777625402E+03 -0.16320058522E+03  0.26666657967E+03  0.17075114495E+03 0.  0.
        -24    2    5    5    0    0 -0.27267438269E+02 -0.60920054780E+01 -0.84881934498E+02  0.11964286351E+03  0.79554046181E+02 0.  0.
          5    1    3    3  501    0 -0.15105619204E+02 -0.74950887381E+02 -0.18623629379E+03  0.20137492986E+03  0.47000000000E+01 0. -1.
        -13    1    4    4    0    0  0.10211098409E+02 -0.52004879350E+02 -0.95601937727E+01  0.53853238639E+02  0.00000000000E+00 0.  1.
         14    1    4    4    0    0  0.42965956080E+02  0.91795127106E+01 -0.44529476762E+02  0.62555664301E+02  0.00000000000E+00 0. -1.
         -5    1    5    5    0  502 -0.10803997016E+02  0.12386825950E+03 -0.78318650717E+02  0.14702371616E+03  0.47000000000E+01 0.  1.
         13    1    6    6    0    0 -0.30098140858E+02  0.11776785237E+02 -0.93987275849E+02  0.99389128053E+02  0.00000000000E+00 0. -1.
        -14    1    6    6    0    0  0.28307025893E+01 -0.17868790715E+02  0.91053413506E+01  0.20253735455E+02  0.00000000000E+00 0.  1.
</event>
<event>
12    1  0.8563264E-002  0.1896239E+03  0.7818608E-02  0.1161759E+00
         21   -1    0    0  501  502  0.00000000000E+00  0.00000000000E+00  0.28615720993E+03  0.28615720993E+03  0.00000000000E+00 0. -1.
         21   -1    0    0  502  503 -0.00000000000E+00 -0.00000000000E+00 -0.13400872886E+03  0.13400872886E+03  0.00000000000E+00 0. -1.
         -6    2    1    2    0  503 -0.31127284530E+02 -0.10740707512E+02  0.45318590321E+01  0.18967803723E+03  0.18674300367E+03 0.  0.
        -24    2    3    3    0    0  0.31401411092E+02  0.37920667527E+02 -0.36492282398E+02  0.10033131162E+03  0.79439661206E+02 0.  0.
          6    2    1    2  501    0  0.31127284530E+02  0.10740707512E+02  0.14761662204E+03  0.23048790156E+03  0.17392450955E+03 0.  0.
         24    2    5    5    0    0  0.75247902690E+02  0.49587512114E+02  0.97104279077E+02  0.15283939889E+03  0.76219896496E+02 0.  0.
          5    1    5    5  501    0 -0.44120618160E+02 -0.38846804602E+02  0.50512342959E+02  0.77648502663E+02  0.47000000000E+01 0. -1.
        -11    1    6    6    0    0  0.16292554016E+02  0.26822523995E+02 -0.59579429843E+01  0.31943578297E+02  0.00000000000E+00 0.  1.
         12    1    6    6    0    0  0.58955348674E+02  0.22764988119E+02  0.10306222206E+03  0.12089582060E+03  0.00000000000E+00 0. -1.
         -5    1    3    3    0  503 -0.62528695622E+02 -0.48661375038E+02  0.41024141430E+02  0.89346725608E+02  0.47000000000E+01 0.  1.
         11    1    4    4    0    0 -0.12644189138E+02  0.46823854396E+02 -0.20032040228E+02  0.52475055933E+02  0.00000000000E+00 0. -1.
        -12    1    4    4    0    0  0.44045600230E+02 -0.89031868695E+01 -0.16460242171E+02  0.47856255687E+02  0.00000000000E+00 0.  1.
</event>
<event>
12    1  0.8563264E-002  0.1850257E+03  0.7818608E-02  0.1163449E+00
         21   -1    0    0  503  502  0.00000000000E+00  0.00000000000E+00  0.14276405151E+03  0.14276405151E+03  0.00000000000E+00 0. -1.
         21   -1    0    0  501  503 -0.00000000000E+00 -0.00000000000E+00 -0.30879540876E+03  0.30879540876E+03  0.00000000000E+00 0.  1.
          6    2    1    2  501    0 -0.72678896591E+00  0.66595925461E+02 -0.19121358081E+03  0.26482799077E+03  0.17069178568E+03 0.  0.
         24    2    3    3    0    0 -0.49408987379E+02 -0.52050174256E+01 -0.91641048420E+02  0.13268370959E+03  0.82088639862E+02 0.  0.
         -6    2    1    2    0  502  0.72678896591E+00 -0.66595925461E+02  0.25182223559E+02  0.18673146950E+03  0.17262372899E+03 0.  0.
        -24    2    5    5    0    0  0.51028360255E+02  0.51063900674E+00  0.39055285590E+02  0.10159574892E+03  0.78690701888E+02 0.  0.
          5    1    3    3  501    0  0.48682198414E+02  0.71800942887E+02 -0.99572532393E+02  0.13214428118E+03  0.47000000000E+01 0. -1.
        -13    1    4    4    0    0 -0.15489466701E+02  0.37983209309E+02 -0.37967996185E+02  0.55894691183E+02  0.00000000000E+00 0.  1.
         14    1    4    4    0    0 -0.33919520678E+02 -0.43188226734E+02 -0.53673052235E+02  0.76789018406E+02  0.00000000000E+00 0. -1.
         -5    1    5    5    0  502 -0.50301571289E+02 -0.67106564468E+02 -0.13873062032E+02  0.85135720582E+02  0.47000000000E+01 0.  1.
         11    1    6    6    0    0 -0.16348529216E+02 -0.11430208461E+02  0.24577610179E+02  0.31654114979E+02  0.00000000000E+00 0. -1.
        -12    1    6    6    0    0  0.67376889471E+02  0.11940847468E+02  0.14477675412E+02  0.69941633941E+02  0.00000000000E+00 0.  1.
</event>
<event>
12    1  0.8563264E-002  0.2079637E+03  0.7818608E-02  0.1143366E+00
         21   -1    0    0  503  502  0.00000000000E+00  0.00000000000E+00  0.59334999909E+02  0.59334999909E+02  0.00000000000E+00 0.  1.
         21   -1    0    0  501  503 -0.00000000000E+00 -0.00000000000E+00 -0.13738197387E+04  0.13738197387E+04  0.00000000000E+00 0.  1.
          6    2    1    2  501    0 -0.44595532879E+02  0.10659334743E+03 -0.11501187767E+04  0.11687694881E+04  0.17291041813E+03 0.  0.
         24    2    3    3    0    0 -0.82285403703E+02  0.11444326450E+03 -0.77935484323E+03  0.79598250889E+03  0.79536371188E+02 0.  0.
         -6    2    1    2    0  502  0.44595532879E+02 -0.10659334743E+03 -0.16436596217E+03  0.26438525051E+03  0.17185019028E+03 0.  0.
        -24    2    5    5    0    0  0.35950375537E+02 -0.14029945471E+03 -0.14466690621E+03  0.22412381464E+03  0.91250227616E+02 0.  0.
          5    1    3    3  501    0  0.37689870825E+02 -0.78499170684E+01 -0.37076393342E+03  0.37278697924E+03  0.47000000000E+01 0. -1.
        -13    1    4    4    0    0 -0.25223517404E+02  0.51900647342E+02 -0.51923800514E+03  0.52243469354E+03  0.00000000000E+00 0.  1.
         14    1    4    4    0    0 -0.57061886299E+02  0.62542617159E+02 -0.26011683808E+03  0.27354781535E+03  0.00000000000E+00 0. -1.
         -5    1    5    5    0  502  0.86451573422E+01  0.33706107279E+02 -0.19699055957E+02  0.40261435878E+02  0.47000000000E+01 0.  1.
         11    1    6    6    0    0 -0.18064646154E+02 -0.11375707227E+01 -0.30427514359E+01  0.18354395771E+02  0.00000000000E+00 0. -1.
        -12    1    6    6    0    0  0.54015021691E+02 -0.13916188399E+03 -0.14162415478E+03  0.20576941887E+03  0.00000000000E+00 0.  1.
</event>
<event>
12    1  0.8563264E-002  0.1946718E+03  0.7818608E-02  0.1155000E+00
         21   -1    0    0  503  502  0.00000000000E+00  0.00000000000E+00  0.91635274233E+03  0.91635274233E+03  0.00000000000E+00 0. -1.
         21   -1    0    0  501  503 -0.00000000000E+00 -0.00000000000E+00 -0.17771324974E+03  0.17771324974E+03  0.00000000000E+00 0. -1.
          6    2    1    2  501    0 -0.43578415297E+02  0.79246944696E+02 -0.11032352935E+03  0.22375964307E+03  0.17238892138E+03 0.  0.
         24    2    3    3    0    0 -0.25765744071E+02  0.12050872690E+03 -0.75816480222E+02  0.16690322421E+03  0.83200485280E+02 0.  0.
         -6    2    1    2    0  502  0.43578415297E+02 -0.79246944696E+02  0.84896302194E+03  0.87030634900E+03  0.16886613626E+03 0.  0.
        -24    2    5    5    0    0  0.81783446835E+02 -0.89129295463E+02  0.57000557959E+03  0.58853227296E+03  0.82651751717E+02 0.  0.
          5    1    3    3  501    0 -0.17812671227E+02 -0.41261782202E+02 -0.34507049124E+02  0.56856418864E+02  0.47000000000E+01 0. -1.
        -13    1    4    4    0    0 -0.35429547521E+02  0.36469460053E+02  0.34677186512E+01  0.50963706956E+02  0.00000000000E+00 0.  1.
         14    1    4    4    0    0  0.96638034505E+01  0.84039266846E+02 -0.79284198873E+02  0.11593951725E+03  0.00000000000E+00 0. -1.
         -5    1    5    5    0  502 -0.38205031537E+02  0.98823507664E+01  0.27895744234E+03  0.28177407604E+03  0.47000000000E+01 0.  1.
         13    1    6    6    0    0  0.41349361849E+02  0.65348022551E+01  0.19260536951E+03  0.19710226212E+03  0.00000000000E+00 0. -1.
        -14    1    6    6    0    0  0.40434084985E+02 -0.95664097718E+02  0.37740021008E+03  0.39143001084E+03  0.00000000000E+00 0.  1.
</event>
<event>
12    1  0.8563264E-002  0.1731142E+03  0.7818608E-02  0.1175059E+00
         21   -1    0    0  501  502  0.00000000000E+00  0.00000000000E+00  0.42988279328E+02  0.42988279328E+02  0.00000000000E+00 0. -1.
         21   -1    0    0  502  503 -0.00000000000E+00 -0.00000000000E+00 -0.11975906009E+04  0.11975906009E+04  0.00000000000E+00 0. -1.
         -6    2    1    2    0  503  0.27038102532E+01 -0.12395129901E+02 -0.98250131307E+03  0.99763587655E+03  0.17264866686E+03 0.  0.
        -24    2    3    3    0    0 -0.22902240465E+02 -0.70593701000E+02 -0.57855887966E+03  0.58869294285E+03  0.79504845744E+02 0.  0.
          6    2    1    2  501    0 -0.27038102532E+01  0.12395129901E+02 -0.17210100852E+03  0.24294300369E+03  0.17100174290E+03 0.  0.
         24    2    5    5    0    0  0.71869557512E+01  0.47946526415E+02 -0.18131293955E+03  0.20461965938E+03  0.81512583240E+02 0.  0.
          5    1    5    5  501    0 -0.98907660043E+01 -0.35551396514E+02  0.92119310312E+01  0.38323344316E+02  0.47000000000E+01 0. -1.
        -11    1    6    6    0    0  0.22476096046E+02  0.16540902756E+02 -0.97864824768E+01  0.29572818546E+02  0.00000000000E+00 0.  1.
         12    1    6    6    0    0 -0.15289140295E+02  0.31405623659E+02 -0.17152645708E+03  0.17504684083E+03  0.00000000000E+00 0. -1.
         -5    1    3    3    0  503  0.25606050718E+02  0.58198571099E+02 -0.40394243341E+03  0.40894293370E+03  0.47000000000E+01 0.  1.
         11    1    4    4    0    0  0.23190213508E+02 -0.94361957539E+01 -0.25356740489E+03  0.25480042507E+03  0.00000000000E+00 0. -1.
        -12    1    4    4    0    0 -0.46092453974E+02 -0.61157505246E+02 -0.32499147477E+03  0.33389251779E+03  0.00000000000E+00 0.  1.
</event>
<event>
12    1  0.8563264E-002  0.2395099E+03  0.7818608E-02  0.1120459E+00
         21   -1    0    0  503  502  0.00000000000E+00  0.00000000000E+00  0.33521233231E+03  0.33521233231E+03  0.00000000000E+00 0.  1.
         21   -1    0    0  501  503 -0.00000000000E+00 -0.00000000000E+00 -0.41304360010E+03  0.41304360010E+03  0.00000000000E+00 0.  1.
          6    2    1    2  501    0  0.12333344293E+03 -0.10928145556E+03 -0.32615343805E+03  0.40464928138E+03  0.17381427183E+03 0.  0.
         24    2    3    3    0    0  0.37476421090E+02 -0.11618036548E+03 -0.15392331012E+03  0.21202443842E+03  0.79747210778E+02 0.  0.
         -6    2    1    2    0  502 -0.12333344293E+03  0.10928145556E+03  0.24832217027E+03  0.34360665103E+03  0.17102062949E+03 0.  0.
        -24    2    5    5    0    0 -0.10685689666E+03  0.17737773419E+02  0.19363156958E+03  0.23560260426E+03  0.79261449793E+02 0.  0.
          5    1    3    3  501    0  0.85857021843E+02  0.68989099273E+01 -0.17223012793E+03  0.19262484296E+03  0.47000000000E+01 0. -1.
        -13    1    4    4    0    0  0.14144385302E+02 -0.57946980574E+02 -0.13321804985E+03  0.14596220401E+03  0.00000000000E+00 0.  1.
         14    1    4    4    0    0  0.23332035788E+02 -0.58233384909E+02 -0.20705260265E+02  0.66062234405E+02  0.00000000000E+00 0. -1.
         -5    1    5    5    0  502 -0.16476546269E+02  0.91543682136E+02  0.54690600689E+02  0.10800404677E+03  0.47000000000E+01 0.  1.
         11    1    6    6    0    0 -0.59838262826E+02 -0.25911074890E+01  0.36055571288E+02  0.69909482597E+02  0.00000000000E+00 0. -1.
        -12    1    6    6    0    0 -0.47018633837E+02  0.20328880908E+02  0.15757599829E+03  0.16569312166E+03  0.00000000000E+00 0.  1.
</event>
<event>
12    1  0.8563264E-002  0.2243789E+03  0.7818608E-02  0.1130789E+00
         21   -1    0    0  501  502  0.00000000000E+00  0.00000000000E+00  0.37622438605E+03  0.37622438605E+03  0.00000000000E+00 0.  1.
         21   -1    0    0  502  503 -0.00000000000E+00 -0.00000000000E+00 -0.48606065493E+03  0.48606065493E+03  0.00000000000E+00 0.  1.
         -6    2    1    2    0  503  0.92341448679E+02  0.10833946404E+03 -0.42218826610E+03  0.47810965348E+03  0.17344026669E+03 0.  0.
        -24    2    3    3    0    0  0.46215485336E+02  0.96494802274E+02 -0.15054293024E+03  0.20228148415E+03  0.82507618026E+02 0.  0.
          6    2    1    2  501    0 -0.92341448679E+02 -0.10833946404E+03  0.31235199723E+03  0.38417538750E+03  0.17251833403E+03 0.  0.
         24    2    5    5    0    0 -0.94751355784E+02 -0.13843785627E+03  0.22401814907E+03  0.29070518049E+03  0.78628947491E+02 0.  0.
          5    1    5    5  501    0  0.24099071052E+01  0.30098392227E+02  0.88333848160E+02  0.93470207006E+02  0.47000000000E+01 0. -1.
        -13    1    6    6    0    0 -0.29755877400E+02 -0.78992041891E+02  0.16298135300E+03  0.18354311850E+03  0.00000000000E+00 0.  1.
         14    1    6    6    0    0 -0.64995478385E+02 -0.59445814375E+02  0.61036796067E+02  0.10716206200E+03  0.00000000000E+00 0. -1.
         -5    1    3    3    0  503  0.46125963343E+02  0.11844661764E+02 -0.27164533586E+03  0.27582816934E+03  0.47000000000E+01 0.  1.
         11    1    4    4    0    0  0.38826651449E+02  0.10968064598E+03 -0.11469713980E+03  0.16337927299E+03  0.00000000000E+00 0. -1.
        -12    1    4    4    0    0  0.73888338875E+01 -0.13185843704E+02 -0.35845790444E+02  0.38902211158E+02  0.00000000000E+00 0.  1.
</event>
<event>
12    1  0.8563264E-002  0.1834877E+03  0.7818608E-02  0.1164623E+00
         21   -1    0    0  501  502  0.00000000000E+00  0.00000000000E+00  0.27418782059E+03  0.27418782059E+03  0.00000000000E+00 0. -1.
         21   -1    0    0  502  503 -0.00000000000E+00 -0.00000000000E+00 -0.12369790835E+03  0.12369790835E+03  0.00000000000E+00 0. -1.
         -6    2    1    2    0  503 -0.35061716194E+02 -0.57999114458E+02  0.54654859665E+02  0.19145466865E+03  0.17051250759E+03 0.  0.
        -24    2    3    3    0    0 -0.42768846521E+02 -0.39176420998E+02  0.99789055137E+02  0.14172661573E+03  0.82247260657E+02 0.  0.
          6    2    1    2  501    0  0.35061716194E+02  0.57999114458E+02  0.95835052572E+02  0.20643106028E+03  0.16981226142E+03 0.  0.
         24    2    5    5    0    0  0.60598335953E+02  0.74002314171E+02  0.24622918929E+02  0.12896184493E+03  0.82923871640E+02 0.  0.
          5    1    5    5  501    0 -0.25536619759E+02 -0.16003199713E+02  0.71212133643E+02  0.77469215355E+02  0.47000000000E+01 0. -1.
        -11    1    6    6    0    0  0.51437563988E+02  0.86104279334E+02  0.39417659939E+02  0.10776605135E+03  0.00000000000E+00 0.  1.
         12    1    6    6    0    0  0.91607719651E+01 -0.12101965163E+02 -0.14794741010E+02  0.21195793577E+02  0.00000000000E+00 0. -1.
         -5    1    3    3    0  503  0.77071303269E+01 -0.18822693460E+02 -0.45134195471E+02  0.49728052926E+02  0.47000000000E+01 0.  1.
         13    1    4    4    0    0 -0.39415645817E+02  0.28978679428E+01  0.90149243653E+02  0.98432092861E+02  0.00000000000E+00 0. -1.
        -14    1    4    4    0    0 -0.33532007043E+01 -0.42074288940E+02  0.96398114838E+01  0.43294522867E+02  0.00000000000E+00 0.  1.
</event>
<event>
12    1  0.8563264E-002  0.2172405E+03  0.7818608E-02  0.1136583E+00
         21   -1    0    0  503  502  0.00000000000E+00  0.00000000000E+00  0.28246893076E+03  0.28246893076E+03  0.00000000000E+00 0. -1.
         21   -1    0    0  501  503 -0.00000000000E+00 -0.00000000000E+00 -0.17915429414E+03  0.17915429414E+03  0.00000000000E+00 0.  1.
          6    2    1    2  501    0 -0.11673203671E+03  0.54760162562E+02 -0.13848757766E+02  0.21768143758E+03  0.17483814337E+03 0.  0.
         24    2    3    3    0    0 -0.10844589107E+03 -0.25088349329E+02 -0.90151474722E+01  0.13712152913E+03  0.79568236784E+02 0.  0.
         -6    2    1    2    0  502  0.11673203671E+03 -0.54760162562E+02  0.11716339438E+03  0.24394178732E+03  0.17074920445E+03 0.  0.
        -24    2    5    5    0    0  0.28703934853E+02  0.27290761092E+02  0.74757132246E+02  0.11626374749E+03  0.79749160752E+02 0.  0.
          5    1    3    3  501    0 -0.82861456372E+01  0.79848511891E+02 -0.48336102941E+01  0.80559908448E+02  0.47000000000E+01 0. -1.
        -13    1    4    4    0    0 -0.79195173412E+02  0.14652309432E+02 -0.26474434672E+02  0.84778896870E+02  0.00000000000E+00 0.  1.
         14    1    4    4    0    0 -0.29250717658E+02 -0.39740658761E+02  0.17459287200E+02  0.52342632259E+02  0.00000000000E+00 0. -1.
         -5    1    5    5    0  502  0.88028101853E+02 -0.82050923654E+02  0.42406262139E+02  0.12767803984E+03  0.47000000000E+01 0.  1.
         13    1    6    6    0    0  0.19469852427E+01 -0.11764315660E+02  0.67288106346E+02  0.68336513886E+02  0.00000000000E+00 0. -1.
        -14    1    6    6    0    0  0.26756949611E+02  0.39055076752E+02  0.74690259003E+01  0.47927233600E+02  0.00000000000E+00 0.  1.
</event>
<event>
12    1  0.8563264E-002  0.1756035E+03  0.7818608E-02  0.1173092E+00
         21   -1    0    0  501  502  0.00000000000E+00  0.00000000000E+00  0.50617910048E+03  0.50617910048E+03  0.00000000000E+00 0.  1.
         21   -1    0    0  502  503 -0.00000000000E+00 -0.00000000000E+00 -0.63658811136E+02  0.63658811136E+02  0.00000000000E+00 0.  1.
         -6    2    1    2    0  503 -0.86148922353E+01  0.30033666742E+02  0.15162945048E+03  0.23200879485E+03  0.17280148475E+03 0.  0.
        -24    2    3    3    0    0  0.35736134718E+02 -0.16816985901E+01  0.20588356359E+02  0.89999160191E+02  0.79975427369E+02 0.  0.
          6    2    1    2  501    0  0.86148922353E+01 -0.30033666742E+02  0.29089083887E+03  0.33782911676E+03  0.16892245111E+03 0.  0.
         24    2    5    5    0    0  0.57628437038E+02 -0.10051007152E+02  0.25555724535E+03  0.27401542631E+03  0.79705010530E+02 0.  0.
          5    1    5    5  501    0 -0.49013544802E+02 -0.19982659590E+02  0.35333593516E+02  0.63813690453E+02  0.47000000000E+01 0. -1.
        -11    1    6    6    0    0  0.14400849505E+02 -0.35239708904E+02  0.52278666046E+02  0.64670553374E+02  0.00000000000E+00 0.  1.
         12    1    6    6    0    0  0.43227587532E+02  0.25188701753E+02  0.20327857930E+03  0.20934487293E+03  0.00000000000E+00 0. -1.
         -5    1    3    3    0  503 -0.44351026953E+02  0.31715365333E+02  0.13104109412E+03  0.14200963466E+03  0.47000000000E+01 0.  1.
         11    1    4    4    0    0 -0.18229409732E+02 -0.22555966533E+02  0.12476476526E+02  0.31571276058E+02  0.00000000000E+00 0. -1.
        -12    1    4    4    0    0  0.53965544449E+02  0.20874267943E+02  0.81118798329E+01  0.58427884133E+02  0.00000000000E+00 0.  1.
</event>
<event>
12    1  0.8563264E-002  0.3381314E+03  0.7818608E-02  0.1067713E+00
         21   -1    0    0  501  502  0.00000000000E+00  0.00000000000E+00  0.12375861124E+03  0.12375861124E+03  0.00000000000E+00 0. -1.
         21   -1    0    0  502  503 -0.00000000000E+00 -0.00000000000E+00 -0.95723209850E+03  0.95723209850E+03  0.00000000000E+00 0.  1.
         -6    2    1    2    0  503 -0.22336747159E+03  0.18474766839E+03 -0.31065904890E+03  0.45836098376E+03  0.17193318013E+03 0.  0.
        -24    2    3    3    0    0 -0.16510514060E+03  0.10945990639E+03 -0.11913883653E+03  0.24443382777E+03  0.79452219801E+02 0.  0.
          6    2    1    2  501    0  0.22336747159E+03 -0.18474766839E+03 -0.52281443835E+03  0.62262972598E+03  0.17409224677E+03 0.  0.
         24    2    5    5    0    0  0.23619131700E+03 -0.14079784308E+03 -0.48794692128E+03  0.56489003510E+03  0.73472327630E+02 0.  0.
          5    1    5    5  501    0 -0.12823845413E+02 -0.43949825311E+02 -0.34867517071E+02  0.57739690879E+02  0.47000000000E+01 0. -1.
        -13    1    6    6    0    0  0.12870341275E+03 -0.84841974380E+02 -0.34239723220E+03  0.37549779452E+03  0.00000000000E+00 0.  1.
         14    1    6    6    0    0  0.10748790425E+03 -0.55955868699E+02 -0.14554968909E+03  0.18939224059E+03  0.00000000000E+00 0. -1.
         -5    1    3    3    0  503 -0.58262330984E+02  0.75287762004E+02 -0.19152021238E+03  0.21392715599E+03  0.47000000000E+01 0.  1.
         11    1    4    4    0    0 -0.65334964950E+02  0.72247236333E+02 -0.93250322039E+02  0.13484785265E+03  0.00000000000E+00 0. -1.
        -12    1    4    4    0    0 -0.99770175654E+02  0.37212670053E+02 -0.25888514489E+02  0.10958597513E+03  0.00000000000E+00 0.  1.
</event>
<event>
12    1  0.8563264E-002  0.1857076E+03  0.7818608E-02  0.1162419E+00
         21   -1    0    0  501  502  0.00000000000E+00  0.00000000000E+00  0.75331847454E+02  0.75331847454E+02  0.00000000000E+00 0.  1.
         21   -1    0    0  502  503 -0.00000000000E+00 -0.00000000000E+00 -0.45764391507E+03  0.45764391507E+03  0.00000000000E+00 0.  1.
         -6    2    1    2    0  503  0.56356291399E+02 -0.41158809071E+02 -0.19575802501E+03  0.26974633156E+03  0.17196453091E+03 0.  0.
        -24    2    3    3    0    0 -0.26429635916E+02 -0.47393455745E+02 -0.70221737220E+02  0.11916801263E+03  0.79531487811E+02 0.  0.
          6    2    1    2  501    0 -0.56356291399E+02  0.41158809071E+02 -0.18655404261E+03  0.26322943097E+03  0.17209661057E+03 0.  0.
         24    2    5    5    0    0 -0.61966895720E+02  0.83069361884E+02 -0.17526029507E+03  0.21921111601E+03  0.81221470725E+02 0.  0.
          5    1    5    5  501    0  0.56106043206E+01 -0.41910552814E+02 -0.11293747542E+02  0.44018314955E+02  0.47000000000E+01 0. -1.
        -11    1    6    6    0    0 -0.73798119293E+02  0.42952694564E+02 -0.88952627851E+02  0.12330314831E+03  0.00000000000E+00 0.  1.
         12    1    6    6    0    0  0.11831223574E+02  0.40116667320E+02 -0.86307667220E+02  0.95907967704E+02  0.00000000000E+00 0. -1.
         -5    1    3    3    0  503  0.82785927315E+02  0.62346466749E+01 -0.12553628779E+03  0.15057831893E+03  0.47000000000E+01 0.  1.
         11    1    4    4    0    0  0.67110731144E+01 -0.37009240255E+02  0.33997771241E+01  0.37766133653E+02  0.00000000000E+00 0. -1.
        -12    1    4    4    0    0 -0.33140709031E+02 -0.10384215491E+02 -0.73621514344E+02  0.81401878975E+02  0.00000000000E+00 0.  1.
</event>
<event>
12    1  0.8563264E-002  0.2280957E+03  0.7818608E-02  0.1128201E+00
         21   -1    0    0  501  502  0.00000000000E+00  0.00000000000E+00  0.22898974714E+03  0.22898974714E+03  0.00000000000E+00 0.  1.
         21   -1    0    0  502  503 -0.00000000000E+00 -0.00000000000E+00 -0.27614436551E+03  0.27614436551E+03  0.00000000000E+00 0.  1.
         -6    2    1    2    0  503  0.11608637552E+03  0.91420256993E+02 -0.13123870879E+03  0.26315630652E+03  0.17376401527E+03 0.  0.
        -24    2    3    3    0    0  0.14736745676E+03  0.53686885628E+02 -0.85100267361E+02  0.19567920569E+03  0.80304713663E+02 0.  0.
          6    2    1    2  501    0 -0.11608637552E+03 -0.91420256993E+02  0.84084090422E+02  0.24197780613E+03  0.17219005322E+03 0.  0.
         24    2    5    5    0    0 -0.88185751760E+02 -0.11982756002E+03  0.26488905705E+02  0.17180149265E+03  0.81723434813E+02 0.  0.
          5    1    5    5  501    0 -0.27900623764E+02  0.28407303024E+02  0.57595184718E+02  0.70176313484E+02  0.47000000000E+01 0. -1.
        -13    1    6    6    0    0 -0.76887555276E+02 -0.81081921659E+02  0.52836900355E+02  0.12360304291E+03  0.00000000000E+00 0.  1.
         14    1    6    6    0    0 -0.11298196483E+02 -0.38745638358E+02 -0.26347994650E+02  0.48198449743E+02  0.00000000000E+00 0. -1.
         -5    1    3    3    0  503 -0.31281081234E+02  0.37733371366E+02 -0.46138441432E+02  0.67477100824E+02  0.47000000000E+01 0.  1.
         11    1    4    4    0    0 -0.76269964851E+00 -0.12670317746E+02 -0.64931299755E+00  0.12709849327E+02  0.00000000000E+00 0. -1.
        -12    1    4    4    0    0  0.14813015641E+03  0.66357203374E+02 -0.84450954364E+02  0.18296935637E+03  0.00000000000E+00 0.  1.
</event>
<event>
12    1  0.8563264E-002  0.1804647E+03  0.7818608E-02  0.1167954E+00
         21   -1    0    0  503  502  0.00000000000E+00  0.00000000000E+00  0.81756165550E+03  0.81756165550E+03  0.00000000000E+00 0.  1.
         21   -1    0    0  501  503 -0.00000000000E+00 -0.00000000000E+00 -0.69813734763E+02  0.69813734763E+02  0.00000000000E+00 0.  1.
          6    2    1    2  501    0 -0.49578895959E+02  0.20081800018E+01  0.81958493314E+02  0.19820373447E+03  0.17350915256E+03 0.  0.
         24    2    3    3    0    0 -0.99398478743E+02  0.16442740905E+02  0.60296418759E+02  0.14179732658E+03  0.79500958523E+02 0.  0.
         -6    2    1    2    0  502  0.49578895959E+02 -0.20081800018E+01  0.66578942742E+03  0.68917165579E+03  0.17093832152E+03 0.  0.
        -24    2    5    5    0    0 -0.96704273697E+01 -0.54147832788E+02  0.33408007042E+03  0.34816987686E+03  0.81161966104E+02 0.  0.
          5    1    3    3  501    0  0.49819582783E+02 -0.14434560903E+02  0.21662074555E+02  0.56406407891E+02  0.47000000000E+01 0. -1.
        -13    1    4    4    0    0 -0.62384629154E+02  0.17937734833E+02 -0.66840989960E+01  0.65255509078E+02  0.00000000000E+00 0.  1.
         14    1    4    4    0    0 -0.37013849589E+02 -0.14949939285E+01  0.66980517755E+02  0.76541817505E+02  0.00000000000E+00 0. -1.
         -5    1    5    5    0  502  0.59249323329E+02  0.52139652786E+02  0.33170935700E+03  0.34100177892E+03  0.47000000000E+01 0.  1.
         13    1    6    6    0    0 -0.96817683596E+01 -0.35626864322E+02  0.43733178642E+02  0.57232866555E+02  0.00000000000E+00 0. -1.
        -14    1    6    6    0    0  0.11340989881E-01 -0.18520968466E+02  0.29034689178E+03  0.29093701031E+03  0.00000000000E+00 0.  1.
</event>
<event>
12    1  0.8563264E-002  0.1877003E+03  0.7818608E-02  0.1161523E+00
         21   -1    0    0  503  502  0.00000000000E+00  0.00000000000E+00  0.44297167750E+03  0.44297167750E+03  0.00000000000E+00 0.  1.
         21   -1    0    0  501  503 -0.00000000000E+00 -0.00000000000E+00 -0.88258419432E+02  0.88258419432E+02  0.00000000000E+00 0.  1.
          6    2    1    2  501    0  0.61782061906E+02 -0.39151174830E+02  0.84034841969E+02  0.20183945776E+03  0.16830767772E+03 0.  0.
         24    2    3    3    0    0  0.95696817717E+02 -0.51698861400E+02  0.32026431526E+02  0.13832080021E+03  0.79223091730E+02 0.  0.
         -6    2    1    2    0  502 -0.61782061906E+02  0.39151174830E+02  0.27067841610E+03  0.32939063917E+03  0.17286280852E+03 0.  0.
        -24    2    5    5    0    0 -0.48453975499E+02 -0.45134033648E+02  0.15181958251E+03  0.18299683268E+03  0.77806082053E+02 0.  0.
          5    1    3    3  501    0 -0.33914755810E+02  0.12547686570E+02  0.52008410443E+02  0.63518657548E+02  0.47000000000E+01 0. -1.
        -11    1    4    4    0    0  0.41645356554E+02 -0.18153168798E+02 -0.25891199567E+02  0.52289841030E+02  0.00000000000E+00 0.  1.
         12    1    4    4    0    0  0.54051461163E+02 -0.33545692602E+02  0.57917631093E+02  0.86030959180E+02  0.00000000000E+00 0. -1.
         -5    1    5    5    0  502 -0.13328086407E+02  0.84285208478E+02  0.11885883359E+03  0.14639380648E+03  0.47000000000E+01 0.  1.
         11    1    6    6    0    0 -0.18440228230E+02  0.93886393670E+01  0.20302812990E+01  0.20792080427E+02  0.00000000000E+00 0. -1.
        -12    1    6    6    0    0 -0.30013747269E+02 -0.54522673015E+02  0.14978930121E+03  0.16220475226E+03  0.00000000000E+00 0.  1.
</event>
<event>
12    1  0.8563264E-002  0.1861487E+03  0.7818608E-02  0.1162640E+00
         21   -1    0    0  501  502  0.00000000000E+00  0.00000000000E+00  0.80662358556E+03  0.80662358556E+03  0.00000000000E+00 0.  1.
         21   -1    0    0  502  503 -0.00000000000E+00 -0.00000000000E+00 -0.44998891759E+02  0.44998891759E+02  0.00000000000E+00 0.  1.
         -6    2    1    2    0  503  0.50678443670E+02  0.31881966174E+02  0.48215771524E+03  0.51583517504E+03  0.17327752601E+03 0.  0.
        -24    2    3    3    0    0 -0.91377150321E+01 -0.28946381414E+02  0.33347360024E+03  0.34435014139E+03  0.80318036478E+02 0.  0.
          6    2    1    2  501    0 -0.50678443670E+02 -0.31881966174E+02  0.27946697856E+03  0.33578730228E+03  0.17625707319E+03 0.  0.
         24    2    5    5    0    0 -0.78015635367E+02  0.21820790281E+02  0.12115514018E+03  0.16632923587E+03  0.80151484474E+02 0.  0.
          5    1    5    5  501    0  0.27337191697E+02 -0.53702756454E+02  0.15831183838E+03  0.16945806641E+03  0.47000000000E+01 0. -1.
        -11    1    6    6    0    0 -0.85623990790E+01  0.11639847143E+02  0.87133652677E+02  0.88323689621E+02  0.00000000000E+00 0.  1.
         12    1    6    6    0    0 -0.69453236288E+02  0.10180943137E+02  0.34021487508E+02  0.78005546254E+02  0.00000000000E+00 0. -1.
         -5    1    3    3    0  503  0.59816158702E+02  0.60828347587E+02  0.14868411500E+03  0.17148503365E+03  0.47000000000E+01 0.  1.
         11    1    4    4    0    0  0.78805619348E+01 -0.93737176650E+01  0.26733013120E+01  0.12534607261E+02  0.00000000000E+00 0. -1.
        -12    1    4    4    0    0 -0.17018276967E+02 -0.19572663749E+02  0.33080029893E+03  0.33181553413E+03  0.00000000000E+00 0.  1.
</event>
<event>
12    1  0.8563264E-002  0.2038880E+03  0.7818608E-02  0.1146656E+00
         21   -1    0    0  501  502  0.00000000000E+00  0.00000000000E+00  0.45365354572E+03  0.45365354572E+03  0.00000000000E+00 0. -1.
         21   -1    0    0  502  503 -0.00000000000E+00 -0.00000000000E+00 -0.19180501523E+03  0.19180501523E+03  0.00000000000E+00 0. -1.
         -6    2    1    2    0  503 -0.77190452974E+02 -0.76041956769E+02 -0.10258290037E+03  0.22824011505E+03  0.17271234307E+03 0.  0.
        -24    2    3    3    0    0 -0.57343416453E+02 -0.11991260971E+03 -0.79818538410E+02  0.17477194485E+03  0.80665558046E+02 0.  0.
          6    2    1    2  501    0  0.77190452974E+02  0.76041956769E+02  0.36443143086E+03  0.41721844591E+03  0.17181448886E+03 0.  0.
         24    2    5    5    0    0  0.46774868541E+02 -0.16926773248E+02  0.24879685795E+03  0.26568713894E+03  0.78837651501E+02 0.  0.
          5    1    5    5  501    0  0.30415584432E+02  0.92968730017E+02  0.11563457292E+03  0.15153130697E+03  0.47000000000E+01 0. -1.
        -13    1    6    6    0    0 -0.56187253674E+01 -0.35131748856E+02  0.12634606314E+03  0.13125980925E+03  0.00000000000E+00 0.  1.
         14    1    6    6    0    0  0.52393593909E+02  0.18204975608E+02  0.12245079480E+03  0.13442732969E+03  0.00000000000E+00 0. -1.
         -5    1    3    3    0  503 -0.19847036521E+02  0.43870652944E+02 -0.22764361962E+02  0.53468170194E+02  0.47000000000E+01 0.  1.
         11    1    4    4    0    0 -0.41569458423E+02 -0.28334773754E+02 -0.62523111570E+02  0.80249727462E+02  0.00000000000E+00 0. -1.
        -12    1    4    4    0    0 -0.15773958030E+02 -0.91577835959E+02 -0.17295426840E+02  0.94522217391E+02  0.00000000000E+00 0.  1.
</event>
<event>
12    1  0.8563264E-002  0.2507348E+03  0.7818608E-02  0.1113034E+00
         21   -1    0    0  501  502  0.00000000000E+00  0.00000000000E+00  0.73423400234E+03  0.73423400234E+03  0.00000000000E+00 0.  1.
         21   -1    0    0  502  503 -0.00000000000E+00 -0.00000000000E+00 -0.12521065832E+03  0.12521065832E+03  0.00000000000E+00 0.  1.
         -6    2    1    2    0  503  0.17154537639E+03 -0.60690999317E+02  0.62125526845E+02  0.25831675022E+03  0.17250144579E+03 0.  0.
        -24    2    3    3    0    0  0.45484370686E+02 -0.17385263014E+02 -0.27739118144E+02  0.97492285741E+02  0.79776009908E+02 0.  0.
          6    2    1    2  501    0 -0.17154537639E+03  0.60690999317E+02  0.54689781718E+03  0.60112791044E+03  0.17072295896E+03 0.  0.
         24    2    5    5    0    0 -0.15399924678E+03  0.10141590626E+02  0.24428981778E+03  0.29378965919E+03  0.53068153404E+02 0.  0.
          5    1    5    5  501    0 -0.17546129613E+02  0.50549408691E+02  0.30260799940E+03  0.30733825125E+03  0.47000000000E+01 0. -1.
        -13    1    6    6    0    0 -0.11659544790E+03  0.23595197503E+02  0.20972447932E+03  0.24111322867E+03  0.00000000000E+00 0.  1.
         14    1    6    6    0    0 -0.37403798882E+02 -0.13453606877E+02  0.34565338458E+02  0.52676430512E+02  0.00000000000E+00 0. -1.
         -5    1    3    3    0  503  0.12606100571E+03 -0.43305736303E+02  0.89864644989E+02  0.16082446448E+03  0.47000000000E+01 0.  1.
         13    1    4    4    0    0  0.20060004353E+02  0.29710027503E+02  0.26512450175E+01  0.35946051369E+02  0.00000000000E+00 0. -1.
        -14    1    4    4    0    0  0.25424366333E+02 -0.47095290517E+02 -0.30390363161E+02  0.61546234372E+02  0.00000000000E+00 0.  1.
</event>
<event>
12    1  0.8563264E-002  0.2110653E+03  0.7818608E-02  0.1141048E+00
         21   -1    0    0  503  502  0.00000000000E+00  0.00000000000E+00  0.30625504558E+03  0.30625504558E+03  0.00000000000E+00 0. -1.
         21   -1    0    0  501  503 -0.00000000000E+00 -0.00000000000E+00 -0.27788315199E+03  0.27788315199E+03  0.00000000000E+00 0. -1.
          6    2    1    2  501    0 -0.11534826900E+03 -0.37630894328E+02 -0.18831596971E+03  0.28164492319E+03  0.17070340049E+03 0.  0.
         24    2    3    3    0    0 -0.12680576341E+03  0.33576761224E+01 -0.91456294668E+02  0.17574296978E+03  0.80189537789E+02 0.  0.
         -6    2    1    2    0  502  0.11534826900E+03  0.37630894328E+02  0.21668786331E+03  0.30249327438E+03  0.17270565588E+03 0.  0.
        -24    2    5    5    0    0  0.55724211922E+01  0.25020259756E+02  0.15503961194E+03  0.17587431149E+03  0.78977382192E+02 0.  0.
          5    1    3    3  501    0  0.11457494406E+02 -0.40988570450E+02 -0.96859675044E+02  0.10590195341E+03  0.47000000000E+01 0. -1.
        -13    1    4    4    0    0 -0.50332095151E+01  0.28075109593E+01 -0.45064581830E+02  0.45431617310E+02  0.00000000000E+00 0.  1.
         14    1    4    4    0    0 -0.12177255389E+03  0.55016516308E+00 -0.46391712838E+02  0.13031135247E+03  0.00000000000E+00 0. -1.
         -5    1    5    5    0  502  0.10977584781E+03  0.12610634572E+02  0.61648251374E+02  0.12661896289E+03  0.47000000000E+01 0.  1.
         13    1    6    6    0    0  0.40532530577E+02  0.22687684600E+02  0.10470112389E+03  0.11454231712E+03  0.00000000000E+00 0. -1.
        -14    1    6    6    0    0 -0.34960109385E+02  0.23325751559E+01  0.50338488050E+02  0.61331994377E+02  0.00000000000E+00 0.  1.
</event>
<event>
12    1  0.8563264E-002  0.1897159E+03  0.7818608E-02  0.1158734E+00
         21   -1    0    0  503  502  0.00000000000E+00  0.00000000000E+00  0.63019332771E+03  0.63019332771E+03  0.00000000000E+00 0. -1.
         21   -1    0    0  501  503 -0.00000000000E+00 -0.00000000000E+00 -0.74233324963E+02  0.74233324963E+02  0.00000000000E+00 0. -1.
          6    2    1    2  501    0  0.18174214750E+02 -0.76367244697E+02  0.10868203587E+03  0.21857718267E+03  0.17263238897E+03 0.  0.
         24    2    3    3    0    0  0.19337899016E+02 -0.71144846401E+02  0.14538932094E+03  0.18118544051E+03  0.79085812251E+02 0.  0.
         -6    2    1    2    0  502 -0.18174214750E+02  0.76367244697E+02  0.44727796688E+03  0.48584947000E+03  0.17271325862E+03 0.  0.
        -24    2    5    5    0    0 -0.58382067817E+02  0.14045248505E+01  0.26997708773E+03  0.28914214284E+03  0.85469949867E+02 0.  0.
          5    1    3    3  501    0 -0.11636842667E+01 -0.52223982956E+01 -0.36707285071E+02  0.37391742168E+02  0.47000000000E+01 0. -1.
        -11    1    4    4    0    0 -0.10675847385E+02  0.13709843800E+02  0.32024216743E+02  0.36434653730E+02  0.00000000000E+00 0.  1.
         12    1    4    4    0    0  0.30013746402E+02 -0.84854690201E+02  0.11336510420E+03  0.14475078678E+03  0.00000000000E+00 0. -1.
         -5    1    5    5    0  502  0.40207853068E+02  0.74962719846E+02  0.17730087915E+03  0.19670732717E+03  0.47000000000E+01 0.  1.
         11    1    6    6    0    0 -0.49794364422E+02  0.39919672010E+02  0.15723003758E+03  0.16968896151E+03  0.00000000000E+00 0. -1.
        -12    1    6    6    0    0 -0.85877033956E+01 -0.38515147159E+02  0.11274705015E+03  0.11945318132E+03  0.00000000000E+00 0.  1.
</event>
<event>
12    1  0.8563264E-002  0.1834925E+03  0.7818608E-02  0.1167124E+00
         21   -1    0    0  501  502  0.00000000000E+00  0.00000000000E+00  0.32046370447E+03  0.32046370447E+03  0.00000000000E+00 0.  1.
         21   -1    0    0  502  503 -0.00000000000E+00 -0.00000000000E+00 -0.15194017522E+03  0.15194017522E+03  0.00000000000E+00 0.  1.
         -6    2    1    2    0  503 -0.56880078812E+02 -0.21359117736E+02 -0.56912155642E+02  0.18173093418E+03  0.16154127553E+03 0.  0.
        -24    2    3    3    0    0 -0.37008206289E+01  0.19114038279E+02  0.14002668735E+02  0.84175246618E+02  0.80686770160E+02 0.  0.
          6    2    1    2  501    0  0.56880078812E+02  0.21359117736E+02  0.22543568489E+03  0.29067294552E+03  0.17314143917E+03 0.  0.
         24    2    5    5    0    0  0.42860922678E+02  0.66071331130E+02  0.21538742888E+03  0.24251927261E+03  0.78875684325E+02 0.  0.
          5    1    5    5  501    0  0.14019156134E+02 -0.44712213395E+02  0.10048256006E+02  0.48153672904E+02  0.47000000000E+01 0. -1.
        -13    1    6    6    0    0 -0.16630112198E+02  0.13061862734E+02  0.10052142089E+03  0.10272160896E+03  0.00000000000E+00 0.  1.
         14    1    6    6    0    0  0.59491034876E+02  0.53009468396E+02  0.11486600799E+03  0.13979766365E+03  0.00000000000E+00 0. -1.
         -5    1    3    3    0  503 -0.53179258183E+02 -0.40473156015E+02 -0.70914824377E+02  0.97555687559E+02  0.47000000000E+01 0.  1.
         11    1    4    4    0    0  0.31706318396E+02 -0.60996566943E+01 -0.10902451306E+02  0.34078730647E+02  0.00000000000E+00 0. -1.
        -12    1    4    4    0    0 -0.35407139025E+02  0.25213694973E+02  0.24905120042E+02  0.50096515971E+02  0.00000000000E+00 0.  1.
</event>
<event>
12    1  0.8563264E-002  0.1765159E+03  0.7818608E-02  0.1171482E+00
         21   -1    0    0  503  502  0.00000000000E+00  0.00000000000E+00  0.14587773577E+03  0.14587773577E+03  0.00000000000E+00 0. -1.
         21   -1    0    0  501  503 -0.00000000000E+00 -0.00000000000E+00 -0.28314199975E+03  0.28314199975E+03  0.00000000000E+00 0. -1.
          6    2    1    2  501    0 -0.19852310850E+02 -0.26143940687E+02 -0.17576924656E+03  0.24835289148E+03  0.17235634828E+03 0.  0.
         24    2    3    3    0    0  0.28550917582E+02  0.38320701076E+02 -0.86534346391E+02  0.12800539476E+03  0.81323778540E+02 0.  0.
         -6    2    1    2    0  502  0.19852310850E+02  0.26143940687E+02  0.38504982581E+02  0.18066684404E+03  0.17343660217E+03 0.  0.
        -24    2    5    5    0    0 -0.43908523892E+02 -0.19619659047E+02  0.29389946590E+01  0.94372113006E+02  0.81145354347E+02 0.  0.
          5    1    3    3  501    0 -0.48403228432E+02 -0.64464641763E+02 -0.89234900167E+02  0.12034749673E+03  0.47000000000E+01 0. -1.
        -11    1    4    4    0    0 -0.40022312311E+01  0.35279268310E+02 -0.53803159658E-02  0.35505558104E+02  0.00000000000E+00 0.  1.
         12    1    4    4    0    0  0.32553148813E+02  0.30414327659E+01 -0.86528966075E+02  0.92499836654E+02  0.00000000000E+00 0. -1.
         -5    1    5    5    0  502  0.63760834742E+02  0.45763599734E+02  0.35565987922E+02  0.86294731036E+02  0.47000000000E+01 0.  1.
         11    1    6    6    0    0 -0.15140278911E+02  0.29744742089E+02  0.13969219884E+02  0.36181719578E+02  0.00000000000E+00 0. -1.
        -12    1    6    6    0    0 -0.28768244981E+02 -0.49364401136E+02 -0.11030225225E+02  0.58190393428E+02  0.00000000000E+00 0.  1.
</event>
<event>
12    1  0.8563264E-002  0.1789700E+03  0.7818608E-02  0.1169375E+00
         21   -1    0    0  503  502  0.00000000000E+00  0.00000000000E+00  0.80233892074E+03  0.80233892074E+03  0.00000000000E+00 0.  1.
         21   -1    0    0  501  503 -0.00000000000E+00 -0.00000000000E+00 -0.15259624838E+03  0.15259624838E+03  0.00000000000E+00 0.  1.
          6    2    1    2  501    0 -0.22432613507E+02 -0.34875618825E+02 -0.86901478119E+02  0.19686204520E+03  0.17170692183E+03 0.  0.
         24    2    3    3    0    0  0.26310702317E+02  0.47894313667E+02 -0.36490833104E+02  0.88279838123E+02  0.58954478883E+02 0.  0.
         -6    2    1    2    0  502  0.22432613507E+02  0.34875618825E+02  0.73664415047E+03  0.75807312392E+03  0.17409975831E+03 0.  0.
        -24    2    5    5    0    0  0.46464530608E+02  0.19044641667E+02  0.71631931450E+03  0.72252960363E+03  0.80087557140E+02 0.  0.
          5    1    3    3  501    0 -0.48743315824E+02 -0.82769932492E+02 -0.50410645015E+02  0.10858220707E+03  0.47000000000E+01 0. -1.
        -11    1    4    4    0    0  0.14468074569E+02 -0.10384669074E+02 -0.19546440691E+02  0.26442955152E+02  0.00000000000E+00 0.  1.
         12    1    4    4    0    0  0.11842627748E+02  0.58278982741E+02 -0.16944392413E+02  0.61836882971E+02  0.00000000000E+00 0. -1.
         -5    1    5    5    0  502 -0.24031917101E+02  0.15830977158E+02  0.20324835970E+02  0.35543520289E+02  0.47000000000E+01 0.  1.
         11    1    6    6    0    0  0.42487061502E+02 -0.20393394719E+02  0.24128781461E+03  0.24584720950E+03  0.00000000000E+00 0. -1.
        -12    1    6    6    0    0  0.39774691060E+01  0.39438036386E+02  0.47503149990E+03  0.47668239413E+03  0.00000000000E+00 0.  1.
</event>
<event>
12    1  0.8563264E-002  0.2014383E+03  0.7818608E-02  0.1150433E+00
         21   -1    0    0  503  502  0.00000000000E+00  0.00000000000E+00  0.21909114714E+03  0.21909114714E+03  0.00000000000E+00 0. -1.
         21   -1    0    0  501  503 -0.00000000000E+00 -0.00000000000E+00 -0.19089722843E+03  0.19089722843E+03  0.00000000000E+00 0. -1.
          6    2    1    2  501    0  0.84344273079E+02  0.91219545292E+01  0.69426998151E+02  0.21306692728E+03  0.18270260254E+03 0.  0.
         24    2    3    3    0    0  0.65869166125E+02  0.70876082871E+02 -0.72415153406E+00  0.11768256931E+03  0.66981314963E+02 0.  0.
         -6    2    1    2    0  502 -0.84344273079E+02 -0.91219545292E+01 -0.41233079444E+02  0.19692144829E+03  0.17286041623E+03 0.  0.
        -24    2    5    5    0    0  0.20427791439E+02  0.14031850710E+02 -0.32985586329E+02  0.89202390816E+02  0.79087483994E+02 0.  0.
          5    1    3    3  501    0  0.18475106954E+02 -0.61754128342E+02  0.70151149685E+02  0.95384357975E+02  0.47000000000E+01 0. -1.
        -11    1    4    4    0    0  0.25720826327E+02 -0.36432342143E-01 -0.21571308455E+02  0.33569086713E+02  0.00000000000E+00 0.  1.
         12    1    4    4    0    0  0.40148339798E+02  0.70912515213E+02  0.20847156921E+02  0.84113482594E+02  0.00000000000E+00 0. -1.
         -5    1    5    5    0  502 -0.10477206452E+03 -0.23153805240E+02 -0.82474931152E+01  0.10771905747E+03  0.47000000000E+01 0.  1.
         11    1    6    6    0    0  0.14891897289E+02 -0.32627864728E+02 -0.15406400158E+02  0.39034642658E+02  0.00000000000E+00 0. -1.
        -12    1    6    6    0    0  0.55358941495E+01  0.46659715439E+02 -0.17579186171E+02  0.50167748158E+02  0.00000000000E+00 0.  1.
</event>
<event>
12    1  0.8563264E-002  0.1779586E+03  0.7818608E-02  0.1169899E+00
         21   -1    0    0  501  502  0.00000000000E+00  0.00000000000E+00  0.84848847236E+02  0.84848847236E+02  0.00000000000E+00 0.  1.
         21   -1    0    0  502  503 -0.00000000000E+00 -0.00000000000E+00 -0.44896935007E+03  0.44896935007E+03  0.00000000000E+00 0. -1.
         -6    2    1    2    0  503  0.34798085537E+02  0.26547468986E+02 -0.29251171558E+03  0.34239213792E+03  0.17249231139E+03 0.  0.
        -24    2    3    3    0    0 -0.86743929120E+01  0.54792244221E+02 -0.26762488957E+03  0.28469406326E+03  0.79688098348E+02 0.  0.
          6    2    1    2  501    0 -0.34798085537E+02 -0.26547468986E+02 -0.71608787252E+02  0.19142605939E+03  0.17204779259E+03 0.  0.
         24    2    5    5    0    0 -0.77708587249E+02  0.96758571663E+01 -0.17221776463E+02  0.11310953841E+03  0.79780519876E+02 0.  0.
          5    1    5    5  501    0  0.42910501712E+02 -0.36223326152E+02 -0.54387010789E+02  0.78316520973E+02  0.47000000000E+01 0. -1.
        -11    1    6    6    0    0 -0.32107461700E+01  0.70770716906E+01  0.25866792690E+02  0.27008976262E+02  0.00000000000E+00 0.  1.
         12    1    6    6    0    0 -0.74497841079E+02  0.25987854757E+01 -0.43088569153E+02  0.86100562153E+02  0.00000000000E+00 0. -1.
         -5    1    3    3    0  503  0.43472478449E+02 -0.28244775235E+02 -0.24886826013E+02  0.57698074661E+02  0.47000000000E+01 0.  1.
         11    1    4    4    0    0  0.23455877558E+02  0.94850725094E+01 -0.24194661553E+02  0.35007519766E+02  0.00000000000E+00 0. -1.
        -12    1    4    4    0    0 -0.32130270470E+02  0.45307171712E+02 -0.24343022802E+03  0.24968654349E+03  0.00000000000E+00 0.  1.
</event>
<event>
12    1  0.8563264E-002  0.1772846E+03  0.7818608E-02  0.1171066E+00
         21   -1    0    0  503  502  0.00000000000E+00  0.00000000000E+00  0.45409598847E+02  0.45409598847E+02  0.00000000000E+00 0. -1.
         21   -1    0    0  501  503 -0.00000000000E+00 -0.00000000000E+00 -0.92554230045E+03  0.92554230045E+03  0.00000000000E+00 0. -1.
          6    2    1    2  501    0 -0.36799134398E+02 -0.19933204182E+02 -0.18909749562E+03  0.25753792619E+03  0.16975397389E+03 0.  0.
         24    2    3    3    0    0 -0.27080057099E+02 -0.24263345750E+02 -0.21368402781E+03  0.23033869541E+03  0.77929528553E+02 0.  0.
         -6    2    1    2    0  502  0.36799134398E+02  0.19933204182E+02 -0.69103520598E+03  0.71341397311E+03  0.17227400327E+03 0.  0.
        -24    2    5    5    0    0  0.54725684369E+02 -0.19636412954E+02 -0.63364463704E+03  0.64128295900E+03  0.79735927920E+02 0.  0.
          5    1    3    3  501    0 -0.97190772992E+01  0.43301415676E+01  0.24586532193E+02  0.27199230776E+02  0.47000000000E+01 0. -1.
        -13    1    4    4    0    0 -0.29990346118E+01 -0.45466800178E+02 -0.73090195545E+02  0.86130138812E+02  0.00000000000E+00 0.  1.
         14    1    4    4    0    0 -0.24081022487E+02  0.21203454428E+02 -0.14059383227E+03  0.14420855660E+03  0.00000000000E+00 0. -1.
         -5    1    5    5    0  502 -0.17926549970E+02  0.39569617136E+02 -0.57390568939E+02  0.72131014116E+02  0.47000000000E+01 0.  1.
         11    1    6    6    0    0  0.29042191519E+02  0.26790504719E+02 -0.38607980969E+03  0.38809637912E+03  0.00000000000E+00 0. -1.
        -12    1    6    6    0    0  0.25683492849E+02 -0.46426917673E+02 -0.24756482735E+03  0.25318657988E+03  0.00000000000E+00 0.  1.
</event>
<event>
12    1  0.8563264E-002  0.1825305E+03  0.7818608E-02  0.1166124E+00
         21   -1    0    0  501  502  0.00000000000E+00  0.00000000000E+00  0.10995353818E+03  0.10995353818E+03  0.00000000000E+00 0. -1.
         21   -1    0    0  502  503 -0.00000000000E+00 -0.00000000000E+00 -0.36261137918E+03  0.36261137918E+03  0.00000000000E+00 0. -1.
         -6    2    1    2    0  503  0.42028924850E+02  0.21419761547E+02 -0.27378469833E+02  0.18457237764E+03  0.17632964943E+03 0.  0.
        -24    2    3    3    0    0 -0.49455991287E+01  0.13575674976E+02  0.48748326490E+02  0.94652887456E+02  0.79837408941E+02 0.  0.
          6    2    1    2  501    0 -0.42028924850E+02 -0.21419761547E+02 -0.22527937116E+03  0.28799253972E+03  0.17310017664E+03 0.  0.
         24    2    5    5    0    0  0.52910485536E+01 -0.38035630831E+02 -0.22000827638E+03  0.23734531437E+03  0.80339605236E+02 0.  0.
          5    1    5    5  501    0 -0.47319973404E+02  0.16615869284E+02 -0.52710947785E+01  0.50647225345E+02  0.47000000000E+01 0. -1.
        -11    1    6    6    0    0 -0.27797226035E+02 -0.26009145856E+02 -0.45516384496E+02  0.59337194920E+02  0.00000000000E+00 0.  1.
         12    1    6    6    0    0  0.33088274589E+02 -0.12026484975E+02 -0.17449189189E+03  0.17800811945E+03  0.00000000000E+00 0. -1.
         -5    1    3    3    0  503  0.46974523979E+02  0.78440865710E+01 -0.76126796323E+02  0.89919490187E+02  0.47000000000E+01 0.  1.
         11    1    4    4    0    0 -0.20861411160E+02 -0.28357705883E+02  0.29147283386E+02  0.45704727188E+02  0.00000000000E+00 0. -1.
        -12    1    4    4    0    0  0.15915812032E+02  0.41933380859E+02  0.19601043104E+02  0.48948160268E+02  0.00000000000E+00 0.  1.
</event>
<event>
12    1  0.8563264E-002  0.1730252E+03  0.7818608E-02  0.1174964E+00
         21   -1    0    0  501  502  0.00000000000E+00  0.00000000000E+00  0.38690325136E+03  0.38690325136E+03  0.00000000000E+00 0.  1.
         21   -1    0    0  502  503 -0.00000000000E+00 -0.00000000000E+00 -0.18713336743E+03  0.18713336743E+03  0.00000000000E+00 0.  1.
         -6    2    1    2    0  503 -0.53932645042E+01 -0.15980653331E+02 -0.12044377289E+03  0.21006614097E+03  0.17127934076E+03 0.  0.
        -24    2    3    3    0    0  0.18760817154E+02 -0.67802806334E+02 -0.48108809640E+02  0.11774392202E+03  0.81240290503E+02 0.  0.
          6    2    1    2  501    0  0.53932645042E+01  0.15980653331E+02  0.32021365682E+03  0.36397047783E+03  0.17220120247E+03 0.  0.
         24    2    5    5    0    0  0.19751624771E+02 -0.49688614911E+02  0.12547404397E+03  0.15790198894E+03  0.79562662512E+02 0.  0.
          5    1    5    5  501    0 -0.14358360267E+02  0.65669268242E+02  0.19473961285E+03  0.20606848889E+03  0.47000000000E+01 0. -1.
        -11    1    6    6    0    0  0.45823343201E+02 -0.51928857329E+02  0.84080452741E+02  0.10893074653E+03  0.00000000000E+00 0.  1.
         12    1    6    6    0    0 -0.26071718430E+02  0.22402424186E+01  0.41393591232E+02  0.48971242409E+02  0.00000000000E+00 0. -1.
         -5    1    3    3    0  503 -0.24154081658E+02  0.51822153003E+02 -0.72334963248E+02  0.92322218944E+02  0.47000000000E+01 0.  1.
         11    1    4    4    0    0  0.12637021683E+02  0.11209339540E+02  0.98573577596E+01  0.19557891296E+02  0.00000000000E+00 0. -1.
        -12    1    4    4    0    0  0.61237954709E+01 -0.79012145874E+02 -0.57966167400E+02  0.98186030725E+02  0.00000000000E+00 0.  1.
</event>
<event>
12    1  0.8563264E-002  0.2207622E+03  0.7818608E-02  0.1133820E+00
         21   -1    0    0  503  502  0.00000000000E+00  0.00000000000E+00  0.25464357262E+03  0.25464357262E+03  0.00000000000E+00 0. -1.
         21   -1    0    0  501  503 -0.00000000000E+00 -0.00000000000E+00 -0.72693562287E+03  0.72693562287E+03  0.00000000000E+00 0. -1.
          6    2    1    2  501    0 -0.11616901173E+03 -0.71995757284E+02 -0.65793809990E+03  0.69313442006E+03  0.16992396129E+03 0.  0.
         24    2    3    3    0    0 -0.53095423436E+02 -0.25671376948E+02 -0.15629715195E+03  0.18540421964E+03  0.80422517804E+02 0.  0.
         -6    2    1    2    0  502  0.11616901173E+03  0.71995757284E+02  0.18564604965E+03  0.28844477544E+03  0.17337042532E+03 0.  0.
        -24    2    5    5    0    0  0.89079884186E+02  0.10184392222E+03  0.19080362357E+03  0.24753726574E+03  0.81001635186E+02 0.  0.
          5    1    3    3  501    0 -0.63073588290E+02 -0.46324380336E+02 -0.50164094795E+03  0.50773020042E+03  0.47000000000E+01 0. -1.
        -11    1    4    4    0    0 -0.64717885312E+02 -0.16890807152E+02 -0.66094135571E+02  0.94032647534E+02  0.00000000000E+00 0.  1.
         12    1    4    4    0    0  0.11622461876E+02 -0.87805697961E+01 -0.90203016376E+02  0.91371572107E+02  0.00000000000E+00 0. -1.
         -5    1    5    5    0  502  0.27089127539E+02 -0.29848164939E+02 -0.51575739206E+01  0.40907509699E+02  0.47000000000E+01 0.  1.
         13    1    6    6    0    0  0.37035604694E+02  0.42299269928E+01  0.91811157438E+02  0.99089943625E+02  0.00000000000E+00 0. -1.
        -14    1    6    6    0    0  0.52044279492E+02  0.97613995230E+02  0.98992466128E+02  0.14844732211E+03  0.00000000000E+00 0.  1.
</event>
<event>
12    1  0.8563264E-002  0.1865732E+03  0.7818608E-02  0.1162569E+00
         21   -1    0    0  503  502  0.00000000000E+00  0.00000000000E+00  0.15306791621E+03  0.15306791621E+03  0.00000000000E+00 0. -1.
         21   -1    0    0  501  503 -0.00000000000E+00 -0.00000000000E+00 -0.34427753142E+03  0.34427753142E+03  0.00000000000E+00 0. -1.
          6    2    1    2  501    0 -0.27829872250E+01  0.71641558709E+02 -0.24429964711E+03  0.30739531802E+03  0.17224780407E+03 0.  0.
         24    2    3    3    0    0  0.17595043630E+02  0.10567524413E+03 -0.13316092833E+03  0.18929595012E+03  0.81389686799E+02 0.  0.
         -6    2    1    2    0  502  0.27829872250E+01 -0.71641558709E+02  0.53090031897E+02  0.18995012961E+03  0.16769687624E+03 0.  0.
        -24    2    5    5    0    0  0.24917010453E+02  0.37135574333E+01 -0.15946768987E+02  0.85276931563E+02  0.79894979173E+02 0.  0.
          5    1    3    3  501    0 -0.20378030855E+02 -0.34033685416E+02 -0.11113871878E+03  0.11809936790E+03  0.47000000000E+01 0. -1.
        -13    1    4    4    0    0  0.48915676133E+00  0.94958308249E+02 -0.13894807276E+03  0.16829701870E+03  0.00000000000E+00 0.  1.
         14    1    4    4    0    0  0.17105886869E+02  0.10716935877E+02  0.57871444301E+01  0.20998931421E+02  0.00000000000E+00 0. -1.
         -5    1    5    5    0  502 -0.22134023228E+02 -0.75355116143E+02  0.69036800884E+02  0.10467319805E+03  0.47000000000E+01 0.  1.
         13    1    6    6    0    0  0.45154433498E+02 -0.16028254211E+00  0.15448276395E+02  0.47724184630E+02  0.00000000000E+00 0. -1.
        -14    1    6    6    0    0 -0.20237423046E+02  0.38738399754E+01 -0.31395045382E+02  0.37552746933E+02  0.00000000000E+00 0.  1.
</event>
<event>
12    1  0.8563264E-002  0.1846160E+03  0.7818608E-02  0.1163468E+00
         21   -1    0    0  503  502  0.00000000000E+00  0.00000000000E+00  0.60068538589E+03  0.60068538589E+03  0.00000000000E+00 0.  1.
         21   -1    0    0  501  503 -0.00000000000E+00 -0.00000000000E+00 -0.71841033734E+02  0.71841033734E+02  0.00000000000E+00 0.  1.
          6    2    1    2  501    0  0.19912697680E+02  0.60647878062E+02  0.11000152497E+03  0.21490326549E+03  0.17322932021E+03 0.  0.
         24    2    3    3    0    0  0.71606192600E+02  0.50652588723E+02  0.35497607574E+02  0.12355203708E+03  0.79447430159E+02 0.  0.
         -6    2    1    2    0  502 -0.19912697680E+02 -0.60647878062E+02  0.41884282719E+03  0.45762315413E+03  0.17295940758E+03 0.  0.
        -24    2    5    5    0    0  0.16919847216E+02 -0.43483792210E+02  0.98534122599E+02  0.13471295231E+03  0.79129544348E+02 0.  0.
          5    1    3    3  501    0 -0.51693494919E+02  0.99952893385E+01  0.74503917394E+02  0.91351228415E+02  0.47000000000E+01 0. -1.
        -13    1    4    4    0    0  0.72517126781E+02  0.59484537717E+02  0.50195789821E+02  0.10638026706E+03  0.00000000000E+00 0.  1.
         14    1    4    4    0    0 -0.91093418077E+00 -0.88319489938E+01 -0.14698182247E+02  0.17171770016E+02  0.00000000000E+00 0. -1.
         -5    1    5    5    0  502 -0.36832544896E+02 -0.17164085852E+02  0.32030870459E+03  0.32291020183E+03  0.47000000000E+01 0.  1.
         11    1    6    6    0    0  0.18692070180E+02  0.11068617843E+02 -0.39371866696E+00  0.21727006305E+02  0.00000000000E+00 0. -1.
        -12    1    6    6    0    0 -0.17722229648E+01 -0.54552410053E+02  0.98927841266E+02  0.11298594600E+03  0.00000000000E+00 0.  1.
</event>
<event>
12    1  0.8563264E-002  0.1791757E+03  0.7818608E-02  0.1169004E+00
         21   -1    0    0  503  502  0.00000000000E+00  0.00000000000E+00  0.12197751219E+04  0.12197751219E+04  0.00000000000E+00 0.  1.
         21   -1    0    0  501  503 -0.00000000000E+00 -0.00000000000E+00 -0.11567576352E+03  0.11567576352E+03  0.00000000000E+00 0. -1.
          6    2    1    2  501    0 -0.22587367887E+02 -0.40791806049E+02 -0.36174100085E+02  0.18118596826E+03  0.17130565942E+03 0.  0.
         24    2    3    3    0    0 -0.37300653477E+02  0.24138674399E+01  0.34425374174E+02  0.96986284409E+02  0.82607914092E+02 0.  0.
         -6    2    1    2    0  502  0.22587367887E+02  0.40791806049E+02  0.11402734585E+04  0.11542649172E+04  0.17300224941E+03 0.  0.
        -24    2    5    5    0    0  0.17931186413E+02  0.82847422658E+02  0.53365180427E+03  0.54615121378E+03  0.79446064868E+02 0.  0.
          5    1    3    3  501    0  0.14713285590E+02 -0.43205673489E+02 -0.70599474260E+02  0.84199683849E+02  0.47000000000E+01 0. -1.
        -13    1    4    4    0    0 -0.55890618874E+02 -0.12920104724E+02  0.30784268979E+01  0.57447080834E+02  0.00000000000E+00 0.  1.
         14    1    4    4    0    0  0.18589965397E+02  0.15333972164E+02  0.31346947276E+02  0.39539203575E+02  0.00000000000E+00 0. -1.
         -5    1    5    5    0  502  0.46561814744E+01 -0.42055616609E+02  0.60662165424E+03  0.60811370344E+03  0.47000000000E+01 0.  1.
         11    1    6    6    0    0 -0.27334734474E+02  0.76468084516E+01  0.13466659366E+03  0.13762540767E+03  0.00000000000E+00 0. -1.
        -12    1    6    6    0    0  0.45265920887E+02  0.75200614206E+02  0.39898521061E+03  0.40852580611E+03  0.00000000000E+00 0.  1.
</event>
<event>
12    1  0.8563264E-002  0.2072313E+03  0.7818608E-02  0.1143792E+00
         21   -1    0    0  501  502  0.00000000000E+00  0.00000000000E+00  0.33405118589E+03  0.33405118589E+03  0.00000000000E+00 0. -1.
         21   -1    0    0  502  503 -0.00000000000E+00 -0.00000000000E+00 -0.14579811055E+03  0.14579811055E+03  0.00000000000E+00 0. -1.
         -6    2    1    2    0  503  0.67512162573E+01 -0.11473469961E+03  0.11528199726E+02  0.20755170468E+03  0.17243891820E+03 0.  0.
        -24    2    3    3    0    0  0.89027020367E+01 -0.54954688870E+01  0.46882338538E+02  0.92617621175E+02  0.79187194693E+02 0.  0.
          6    2    1    2  501    0 -0.67512162573E+01  0.11473469961E+03  0.17672487562E+03  0.27229759176E+03  0.17235041805E+03 0.  0.
         24    2    5    5    0    0  0.50135505059E+02  0.27015487794E+02  0.54018211859E+02  0.11102213017E+03  0.78514589254E+02 0.  0.
          5    1    5    5  501    0 -0.56886721316E+02  0.87719211812E+02  0.12270666376E+03  0.16127546160E+03  0.47000000000E+01 0. -1.
        -13    1    6    6    0    0  0.13412277148E+02  0.45573653152E+02  0.61538400375E+01  0.47903202264E+02  0.00000000000E+00 0.  1.
         14    1    6    6    0    0  0.36723227910E+02 -0.18558165358E+02  0.47864371822E+02  0.63118927902E+02  0.00000000000E+00 0. -1.
         -5    1    3    3    0  503 -0.21514857793E+01 -0.10923923072E+03 -0.35354138812E+02  0.11493408350E+03  0.47000000000E+01 0.  1.
         11    1    4    4    0    0  0.58369270884E+00 -0.41199984223E+02  0.14433363059E+02  0.43658920811E+02  0.00000000000E+00 0. -1.
        -12    1    4    4    0    0  0.83190093278E+01  0.35704515336E+02  0.32448975480E+02  0.48958700364E+02  0.00000000000E+00 0.  1.
</event>
<event>
12    1  0.8563264E-002  0.1768244E+03  0.7818608E-02  0.1170985E+00
         21   -1    0    0  503  502  0.00000000000E+00  0.00000000000E+00  0.14879989390E+03  0.14879989390E+03  0.00000000000E+00 0. -1.
         21   -1    0    0  501  503 -0.00000000000E+00 -0.00000000000E+00 -0.35755018772E+03  0.35755018772E+03  0.00000000000E+00 0. -1.
          6    2    1    2  501    0  0.62040866589E+01 -0.40445841460E+02 -0.26708382727E+03  0.32015216754E+03  0.17172443858E+03 0.  0.
         24    2    3    3    0    0 -0.89722387428E+01 -0.85834846877E+02 -0.23337916381E+03  0.26142758150E+03  0.80189926209E+02 0.  0.
         -6    2    1    2    0  502 -0.62040866589E+01  0.40445841460E+02  0.58333533449E+02  0.18619791408E+03  0.17202472293E+03 0.  0.
        -24    2    5    5    0    0  0.29421265285E+02  0.83811826904E+02  0.30801217862E+02  0.12350905704E+03  0.80098308158E+02 0.  0.
          5    1    3    3  501    0  0.15176325402E+02  0.45389005418E+02 -0.33704663461E+02  0.58724586031E+02  0.47000000000E+01 0. -1.
        -11    1    4    4    0    0  0.18348000449E+01  0.14581826605E+02 -0.49522727344E+02  0.51657493958E+02  0.00000000000E+00 0.  1.
         12    1    4    4    0    0 -0.10807038788E+02 -0.10041667348E+03 -0.18385643646E+03  0.20977008755E+03  0.00000000000E+00 0. -1.
         -5    1    5    5    0  502 -0.35625351943E+02 -0.43365985444E+02  0.27532315588E+02  0.62688857034E+02  0.47000000000E+01 0.  1.
         13    1    6    6    0    0 -0.16002020893E+02  0.48626201980E+02  0.40454577564E+02  0.65246800975E+02  0.00000000000E+00 0. -1.
        -14    1    6    6    0    0  0.45423286178E+02  0.35185624924E+02 -0.96533597021E+01  0.58262256067E+02  0.00000000000E+00 0.  1.
</event>
<event>
12    1  0.8563264E-002  0.1970595E+03  0.7818608E-02  0.1153481E+00
         21   -1    0    0  503  502  0.00000000000E+00  0.00000000000E+00  0.62148813902E+02  0.62148813902E+02  0.00000000000E+00 0. -1.
         21   -1    0    0  501  503 -0.00000000000E+00 -0.00000000000E+00 -0.83516379593E+03  0.83516379593E+03  0.00000000000E+00 0.  1.
          6    2    1    2  501    0 -0.34667191405E+02  0.86687775179E+02 -0.61689684223E+03  0.64590591935E+03  0.16708129211E+03 0.  0.
         24    2    3    3    0    0 -0.83881897849E+02  0.37748973807E+02 -0.39301456549E+03  0.41146518601E+03  0.79887375732E+02 0.  0.
         -6    2    1    2    0  502  0.34667191405E+02 -0.86687775179E+02 -0.15611813980E+03  0.25140669048E+03  0.17353923453E+03 0.  0.
        -24    2    5    5    0    0 -0.10228145131E+02  0.91517683035E+01 -0.20828505262E+02  0.79574840843E+02  0.75564269651E+02 0.  0.
          5    1    3    3  501    0  0.49214706444E+02  0.48938801371E+02 -0.22388227673E+03  0.23444073333E+03  0.47000000000E+01 0. -1.
        -13    1    4    4    0    0 -0.86111699750E+01  0.44891853046E+02 -0.13019777405E+03  0.13798873536E+03  0.00000000000E+00 0.  1.
         14    1    4    4    0    0 -0.75270727874E+02 -0.71428792392E+01 -0.26281679145E+03  0.27347645066E+03  0.00000000000E+00 0. -1.
         -5    1    5    5    0  502  0.44895336537E+02 -0.95839543482E+02 -0.13528963453E+03  0.17183184964E+03  0.47000000000E+01 0.  1.
         13    1    6    6    0    0 -0.40681546440E+02 -0.10091424267E+01 -0.24116015685E+02  0.47303158475E+02  0.00000000000E+00 0. -1.
        -14    1    6    6    0    0  0.30453401308E+02  0.10160910730E+02  0.32875104230E+01  0.32271682369E+02  0.00000000000E+00 0.  1.
</event>
<event>
12    1  0.8563264E-002  0.2036974E+03  0.7818608E-02  0.1147403E+00
         21   -1    0    0  503  502  0.00000000000E+00  0.00000000000E+00  0.29909499973E+03  0.29909499973E+03  0.00000000000E+00 0. -1.
         21   -1    0    0  501  503 -0.00000000000E+00 -0.00000000000E+00 -0.25727814138E+03  0.25727814138E+03  0.00000000000E+00 0. -1.
          6    2    1    2  501    0 -0.55871977806E+02 -0.91705011765E+02 -0.16975478309E+03  0.26515907862E+03  0.17309293314E+03 0.  0.
         24    2    3    3    0    0 -0.94978348686E+02 -0.32387971935E+02 -0.13113387078E+03  0.18415608901E+03  0.81532236621E+02 0.  0.
         -6    2    1    2    0  502  0.55871977806E+02  0.91705011765E+02  0.21157164144E+03  0.29121406250E+03  0.16885373447E+03 0.  0.
        -24    2    5    5    0    0  0.63331795544E+02  0.13076436127E+02  0.58578405834E+02  0.11897259847E+03  0.80877314791E+02 0.  0.
          5    1    3    3  501    0  0.39106370880E+02 -0.59317039830E+02 -0.38620912313E+02  0.81002989609E+02  0.47000000000E+01 0. -1.
        -13    1    4    4    0    0 -0.11904988688E+02  0.57496699878E+01  0.96021911800E+01  0.16339814445E+02  0.00000000000E+00 0.  1.
         14    1    4    4    0    0 -0.83073359998E+02 -0.38137641923E+02 -0.14073606196E+03  0.16781627457E+03  0.00000000000E+00 0. -1.
         -5    1    5    5    0  502 -0.74598177384E+01  0.78628575639E+02  0.15299323561E+03  0.17224146403E+03  0.47000000000E+01 0.  1.
         11    1    6    6    0    0  0.59604281923E+02  0.31807718737E+02  0.69537686154E+02  0.96953036004E+02  0.00000000000E+00 0. -1.
        -12    1    6    6    0    0  0.37275136213E+01 -0.18731282610E+02 -0.10959280319E+02  0.22019562465E+02  0.00000000000E+00 0.  1.
</event>
<event>
12    1  0.8563264E-002  0.1998788E+03  0.7818608E-02  0.1150593E+00
         21   -1    0    0  501  502  0.00000000000E+00  0.00000000000E+00  0.11792518205E+03  0.11792518205E+03  0.00000000000E+00 0. -1.
         21   -1    0    0  502  503 -0.00000000000E+00 -0.00000000000E+00 -0.33478037609E+03  0.33478037609E+03  0.00000000000E+00 0.  1.
         -6    2    1    2    0  503  0.86796079167E+02  0.59890701994E+02 -0.12472807087E+03  0.23261708752E+03  0.16562959337E+03 0.  0.
        -24    2    3    3    0    0  0.89042455245E+02  0.96653240956E+02 -0.77379307965E+02  0.17244628210E+03  0.80496925929E+02 0.  0.
          6    2    1    2  501    0 -0.86796079167E+02 -0.59890701994E+02 -0.92127123163E+02  0.22008847062E+03  0.16979715113E+03 0.  0.
         24    2    5    5    0    0 -0.44374935649E+02  0.31418414863E+02 -0.29716845460E+02  0.10153873000E+03  0.80441103166E+02 0.  0.
          5    1    5    5  501    0 -0.42421143518E+02 -0.91309116857E+02 -0.62410277702E+02  0.11854974062E+03  0.47000000000E+01 0. -1.
        -11    1    6    6    0    0 -0.17643982821E-01  0.77921931809E+01 -0.47570659549E+02  0.48204628780E+02  0.00000000000E+00 0.  1.
         12    1    6    6    0    0 -0.44357291666E+02  0.23626221682E+02  0.17853814089E+02  0.53334101215E+02  0.00000000000E+00 0. -1.
         -5    1    3    3    0  503 -0.22463760784E+01 -0.36762538963E+02 -0.47348762908E+02  0.60170805424E+02  0.47000000000E+01 0.  1.
         11    1    4    4    0    0  0.45435279788E+02  0.52779071900E+01 -0.49569743879E+02  0.67449095339E+02  0.00000000000E+00 0. -1.
        -12    1    4    4    0    0  0.43607175457E+02  0.91375333766E+02 -0.27809564086E+02  0.10499718676E+03  0.00000000000E+00 0.  1.
</event>
<event>
12    1  0.8563264E-002  0.1986411E+03  0.7818608E-02  0.1151033E+00
         21   -1    0    0  503  502  0.00000000000E+00  0.00000000000E+00  0.84998629371E+03  0.84998629371E+03  0.00000000000E+00 0. -1.
         21   -1    0    0  501  503 -0.00000000000E+00 -0.00000000000E+00 -0.53779904948E+02  0.53779904948E+02  0.00000000000E+00 0. -1.
          6    2    1    2  501    0 -0.57372763721E+01 -0.99753240779E+02  0.22977729009E+03  0.30373654495E+03  0.17168185784E+03 0.  0.
         24    2    3    3    0    0 -0.20982330242E+02 -0.74248644241E+02  0.24568218776E+03  0.26970785290E+03  0.80183970842E+02 0.  0.
         -6    2    1    2    0  502  0.57372763721E+01  0.99753240779E+02  0.56642909867E+03  0.60002965371E+03  0.17090943837E+03 0.  0.
        -24    2    5    5    0    0  0.57018186100E+02  0.35070644504E+02  0.41192497030E+03  0.42479499490E+03  0.79294280281E+02 0.  0.
          5    1    3    3  501    0  0.15245053870E+02 -0.25504596538E+02 -0.15904897676E+02  0.34028692043E+02  0.47000000000E+01 0. -1.
        -13    1    4    4    0    0  0.10531527516E+02  0.77872638538E+01  0.89884416663E+02  0.90833710202E+02  0.00000000000E+00 0.  1.
         14    1    4    4    0    0 -0.31513857758E+02 -0.82035908095E+02  0.15579777110E+03  0.17887414270E+03  0.00000000000E+00 0. -1.
         -5    1    5    5    0  502 -0.51280909728E+02  0.64682596274E+02  0.15450412837E+03  0.17523465881E+03  0.47000000000E+01 0.  1.
         13    1    6    6    0    0  0.49969719756E+02  0.13484079243E+01  0.10898186220E+03  0.11989928017E+03  0.00000000000E+00 0. -1.
        -14    1    6    6    0    0  0.70484663446E+01  0.33722236580E+02  0.30294310810E+03  0.30489571473E+03  0.00000000000E+00 0.  1.
</event>
<event>
12    1  0.8563264E-002  0.1909866E+03  0.7818608E-02  0.1157798E+00
         21   -1    0    0  501  502  0.00000000000E+00  0.00000000000E+00  0.91005358017E+02  0.91005358017E+02  0.00000000000E+00 0. -1.
         21   -1    0    0  502  503 -0.00000000000E+00 -0.00000000000E+00 -0.42735518895E+03  0.42735518895E+03  0.00000000000E+00 0. -1.
         -6    2    1    2    0  503 -0.78204382525E+02  0.12928124710E+02 -0.23484769005E+03  0.30207705642E+03  0.17266745101E+03 0.  0.
        -24    2    3    3    0    0 -0.29946461338E+02  0.35235113146E+02 -0.23087836196E+03  0.24855814148E+03  0.79611732370E+02 0.  0.
          6    2    1    2  501    0  0.78204382525E+02 -0.12928124710E+02 -0.10150214089E+03  0.21628349055E+03  0.17376076032E+03 0.  0.
         24    2    5    5    0    0 -0.33665923933E+01 -0.53784197031E+02 -0.91333268952E+02  0.12436755858E+03  0.64972685138E+02 0.  0.
          5    1    5    5  501    0  0.81570974918E+02  0.40856072321E+02 -0.10168871940E+02  0.91915931977E+02  0.47000000000E+01 0. -1.
        -11    1    6    6    0    0 -0.28952448820E+02 -0.48853415015E+02 -0.50872304834E+02  0.76242323223E+02  0.00000000000E+00 0.  1.
         12    1    6    6    0    0  0.25585856427E+02 -0.49307820160E+01 -0.40460964118E+02  0.48125235353E+02  0.00000000000E+00 0. -1.
         -5    1    3    3    0  503 -0.48257921187E+02 -0.22306988436E+02 -0.39693280853E+01  0.53518914935E+02  0.47000000000E+01 0.  1.
         13    1    4    4    0    0 -0.47675413360E+02  0.43481757134E+01 -0.18130217568E+03  0.18751621417E+03  0.00000000000E+00 0. -1.
        -14    1    4    4    0    0  0.17728952022E+02  0.30886937432E+02 -0.49576186281E+02  0.61041927312E+02  0.00000000000E+00 0.  1.
</event>
<event>
12    1  0.8563264E-002  0.2138540E+03  0.7818608E-02  0.1138587E+00
         21   -1    0    0  503  502  0.00000000000E+00  0.00000000000E+00  0.71607778592E+03  0.71607778592E+03  0.00000000000E+00 0.  1.
         21   -1    0    0  501  503 -0.00000000000E+00 -0.00000000000E+00 -0.95741419755E+02  0.95741419755E+02  0.00000000000E+00 0. -1.
          6    2    1    2  501    0  0.34073886106E+01  0.12691912319E+03  0.75654931268E+02  0.22665990706E+03  0.17184577595E+03 0.  0.
         24    2    3    3    0    0 -0.37174747339E+02  0.37232326523E+02  0.83445312436E+02  0.12779934215E+03  0.81248653584E+02 0.  0.
         -6    2    1    2    0  502 -0.34073886106E+01 -0.12691912319E+03  0.54468143490E+03  0.58515929862E+03  0.17208563308E+03 0.  0.
        -24    2    5    5    0    0 -0.40227145315E+02 -0.82391581806E+02  0.18549878533E+03  0.22132875816E+03  0.78549499394E+02 0.  0.
          5    1    3    3  501    0  0.40582135949E+02  0.89686796664E+02 -0.77903811680E+01  0.98860564902E+02  0.47000000000E+01 0. -1.
        -11    1    4    4    0    0 -0.45438598978E+02  0.56869172009E+01  0.91998470231E+01  0.46708077349E+02  0.00000000000E+00 0.  1.
         12    1    4    4    0    0  0.82638516396E+01  0.31545409322E+02  0.74245465413E+02  0.81091264804E+02  0.00000000000E+00 0. -1.
         -5    1    5    5    0  502  0.36819756705E+02 -0.44527541380E+02  0.35918264956E+03  0.36383054046E+03  0.47000000000E+01 0.  1.
         13    1    6    6    0    0 -0.42656944117E+02 -0.96968683728E+02  0.16148166472E+03  0.19312914991E+03  0.00000000000E+00 0. -1.
        -14    1    6    6    0    0  0.24297988021E+01  0.14577101921E+02  0.24017120617E+02  0.28199608249E+02  0.00000000000E+00 0.  1.
</event>
<event>
12    1  0.8563264E-002  0.1958125E+03  0.7818608E-02  0.1153393E+00
         21   -1    0    0  501  502  0.00000000000E+00  0.00000000000E+00  0.62473510665E+03  0.62473510665E+03  0.00000000000E+00 0. -1.
         21   -1    0    0  502  503 -0.00000000000E+00 -0.00000000000E+00 -0.94362954986E+02  0.94362954986E+02  0.00000000000E+00 0. -1.
         -6    2    1    2    0  503  0.92561203235E+02 -0.32691893039E+01  0.52114285192E+02  0.20230687494E+03  0.17214502312E+03 0.  0.
        -24    2    3    3    0    0  0.22974281700E+02 -0.42484939411E+02  0.73841510840E+02  0.11939501186E+03  0.80435144294E+02 0.  0.
          6    2    1    2  501    0 -0.92561203235E+02  0.32691893039E+01  0.47825786647E+03  0.51679118669E+03  0.17252327339E+03 0.  0.
         24    2    5    5    0    0 -0.11718187594E+03  0.30855876021E+02  0.29091087745E+03  0.32577237321E+03  0.82551943627E+02 0.  0.
          5    1    5    5  501    0  0.24620672706E+02 -0.27586686717E+02  0.18734698902E+03  0.19101881348E+03  0.47000000000E+01 0. -1.
        -13    1    6    6    0    0 -0.53440122132E+01  0.34071119664E+02  0.60701312145E+02  0.69814389332E+02  0.00000000000E+00 0.  1.
         14    1    6    6    0    0 -0.11183786373E+03 -0.32152436431E+01  0.23020956530E+03  0.25595798388E+03  0.00000000000E+00 0. -1.
         -5    1    3    3    0  503  0.69586921535E+02  0.39215750107E+02 -0.21727225648E+02  0.82911863081E+02  0.47000000000E+01 0.  1.
         11    1    4    4    0    0 -0.15745093858E+02 -0.15299499643E+02 -0.92147558966E+01  0.23809544224E+02  0.00000000000E+00 0. -1.
        -12    1    4    4    0    0  0.38719375558E+02 -0.27185439767E+02  0.83056266737E+02  0.95585467636E+02  0.00000000000E+00 0.  1.
</event>
<event>
12    1  0.8563264E-002  0.1949694E+03  0.7818608E-02  0.1154509E+00
         21   -1    0    0  503  502  0.00000000000E+00  0.00000000000E+00  0.14500285053E+03  0.14500285053E+03  0.00000000000E+00 0.  1.
         21   -1    0    0  501  503 -0.00000000000E+00 -0.00000000000E+00 -0.44993026254E+03  0.44993026254E+03  0.00000000000E+00 0.  1.
          6    2    1    2  501    0 -0.48192950698E+02 -0.78913684760E+02  0.40653562293E+02  0.19916269652E+03  0.17164829571E+03 0.  0.
         24    2    3    3    0    0 -0.68721339288E+02 -0.86117298616E+02 -0.17595749808E+02  0.13680582721E+03  0.79166990290E+02 0.  0.
         -6    2    1    2    0  502  0.48192950698E+02  0.78913684760E+02 -0.34558097430E+03  0.39577041655E+03  0.16928698320E+03 0.  0.
        -24    2    5    5    0    0  0.76587328383E+00 -0.94920613085E+01 -0.83416601962E+02  0.11502649100E+03  0.78626193851E+02 0.  0.
          5    1    3    3  501    0  0.20528388591E+02  0.72036138562E+01  0.58249312101E+02  0.62356869317E+02  0.47000000000E+01 0. -1.
        -11    1    4    4    0    0 -0.22316227781E+02 -0.56338753991E+02  0.26563620762E+02  0.66164153222E+02  0.00000000000E+00 0.  1.
         12    1    4    4    0    0 -0.46405111508E+02 -0.29778544626E+02 -0.44159370571E+02  0.70641673984E+02  0.00000000000E+00 0. -1.
         -5    1    5    5    0  502  0.47427077414E+02  0.88405746068E+02 -0.26216437234E+03  0.28074392555E+03  0.47000000000E+01 0.  1.
         11    1    6    6    0    0  0.30699552229E+01  0.32549651271E+02 -0.18255098754E+02  0.37445334201E+02  0.00000000000E+00 0. -1.
        -12    1    6    6    0    0 -0.23040819391E+01 -0.42041712579E+02 -0.65161503208E+02  0.77581156800E+02  0.00000000000E+00 0.  1.
</event>
<event>
12    1  0.8563264E-002  0.1799105E+03  0.7818608E-02  0.1168741E+00
         21   -1    0    0  503  502  0.00000000000E+00  0.00000000000E+00  0.11442763635E+03  0.11442763635E+03  0.00000000000E+00 0. -1.
         21   -1    0    0  501  503 -0.00000000000E+00 -0.00000000000E+00 -0.32028034409E+03  0.32028034409E+03  0.00000000000E+00 0. -1.
          6    2    1    2  501    0 -0.17232611506E+02  0.48763271721E+02 -0.18156313797E+03  0.25316523656E+03  0.16867911656E+03 0.  0.
         24    2    3    3    0    0  0.50643447894E+02  0.44905931829E+01 -0.85324770037E+02  0.12726391422E+03  0.79566721927E+02 0.  0.
         -6    2    1    2    0  502  0.17232611506E+02 -0.48763271721E+02 -0.24289569763E+02  0.18154274388E+03  0.17231646784E+03 0.  0.
        -24    2    5    5    0    0 -0.11581214535E+02  0.75400106953E+01 -0.64759101904E+02  0.10630864780E+03  0.83167367553E+02 0.  0.
          5    1    3    3  501    0 -0.67876059399E+02  0.44272678539E+02 -0.96238367936E+02  0.12590132234E+03  0.47000000000E+01 0. -1.
        -11    1    4    4    0    0  0.37165528178E+02  0.18634362196E+02 -0.96274187744E+02  0.10486770316E+03  0.00000000000E+00 0.  1.
         12    1    4    4    0    0  0.13477919716E+02 -0.14143769013E+02  0.10949417708E+02  0.22396211061E+02  0.00000000000E+00 0. -1.
         -5    1    5    5    0  502  0.28813826040E+02 -0.56303282417E+02  0.40469532141E+02  0.75234096085E+02  0.47000000000E+01 0.  1.
         13    1    6    6    0    0 -0.21838110776E+02 -0.33996568561E+02 -0.40099387443E+02  0.56926537129E+02  0.00000000000E+00 0. -1.
        -14    1    6    6    0    0  0.10256896241E+02  0.41536579256E+02 -0.24659714460E+02  0.49382110668E+02  0.00000000000E+00 0.  1.
</event>
<event>
12    1  0.8563264E-002  0.3709063E+03  0.7818608E-02  0.1054440E+00
         21   -1    0    0  503  502  0.00000000000E+00  0.00000000000E+00  0.18241760655E+03  0.18241760655E+03  0.00000000000E+00 0. -1.
         21   -1    0    0  501  503 -0.00000000000E+00 -0.00000000000E+00 -0.81694281260E+03  0.81694281260E+03  0.00000000000E+00 0.  1.
          6    2    1    2  501    0  0.32616042301E+03 -0.43654157704E+02 -0.45756405900E+03  0.58840211420E+03  0.16901441619E+03 0.  0.
         24    2    3    3    0    0  0.23004314161E+03 -0.71977982279E+02 -0.24643942642E+03  0.35465765693E+03  0.83360576950E+02 0.  0.
         -6    2    1    2    0  502 -0.32616042301E+03  0.43654157704E+02 -0.17696114705E+03  0.41095830494E+03  0.17112911446E+03 0.  0.
        -24    2    5    5    0    0 -0.17506819024E+03  0.77576153388E+02 -0.13915349545E+03  0.25148707521E+03  0.84941879488E+02 0.  0.
          5    1    3    3  501    0  0.96117281403E+02  0.28323824575E+02 -0.21112463258E+03  0.23374445727E+03  0.47000000000E+01 0. -1.
        -13    1    4    4    0    0  0.20542373879E+03 -0.31837381096E+02 -0.19736250698E+03  0.28664349016E+03  0.00000000000E+00 0.  1.
         14    1    4    4    0    0  0.24619402818E+02 -0.40140601183E+02 -0.49076919447E+02  0.68014166766E+02  0.00000000000E+00 0. -1.
         -5    1    5    5    0  502 -0.15109223277E+03 -0.33921995684E+02 -0.37807651593E+02  0.15947122974E+03  0.47000000000E+01 0.  1.
         13    1    6    6    0    0 -0.13069925808E+03  0.76148174659E+02 -0.64094077328E+02  0.16428296112E+03  0.00000000000E+00 0. -1.
        -14    1    6    6    0    0 -0.44368932165E+02  0.14279787288E+01 -0.75059418125E+02  0.87204114089E+02  0.00000000000E+00 0.  1.
</event>
<event>
12    1  0.8563264E-002  0.1918601E+03  0.7818608E-02  0.1156879E+00
         21   -1    0    0  501  502  0.00000000000E+00  0.00000000000E+00  0.56415904952E+03  0.56415904952E+03  0.00000000000E+00 0.  1.
         21   -1    0    0  502  503 -0.00000000000E+00 -0.00000000000E+00 -0.66071110418E+02  0.66071110418E+02  0.00000000000E+00 0.  1.
         -6    2    1    2    0  503 -0.79493494503E+02 -0.29647774611E+02  0.28662514783E+03  0.34470115952E+03  0.17165869567E+03 0.  0.
        -24    2    3    3    0    0 -0.10789832714E+03 -0.59177053762E+02  0.19367787153E+03  0.24301488210E+03  0.80007139126E+02 0.  0.
          6    2    1    2  501    0  0.79493494503E+02  0.29647774611E+02  0.21146279127E+03  0.28552900042E+03  0.17208164277E+03 0.  0.
         24    2    5    5    0    0  0.11468457410E+03  0.54842134668E+01  0.19460361572E+03  0.23939212177E+03  0.79091039841E+02 0.  0.
          5    1    5    5  501    0 -0.35191079599E+02  0.24163561144E+02  0.16859175553E+02  0.46136878642E+02  0.47000000000E+01 0. -1.
        -13    1    6    6    0    0  0.18672774158E+02 -0.23708717260E+02  0.87791606371E+02  0.92833948091E+02  0.00000000000E+00 0.  1.
         14    1    6    6    0    0  0.96011799944E+02  0.29192930727E+02  0.10681200935E+03  0.14655817368E+03  0.00000000000E+00 0. -1.
         -5    1    3    3    0  503  0.28404832632E+02  0.29529279150E+02  0.92947276301E+02  0.10168627742E+03  0.47000000000E+01 0.  1.
         13    1    4    4    0    0 -0.81242032023E+02 -0.41183607675E+02  0.18992369831E+03  0.21063562967E+03  0.00000000000E+00 0. -1.
        -14    1    4    4    0    0 -0.26656295112E+02 -0.17993446086E+02  0.37541732218E+01  0.32379252427E+02  0.00000000000E+00 0.  1.
</event>
<event>
12    1  0.8563264E-002  0.1962269E+03  0.7818608E-02  0.1153071E+00
         21   -1    0    0  503  502  0.00000000000E+00  0.00000000000E+00  0.11143263638E+03  0.11143263638E+03  0.00000000000E+00 0.  1.
         21   -1    0    0  501  503 -0.00000000000E+00 -0.00000000000E+00 -0.10762420930E+04  0.10762420930E+04  0.00000000000E+00 0.  1.
          6    2    1    2  501    0  0.86003476298E+00 -0.93185388259E+02 -0.97220502405E+03  0.99181026968E+03  0.17268684377E+03 0.  0.
         24    2    3    3    0    0 -0.27323335915E+02 -0.12689404064E+03 -0.69897122007E+03  0.71502627942E+03  0.76505892171E+02 0.  0.
         -6    2    1    2    0  502 -0.86003476298E+00  0.93185388259E+02  0.73955674555E+01  0.19586445967E+03  0.17211605358E+03 0.  0.
        -24    2    5    5    0    0 -0.59344988582E+02  0.59084724063E+02  0.39551948109E+02  0.12076806869E+03  0.77509596358E+02 0.  0.
          5    1    3    3  501    0  0.28183370678E+02  0.33708652380E+02 -0.27323380398E+03  0.27678399026E+03  0.47000000000E+01 0. -1.
        -13    1    4    4    0    0  0.11157575594E+02 -0.40310022792E+02 -0.37957305291E+03  0.38187051722E+03  0.00000000000E+00 0.  1.
         14    1    4    4    0    0 -0.38480911509E+02 -0.86584017847E+02 -0.31939816717E+03  0.33315576220E+03  0.00000000000E+00 0. -1.
         -5    1    5    5    0  502  0.58484953819E+02  0.34100664196E+02 -0.32156380653E+02  0.75096390982E+02  0.47000000000E+01 0.  1.
         11    1    6    6    0    0 -0.50694449096E+01 -0.14984890713E+02 -0.75918277601E+01  0.17546568614E+02  0.00000000000E+00 0. -1.
        -12    1    6    6    0    0 -0.54275543673E+02  0.74069614776E+02  0.47143775869E+02  0.10322150007E+03  0.00000000000E+00 0.  1.
</event>
<event>
12    1  0.8563264E-002  0.1997848E+03  0.7818608E-02  0.1149946E+00
         21   -1    0    0  503  502  0.00000000000E+00  0.00000000000E+00  0.24849817757E+02  0.24849817757E+02  0.00000000000E+00 0. -1.
         21   -1    0    0  501  503 -0.00000000000E+00 -0.00000000000E+00 -0.16311956997E+04  0.16311956997E+04  0.00000000000E+00 0. -1.
          6    2    1    2  501    0 -0.99962949781E+02 -0.20377560791E+02 -0.90781664989E+03  0.92954022420E+03  0.17177346211E+03 0.  0.
         24    2    3    3    0    0 -0.94080707486E+02  0.17109520652E+02 -0.37180779934E+03  0.39216934677E+03  0.80073976277E+02 0.  0.
         -6    2    1    2    0  502  0.99962949781E+02  0.20377560791E+02 -0.69852923202E+03  0.72650529322E+03  0.17163629213E+03 0.  0.
        -24    2    5    5    0    0  0.56801254954E+02  0.74609458858E+02 -0.33848623769E+03  0.35982139879E+03  0.78138031747E+02 0.  0.
          5    1    3    3  501    0 -0.58822422952E+01 -0.37487081443E+02 -0.53600885054E+03  0.53737087743E+03  0.47000000000E+01 0. -1.
        -13    1    4    4    0    0  0.12507029082E+01  0.26015023755E+01  0.35773485549E+01  0.45966830495E+01  0.00000000000E+00 0.  1.
         14    1    4    4    0    0 -0.95331410394E+02  0.14508018276E+02 -0.37538514790E+03  0.38757266372E+03  0.00000000000E+00 0. -1.
         -5    1    5    5    0  502  0.43161694827E+02 -0.54231898067E+02 -0.36004299434E+03  0.36668389444E+03  0.47000000000E+01 0.  1.
         13    1    6    6    0    0  0.90009494766E+01 -0.16644749633E+02 -0.46946642165E+02  0.50616716531E+02  0.00000000000E+00 0. -1.
        -14    1    6    6    0    0  0.47800305478E+02  0.91254208491E+02 -0.29153959552E+03  0.30920468225E+03  0.00000000000E+00 0.  1.
</event>
<event>
12    1  0.8563264E-002  0.2068080E+03  0.7818608E-02  0.1147778E+00
         21   -1    0    0  501  502  0.00000000000E+00  0.00000000000E+00  0.77703635518E+03  0.77703635518E+03  0.00000000000E+00 0. -1.
         21   -1    0    0  502  503 -0.00000000000E+00 -0.00000000000E+00 -0.62596445506E+02  0.62596445506E+02  0.00000000000E+00 0. -1.
         -6    2    1    2    0  503  0.16629776036E+02  0.73071771382E+02  0.18566383548E+03  0.27792196028E+03  0.19275249150E+03 0.  0.
        -24    2    3    3    0    0  0.43223038862E+02  0.77770716877E+02  0.20921050946E+03  0.24178586237E+03  0.82309479876E+02 0.  0.
          6    2    1    2  501    0 -0.16629776036E+02 -0.73071771382E+02  0.52877607420E+03  0.56171084041E+03  0.17406578745E+03 0.  0.
         24    2    5    5    0    0 -0.26165109110E+02 -0.49545950357E+02  0.13119584445E+03  0.16329332583E+03  0.79454052943E+02 0.  0.
          5    1    5    5  501    0  0.95353330732E+01 -0.23525821024E+02  0.39758022975E+03  0.39841751457E+03  0.47000000000E+01 0. -1.
        -13    1    6    6    0    0 -0.40814995270E+02  0.96596122567E+00  0.80416126472E+02  0.90186198039E+02  0.00000000000E+00 0.  1.
         14    1    6    6    0    0  0.14649886160E+02 -0.50511911583E+02  0.50779717976E+02  0.73107127792E+02  0.00000000000E+00 0. -1.
         -5    1    3    3    0  503 -0.26593262825E+02 -0.46989454952E+01 -0.23546673989E+02  0.36136097914E+02  0.47000000000E+01 0.  1.
         13    1    4    4    0    0  0.32220556562E+02  0.43526100135E+02  0.36349827377E+02  0.65222661770E+02  0.00000000000E+00 0. -1.
        -14    1    4    4    0    0  0.11002482300E+02  0.34244616742E+02  0.17286068209E+03  0.17656320060E+03  0.00000000000E+00 0.  1.
</event>
<event>
12    1  0.8563264E-002  0.1803127E+03  0.7818608E-02  0.1168004E+00
         21   -1    0    0  501  502  0.00000000000E+00  0.00000000000E+00  0.32587880763E+03  0.32587880763E+03  0.00000000000E+00 0. -1.
         21   -1    0    0  502  503 -0.00000000000E+00 -0.00000000000E+00 -0.13304136308E+03  0.13304136308E+03  0.00000000000E+00 0. -1.
         -6    2    1    2    0  503  0.43484835683E+02 -0.36776317856E+02 -0.20699188003E+02  0.17943747751E+03  0.16889619138E+03 0.  0.
        -24    2    3    3    0    0 -0.12369879073E+02 -0.68440157995E+02  0.60822485753E+01  0.10971170553E+03  0.84632118304E+02 0.  0.
          6    2    1    2  501    0 -0.43484835683E+02  0.36776317856E+02  0.21353663255E+03  0.27948269320E+03  0.17108259371E+03 0.  0.
         24    2    5    5    0    0 -0.41737705615E+02  0.79287715160E+02  0.20950494521E+03  0.23648716010E+03  0.63287257617E+02 0.  0.
          5    1    5    5  501    0 -0.17471300677E+01 -0.42511397304E+02  0.40316873338E+01  0.42995533105E+02  0.47000000000E+01 0. -1.
        -13    1    6    6    0    0 -0.22713095631E+02  0.69266799596E+02  0.93767238955E+02  0.11876897465E+03  0.00000000000E+00 0.  1.
         14    1    6    6    0    0 -0.19024609984E+02  0.10020915564E+02  0.11573770626E+03  0.11771818544E+03  0.00000000000E+00 0. -1.
         -5    1    3    3    0  503  0.55854714755E+02  0.31663840139E+02 -0.26781436578E+02  0.69725771978E+02  0.47000000000E+01 0.  1.
         11    1    4    4    0    0  0.65053837301E+01 -0.26700237114E+02 -0.37494013253E+02  0.46486812208E+02  0.00000000000E+00 0. -1.
        -12    1    4    4    0    0 -0.18875262803E+02 -0.41739920881E+02  0.43576261829E+02  0.63224893325E+02  0.00000000000E+00 0.  1.
</event>
<event>
12    1  0.8563264E-002  0.2506206E+03  0.7818608E-02  0.1113361E+00
         21   -1    0    0  503  502  0.00000000000E+00  0.00000000000E+00  0.21355377763E+04  0.21355377763E+04  0.00000000000E+00 0. -1.
         21   -1    0    0  501  503 -0.00000000000E+00 -0.00000000000E+00 -0.30035502269E+02  0.30035502269E+02  0.00000000000E+00 0.  1.
          6    2    1    2  501    0  0.99029137242E+02 -0.15155195732E+03  0.12399344097E+04  0.12644526370E+04  0.16919918759E+03 0.  0.
         24    2    3    3    0    0  0.27056355554E+02 -0.94196573329E+02  0.38826142425E+03  0.40780878713E+03  0.77175336086E+02 0.  0.
         -6    2    1    2    0  502 -0.99029137242E+02  0.15155195732E+03  0.86556786427E+03  0.90112064150E+03  0.17330873346E+03 0.  0.
        -24    2    5    5    0    0 -0.59806101528E+02  0.16280109967E+03  0.80606519652E+03  0.82881817126E+03  0.84365230596E+02 0.  0.
          5    1    3    3  501    0  0.71972781688E+02 -0.57355383994E+02  0.85167298548E+03  0.85664384990E+03  0.47000000000E+01 0. -1.
        -13    1    4    4    0    0  0.41317531097E+02 -0.16060646588E+02  0.11536518308E+03  0.12358886767E+03  0.00000000000E+00 0.  1.
         14    1    4    4    0    0 -0.14261175543E+02 -0.78135926740E+02  0.27289624116E+03  0.28421991946E+03  0.00000000000E+00 0. -1.
         -5    1    5    5    0  502 -0.39223035714E+02 -0.11249142345E+02  0.59502667751E+02  0.72302470245E+02  0.47000000000E+01 0.  1.
         11    1    6    6    0    0 -0.25064986387E+02  0.13069894545E+01  0.16065478197E+03  0.16260356925E+03  0.00000000000E+00 0. -1.
        -12    1    6    6    0    0 -0.34741115141E+02  0.16149411021E+03  0.64541041455E+03  0.66621460200E+03  0.00000000000E+00 0.  1.
</event>
<event>
12    1  0.8563264E-002  0.1740051E+03  0.7818608E-02  0.1176026E+00
         21   -1    0    0  503  502  0.00000000000E+00  0.00000000000E+00  0.63547452714E+03  0.63547452714E+03  0.00000000000E+00 0.  1.
         21   -1    0    0  501  503 -0.00000000000E+00 -0.00000000000E+00 -0.69718551860E+02  0.69718551860E+02  0.00000000000E+00 0.  1.
          6    2    1    2  501    0 -0.13251523807E+02 -0.44756367001E+00  0.78867842849E+02  0.19104422965E+03  0.17349915806E+03 0.  0.
         24    2    3    3    0    0 -0.58679131873E+02  0.43189451140E+01 -0.29042861501E+01  0.97261724552E+02  0.77391952945E+02 0.  0.
         -6    2    1    2    0  502  0.13251523807E+02  0.44756367001E+00  0.48688813244E+03  0.51414884936E+03  0.16466081074E+03 0.  0.
        -24    2    5    5    0    0 -0.43976003366E+02 -0.19915414401E+02  0.37971307362E+03  0.39086777225E+03  0.79152286758E+02 0.  0.
          5    1    3    3  501    0  0.45427608066E+02 -0.47665087840E+01  0.81772128999E+02  0.93782505094E+02  0.47000000000E+01 0. -1.
        -11    1    4    4    0    0 -0.43635004670E+02 -0.18495550165E+02 -0.32123792101E+02  0.57254144194E+02  0.00000000000E+00 0.  1.
         12    1    4    4    0    0 -0.15044127203E+02  0.22814495279E+02  0.29219505951E+02  0.40007580358E+02  0.00000000000E+00 0. -1.
         -5    1    5    5    0  502  0.57227527173E+02  0.20362978071E+02  0.10717505881E+03  0.12328107711E+03  0.47000000000E+01 0.  1.
         11    1    6    6    0    0 -0.48073420298E+02  0.12514924592E+01  0.10707237643E+03  0.11737595055E+03  0.00000000000E+00 0. -1.
        -12    1    6    6    0    0  0.40974169314E+01 -0.21166906860E+02  0.27264069719E+03  0.27349182170E+03  0.00000000000E+00 0.  1.
</event>
<event>
12    1  0.8563264E-002  0.2099031E+03  0.7818608E-02  0.1143585E+00
         21   -1    0    0  503  502  0.00000000000E+00  0.00000000000E+00  0.28393244464E+04  0.28393244464E+04  0.00000000000E+00 0. -1.
         21   -1    0    0  501  503 -0.00000000000E+00 -0.00000000000E+00 -0.34558825560E+02  0.34558825560E+02  0.00000000000E+00 0. -1.
          6    2    1    2  501    0 -0.41100750572E+02 -0.94193589972E+02  0.33051355844E+03  0.39153354899E+03  0.18302350555E+03 0.  0.
         24    2    3    3    0    0 -0.35846748338E+02 -0.11999429526E+03  0.33310166211E+03  0.36466220341E+03  0.79612719052E+02 0.  0.
         -6    2    1    2    0  502  0.41100750572E+02  0.94193589972E+02  0.24742520624E+04  0.24823497230E+04  0.17197434326E+03 0.  0.
        -24    2    5    5    0    0 -0.67178214552E+01  0.50313454457E+02  0.21240347514E+04  0.21261386380E+04  0.79782893264E+02 0.  0.
          5    1    3    3  501    0 -0.52540022334E+01  0.25800705285E+02 -0.25881036713E+01  0.26871345580E+02  0.47000000000E+01 0. -1.
        -11    1    4    4    0    0  0.13771861606E+02 -0.49455304895E+02  0.19665365552E+03  0.20324406900E+03  0.00000000000E+00 0.  1.
         12    1    4    4    0    0 -0.49618609944E+02 -0.70538990362E+02  0.13644800659E+03  0.16141813441E+03  0.00000000000E+00 0. -1.
         -5    1    5    5    0  502  0.47818572027E+02  0.43880135515E+02  0.35021731101E+03  0.35621108497E+03  0.47000000000E+01 0.  1.
         11    1    6    6    0    0 -0.87701683886E+01  0.69347734863E+02  0.12969061723E+04  0.12987885294E+04  0.00000000000E+00 0. -1.
        -12    1    6    6    0    0  0.20523469334E+01 -0.19034280407E+02  0.82712857908E+03  0.82735010865E+03  0.00000000000E+00 0.  1.
</event>
<event>
12    1  0.8563264E-002  0.2905490E+03  0.7818608E-02  0.1090176E+00
         21   -1    0    0  501  502  0.00000000000E+00  0.00000000000E+00  0.11488441434E+03  0.11488441434E+03  0.00000000000E+00 0.  1.
         21   -1    0    0  502  503 -0.00000000000E+00 -0.00000000000E+00 -0.83076097846E+03  0.83076097846E+03  0.00000000000E+00 0. -1.
         -6    2    1    2    0  503  0.12846950667E+03  0.19552827612E+03 -0.52092295798E+03  0.59647248728E+03  0.17228748947E+03 0.  0.
        -24    2    3    3    0    0  0.10072251335E+03  0.44350008760E+02 -0.28025346243E+03  0.31087021095E+03  0.77371421577E+02 0.  0.
          6    2    1    2  501    0 -0.12846950667E+03 -0.19552827612E+03 -0.19495360614E+03  0.34917290552E+03  0.17081887629E+03 0.  0.
         24    2    5    5    0    0 -0.13300005300E+03 -0.90259758272E+02 -0.92890510641E+02  0.20240454326E+03  0.80641888008E+02 0.  0.
          5    1    5    5  501    0  0.45305463288E+01 -0.10526851784E+03 -0.10206309550E+03  0.14676836227E+03  0.47000000000E+01 0. -1.
        -11    1    6    6    0    0 -0.80782189484E+02 -0.89209034371E+02 -0.36999288640E+02  0.12590854344E+03  0.00000000000E+00 0.  1.
         12    1    6    6    0    0 -0.52217863517E+02 -0.10507239014E+01 -0.55891222001E+02  0.76495999816E+02  0.00000000000E+00 0. -1.
         -5    1    3    3    0  503  0.27746993319E+02  0.15117826736E+03 -0.24066949554E+03  0.28560227633E+03  0.47000000000E+01 0.  1.
         13    1    4    4    0    0  0.71290786039E+02  0.19358440066E+02 -0.25311825864E+03  0.26367779246E+03  0.00000000000E+00 0. -1.
        -14    1    4    4    0    0  0.29431727315E+02  0.24991568694E+02 -0.27135203789E+02  0.47192418493E+02  0.00000000000E+00 0.  1.
</event>
<event>
12    1  0.8563264E-002  0.2803702E+03  0.7818608E-02  0.1095657E+00
         21   -1    0    0  503  502  0.00000000000E+00  0.00000000000E+00  0.80027702877E+02  0.80027702877E+02  0.00000000000E+00 0. -1.
         21   -1    0    0  501  503 -0.00000000000E+00 -0.00000000000E+00 -0.13299582772E+04  0.13299582772E+04  0.00000000000E+00 0. -1.
          6    2    1    2  501    0 -0.83661813133E+02  0.20409289419E+03 -0.26122052283E+03  0.38229193950E+03  0.17104899012E+03 0.  0.
         24    2    3    3    0    0  0.96149959130E+01  0.14792074296E+03 -0.13707736176E+03  0.21709663654E+03  0.79798196373E+02 0.  0.
         -6    2    1    2    0  502  0.83661813133E+02 -0.20409289419E+03 -0.98871005152E+03  0.10276940406E+04  0.17307300972E+03 0.  0.
        -24    2    5    5    0    0  0.74310621776E+02 -0.14077736031E+03 -0.90447957945E+03  0.92180181221E+03  0.79340643243E+02 0.  0.
          5    1    3    3  501    0 -0.93276809046E+02  0.56172151231E+02 -0.12414316107E+03  0.16519530296E+03  0.47000000000E+01 0. -1.
        -11    1    4    4    0    0  0.38417649835E+02  0.51887277336E+02 -0.75905803770E+02  0.99648865594E+02  0.00000000000E+00 0.  1.
         12    1    4    4    0    0 -0.28802653922E+02  0.96033465623E+02 -0.61171557995E+02  0.11744777095E+03  0.00000000000E+00 0. -1.
         -5    1    5    5    0  502  0.93511913564E+01 -0.63315533879E+02 -0.84230472074E+02  0.10589222840E+03  0.47000000000E+01 0.  1.
         11    1    6    6    0    0  0.43355135763E+02 -0.26590003115E+02 -0.42083403123E+03  0.42389618765E+03  0.00000000000E+00 0. -1.
        -12    1    6    6    0    0  0.30955486013E+02 -0.11418735720E+03 -0.48364554822E+03  0.49790562456E+03  0.00000000000E+00 0.  1.
</event>
<event>
12    1  0.8563264E-002  0.1901017E+03  0.7818608E-02  0.1159310E+00
         21   -1    0    0  503  502  0.00000000000E+00  0.00000000000E+00  0.19022102137E+03  0.19022102137E+03  0.00000000000E+00 0.  1.
         21   -1    0    0  501  503 -0.00000000000E+00 -0.00000000000E+00 -0.59673781218E+03  0.59673781218E+03  0.00000000000E+00 0.  1.
          6    2    1    2  501    0  0.71886560852E+02  0.58017222242E+01  0.12392435008E+03  0.22348171560E+03  0.17142197949E+03 0.  0.
         24    2    3    3    0    0  0.91421006887E+02  0.25094995318E+02  0.33074369621E+02  0.12845732969E+03  0.80123731406E+02 0.  0.
         -6    2    1    2    0  502 -0.71886560852E+02 -0.58017222242E+01 -0.53044114089E+03  0.56347711796E+03  0.17589008186E+03 0.  0.
        -24    2    5    5    0    0 -0.11420051201E+03 -0.28892171045E+02 -0.35203807529E+03  0.37861667572E+03  0.74453114009E+02 0.  0.
          5    1    3    3  501    0 -0.19534446035E+02 -0.19293273094E+02  0.90849980460E+02  0.95024385913E+02  0.47000000000E+01 0. -1.
        -11    1    4    4    0    0  0.79312309138E+02  0.12222798693E+02  0.57202612748E+02  0.98549368816E+02  0.00000000000E+00 0.  1.
         12    1    4    4    0    0  0.12108697749E+02  0.12872196624E+02 -0.24128243127E+02  0.29907960872E+02  0.00000000000E+00 0. -1.
         -5    1    5    5    0  502  0.42313951156E+02  0.23090448821E+02 -0.17840306560E+03  0.18486044224E+03  0.47000000000E+01 0.  1.
         11    1    6    6    0    0 -0.10980967083E+03 -0.17842550540E+02 -0.34905952781E+03  0.36635921495E+03  0.00000000000E+00 0. -1.
        -12    1    6    6    0    0 -0.43908411762E+01 -0.11049620505E+02 -0.29785474805E+01  0.12257460774E+02  0.00000000000E+00 0.  1.
</event>
<event>
12    1  0.8563264E-002  0.1774971E+03  0.7818608E-02  0.1170884E+00
         21   -1    0    0  503  502  0.00000000000E+00  0.00000000000E+00  0.98372842598E+02  0.98372842598E+02  0.00000000000E+00 0.  1.
         21   -1    0    0  501  503 -0.00000000000E+00 -0.00000000000E+00 -0.14836164771E+04  0.14836164771E+04  0.00000000000E+00 0.  1.
          6    2    1    2  501    0  0.42753953071E+02 -0.54269965521E+01 -0.13955103217E+04  0.14067531030E+04  0.17218560337E+03 0.  0.
         24    2    3    3    0    0  0.58563626518E+02  0.71460682366E+01 -0.13692707253E+04  0.13733071144E+04  0.87116856403E+02 0.  0.
         -6    2    1    2    0  502 -0.42753953071E+02  0.54269965521E+01  0.10266687117E+02  0.17523621679E+03  0.16954342811E+03 0.  0.
        -24    2    5    5    0    0 -0.54705056899E+02  0.58581433570E+02  0.94622304808E+01  0.12054654493E+03  0.89540538748E+02 0.  0.
          5    1    3    3  501    0 -0.15809673448E+02 -0.12573064789E+02 -0.26239596361E+02  0.33445988547E+02  0.47000000000E+01 0. -1.
        -11    1    4    4    0    0 -0.13928722993E+02 -0.17847012922E+02 -0.54714472938E+03  0.54761289254E+03  0.00000000000E+00 0.  1.
         12    1    4    4    0    0  0.72492349512E+02  0.24993081159E+02 -0.82212599593E+03  0.82569422187E+03  0.00000000000E+00 0. -1.
         -5    1    5    5    0  502  0.11951103828E+02 -0.53154437018E+02  0.80445663608E+00  0.54689671858E+02  0.47000000000E+01 0.  1.
         11    1    6    6    0    0 -0.24738345715E+02  0.24021755268E+02 -0.40243744051E+02  0.52996126369E+02  0.00000000000E+00 0. -1.
        -12    1    6    6    0    0 -0.29966711184E+02  0.34559678303E+02  0.49705974532E+02  0.67550418561E+02  0.00000000000E+00 0.  1.
</event>
<event>
12    1  0.8563264E-002  0.3700601E+03  0.7818608E-02  0.1054772E+00
         21   -1    0    0  501  502  0.00000000000E+00  0.00000000000E+00  0.11434984754E+03  0.11434984754E+03  0.00000000000E+00 0.  1.
         21   -1    0    0  502  503 -0.00000000000E+00 -0.00000000000E+00 -0.13999163264E+04  0.13999163264E+04  0.00000000000E+00 0. -1.
         -6    2    1    2    0  503  0.30007154672E+03 -0.12837762112E+03 -0.35173064580E+03  0.50977930336E+03  0.17215325786E+03 0.  0.
        -24    2    3    3    0    0  0.11038900773E+03 -0.10125654819E+03 -0.11455889920E+03  0.20484071024E+03  0.79983458327E+02 0.  0.
          6    2    1    2  501    0 -0.30007154672E+03  0.12837762112E+03 -0.93383583305E+03  0.10044868706E+04  0.17441549045E+03 0.  0.
         24    2    5    5    0    0 -0.10961908439E+03  0.11337469023E+03 -0.39642164520E+03  0.43410688527E+03  0.80177945844E+02 0.  0.
          5    1    5    5  501    0 -0.19045246232E+03  0.15002930887E+02 -0.53741418785E+03  0.57037998531E+03  0.47000000000E+01 0. -1.
        -11    1    6    6    0    0 -0.11353564179E+02  0.50569654027E+02 -0.67366029053E+02  0.84996324617E+02  0.00000000000E+00 0.  1.
         12    1    6    6    0    0 -0.98265520214E+02  0.62805036207E+02 -0.32905561615E+03  0.34911056065E+03  0.00000000000E+00 0. -1.
         -5    1    3    3    0  503  0.18968253898E+03 -0.27121072929E+02 -0.23717174659E+03  0.30493859312E+03  0.47000000000E+01 0.  1.
         13    1    4    4    0    0  0.21520584162E+02 -0.22478785028E+01 -0.54946385592E+02  0.59053313117E+02  0.00000000000E+00 0. -1.
        -14    1    4    4    0    0  0.88868423572E+02 -0.99008669689E+02 -0.59612513612E+02  0.14578739713E+03  0.00000000000E+00 0.  1.
</event>
<event>
12    1  0.8563264E-002  0.2355663E+03  0.7818608E-02  0.1125195E+00
         21   -1    0    0  503  502  0.00000000000E+00  0.00000000000E+00  0.17645441434E+03  0.17645441434E+03  0.00000000000E+00 0.  1.
         21   -1    0    0  501  503 -0.00000000000E+00 -0.00000000000E+00 -0.29925377434E+03  0.29925377434E+03  0.00000000000E+00 0.  1.
          6    2    1    2  501    0 -0.10966689252E+03  0.87749031374E+02 -0.36608599546E+02  0.22486896074E+03  0.17175313715E+03 0.  0.
         24    2    3    3    0    0  0.49776212541E+01  0.41491799700E+02  0.26345005952E+02  0.86058505561E+02  0.70467445570E+02 0.  0.
         -6    2    1    2    0  502  0.10966689252E+03 -0.87749031374E+02 -0.86190760452E+02  0.25083922795E+03  0.18911570868E+03 0.  0.
        -24    2    5    5    0    0  0.12935974538E+02 -0.31076647947E+01  0.20053764056E+02  0.84012909831E+02  0.80492350865E+02 0.  0.
          5    1    3    3  501    0 -0.11464451377E+03  0.46257231674E+02 -0.62953605498E+02  0.13881045517E+03  0.47000000000E+01 0. -1.
        -11    1    4    4    0    0  0.19513203722E+02  0.49620540154E+02 -0.18061065486E+01  0.53350024794E+02  0.00000000000E+00 0.  1.
         12    1    4    4    0    0 -0.14535582468E+02 -0.81287404542E+01  0.28151112501E+02  0.32708480767E+02  0.00000000000E+00 0. -1.
         -5    1    5    5    0  502  0.96730917981E+02 -0.84641366579E+02 -0.10624452451E+03  0.16682631812E+03  0.47000000000E+01 0.  1.
         13    1    6    6    0    0  0.30944856861E+02  0.30283138144E+02  0.68071277932E+01  0.43829095482E+02  0.00000000000E+00 0. -1.
        -14    1    6    6    0    0 -0.18008882322E+02 -0.33390802938E+02  0.13246636263E+02  0.40183814349E+02  0.00000000000E+00 0.  1.
</event>
<event>
12    1  0.8563264E-002  0.2034973E+03  0.7818608E-02  0.1148629E+00
         21   -1    0    0  501  502  0.00000000000E+00  0.00000000000E+00  0.97123504507E+03  0.97123504507E+03  0.00000000000E+00 0.  1.
         21   -1    0    0  502  503 -0.00000000000E+00 -0.00000000000E+00 -0.84091764698E+02  0.84091764698E+02  0.00000000000E+00 0.  1.
         -6    2    1    2    0  503 -0.23456744642E+02 -0.88068312445E+02  0.69916014919E+02  0.21517300080E+03  0.18194758753E+03 0.  0.
        -24    2    3    3    0    0 -0.23465631364E+02  0.62122014142E+01  0.84491861934E+02  0.11965671586E+03  0.81176521338E+02 0.  0.
          6    2    1    2  501    0  0.23456744642E+02  0.88068312445E+02  0.81722726546E+03  0.84015380897E+03  0.17231300819E+03 0.  0.
         24    2    5    5    0    0  0.51495020795E+02  0.79386869260E+02  0.79040583812E+03  0.80011643456E+03  0.80566169906E+02 0.  0.
          5    1    5    5  501    0 -0.28038276153E+02  0.86814431847E+01  0.26821427335E+02  0.40037374410E+02  0.47000000000E+01 0. -1.
        -13    1    6    6    0    0 -0.91250667929E+01  0.36820452725E+02  0.12578545445E+03  0.13138109885E+03  0.00000000000E+00 0.  1.
         14    1    6    6    0    0  0.60620087588E+02  0.42566416535E+02  0.66462038367E+03  0.66873533571E+03  0.00000000000E+00 0. -1.
         -5    1    3    3    0  503  0.88867213503E-02 -0.94280513859E+02 -0.14575847016E+02  0.95516284940E+02  0.47000000000E+01 0.  1.
         13    1    4    4    0    0  0.20176151508E+02 -0.16391339526E+02  0.58597031298E+02  0.64104330416E+02  0.00000000000E+00 0. -1.
        -14    1    4    4    0    0 -0.43641782872E+02  0.22603540941E+02  0.25894830636E+02  0.55552385448E+02  0.00000000000E+00 0.  1.
</event>
<event>
12    1  0.8563264E-002  0.1841338E+03  0.7818608E-02  0.1166653E+00
         21   -1    0    0  503  502  0.00000000000E+00  0.00000000000E+00  0.11379194137E+03  0.11379194137E+03  0.00000000000E+00 0. -1.
         21   -1    0    0  501  503 -0.00000000000E+00 -0.00000000000E+00 -0.34295592647E+03  0.34295592647E+03  0.00000000000E+00 0. -1.
          6    2    1    2  501    0 -0.58248653858E+02 -0.24375593961E+02 -0.20963751205E+03  0.27158159651E+03  0.16069101358E+03 0.  0.
         24    2    3    3    0    0 -0.62201732837E+02 -0.62838747623E+02 -0.19818590844E+03  0.23098270184E+03  0.79104933315E+02 0.  0.
         -6    2    1    2    0  502  0.58248653858E+02  0.24375593961E+02 -0.19526473048E+02  0.18516627133E+03  0.17296875334E+03 0.  0.
        -24    2    5    5    0    0  0.92370625450E+01  0.64848783483E+02 -0.47250679191E+02  0.11566133079E+03  0.82790269429E+02 0.  0.
          5    1    3    3  501    0  0.39530789786E+01  0.38463153662E+02 -0.11451603614E+02  0.40598894669E+02  0.47000000000E+01 0. -1.
        -11    1    4    4    0    0 -0.14519719701E+01 -0.20285024084E+01 -0.10182464148E+03  0.10185519455E+03  0.00000000000E+00 0.  1.
         12    1    4    4    0    0 -0.60749760867E+02 -0.60810245214E+02 -0.96361266958E+02  0.12912750729E+03  0.00000000000E+00 0. -1.
         -5    1    5    5    0  502  0.49011591313E+02 -0.40473189521E+02  0.27724206143E+02  0.69504940539E+02  0.47000000000E+01 0.  1.
         11    1    6    6    0    0  0.41603428260E+01 -0.28972511448E+01  0.19662651027E+02  0.20305722396E+02  0.00000000000E+00 0. -1.
        -12    1    6    6    0    0  0.50767197190E+01  0.67746034627E+02 -0.66913330219E+02  0.95355608392E+02  0.00000000000E+00 0.  1.
</event>
<event>
12    1  0.8563264E-002  0.1929117E+03  0.7818608E-02  0.1156269E+00
         21   -1    0    0  501  502  0.00000000000E+00  0.00000000000E+00  0.90605602471E+03  0.90605602471E+03  0.00000000000E+00 0.  1.
         21   -1    0    0  502  503 -0.00000000000E+00 -0.00000000000E+00 -0.10562883164E+03  0.10562883164E+03  0.00000000000E+00 0.  1.
         -6    2    1    2    0  503 -0.79558600060E+02 -0.24870245083E+02  0.43116581156E+01  0.19295991682E+03  0.17397367378E+03 0.  0.
        -24    2    3    3    0    0  0.24710091863E+02  0.29607870959E+01 -0.83253931947E+01  0.84201875584E+02  0.80008054469E+02 0.  0.
          6    2    1    2  501    0  0.79558600060E+02  0.24870245083E+02  0.79611553496E+03  0.81872493953E+03  0.17193743533E+03 0.  0.
         24    2    5    5    0    0  0.28966936575E+02  0.69126786862E+02  0.63076181192E+03  0.64016934139E+03  0.79616117710E+02 0.  0.
          5    1    5    5  501    0  0.50591663484E+02 -0.44256541779E+02  0.16535372304E+03  0.17855559814E+03  0.47000000000E+01 0. -1.
        -13    1    6    6    0    0  0.46962567318E+02  0.48279378012E+02  0.26691239296E+03  0.27527914303E+03  0.00000000000E+00 0.  1.
         14    1    6    6    0    0 -0.17995630743E+02  0.20847408850E+02  0.36384941896E+03  0.36489019836E+03  0.00000000000E+00 0. -1.
         -5    1    3    3    0  503 -0.10426869192E+03 -0.27831032179E+02  0.12637051310E+02  0.10875804123E+03  0.47000000000E+01 0.  1.
         13    1    4    4    0    0 -0.79700929064E+01 -0.17192360933E+02 -0.33360039685E+02  0.38366546667E+02  0.00000000000E+00 0. -1.
        -14    1    4    4    0    0  0.32680184769E+02  0.20153148029E+02  0.25034646490E+02  0.45835328917E+02  0.00000000000E+00 0.  1.
</event>
<event>
12    1  0.8563264E-002  0.2293264E+03  0.7818608E-02  0.1127132E+00
         21   -1    0    0  501  502  0.00000000000E+00  0.00000000000E+00  0.16787812346E+04  0.16787812346E+04  0.00000000000E+00 0. -1.
         21   -1    0    0  502  503 -0.00000000000E+00 -0.00000000000E+00 -0.35928343949E+02  0.35928343949E+02  0.00000000000E+00 0. -1.
         -6    2    1    2    0  503 -0.32860340198E+02 -0.14756227297E+03  0.11285415573E+04  0.11515872752E+04  0.17231592975E+03 0.  0.
        -24    2    3    3    0    0 -0.28303694574E+02 -0.17805032495E+03  0.94161817163E+03  0.96208074124E+03  0.80321567254E+02 0.  0.
          6    2    1    2  501    0  0.32860340198E+02  0.14756227297E+03  0.51431133339E+03  0.56312230332E+03  0.17244174227E+03 0.  0.
         24    2    5    5    0    0  0.50072478962E+02  0.30236803751E+02  0.32502118204E+03  0.33970705127E+03  0.79627849771E+02 0.  0.
          5    1    5    5  501    0 -0.17212138764E+02  0.11732546922E+03  0.18929015136E+03  0.22341525205E+03  0.47000000000E+01 0. -1.
        -11    1    6    6    0    0  0.24770829333E+02 -0.20786963922E+02  0.55493423583E+02  0.64227812635E+02  0.00000000000E+00 0.  1.
         12    1    6    6    0    0  0.25301649629E+02  0.51023767673E+02  0.26952775845E+03  0.27547923863E+03  0.00000000000E+00 0. -1.
         -5    1    3    3    0  503 -0.45566456238E+01  0.30488051974E+02  0.18692338562E+03  0.18950653399E+03  0.47000000000E+01 0.  1.
         11    1    4    4    0    0  0.22963128938E+01 -0.46055468912E+02  0.44256208096E+03  0.44495794720E+03  0.00000000000E+00 0. -1.
        -12    1    4    4    0    0 -0.30600007468E+02 -0.13199485603E+03  0.49905609067E+03  0.51712279404E+03  0.00000000000E+00 0.  1.
</event>
<event>
12    1  0.8563264E-002  0.2054712E+03  0.7818608E-02  0.1145258E+00
         21   -1    0    0  503  502  0.00000000000E+00  0.00000000000E+00  0.11461880717E+03  0.11461880717E+03  0.00000000000E+00 0.  1.
         21   -1    0    0  501  503 -0.00000000000E+00 -0.00000000000E+00 -0.44989328493E+03  0.44989328493E+03  0.00000000000E+00 0. -1.
          6    2    1    2  501    0 -0.11217365870E+03  0.97154197874E+01 -0.28807487620E+03  0.35368942530E+03  0.17155685992E+03 0.  0.
         24    2    3    3    0    0 -0.77714845023E+02  0.39991498947E+02 -0.86456492146E+02  0.14686555435E+03  0.80348297398E+02 0.  0.
         -6    2    1    2    0  502  0.11217365870E+03 -0.97154197874E+01 -0.47199601570E+02  0.21082266680E+03  0.17187517377E+03 0.  0.
        -24    2    5    5    0    0 -0.87858753620E+01  0.37826736090E+01 -0.38257983096E+02  0.88693841589E+02  0.79444471424E+02 0.  0.
          5    1    3    3  501    0 -0.34458813676E+02 -0.30276079160E+02 -0.20161838405E+03  0.20682387095E+03  0.47000000000E+01 0. -1.
        -13    1    4    4    0    0 -0.11945094740E+02 -0.23484454260E+02 -0.27564111815E+02  0.38131157082E+02  0.00000000000E+00 0.  1.
         14    1    4    4    0    0 -0.65769750282E+02  0.63475953207E+02 -0.58892380331E+02  0.10873439727E+03  0.00000000000E+00 0. -1.
         -5    1    5    5    0  502  0.12095953406E+03 -0.13498093396E+02 -0.89416184748E+01  0.12212882521E+03  0.47000000000E+01 0.  1.
         13    1    6    6    0    0  0.24752833586E+01 -0.22822778162E+02 -0.51895454240E+02  0.56746316194E+02  0.00000000000E+00 0. -1.
        -14    1    6    6    0    0 -0.11261158721E+02  0.26605451771E+02  0.13637471144E+02  0.31947525396E+02  0.00000000000E+00 0.  1.
</event>
<event>
12    1  0.8563264E-002  0.1868906E+03  0.7818608E-02  0.1161555E+00
         21   -1    0    0  501  502  0.00000000000E+00  0.00000000000E+00  0.32718407229E+03  0.32718407229E+03  0.00000000000E+00 0.  1.
         21   -1    0    0  502  503 -0.00000000000E+00 -0.00000000000E+00 -0.14780314087E+03  0.14780314087E+03  0.00000000000E+00 0. -1.
         -6    2    1    2    0  503  0.24022080842E+02 -0.67359835673E+02 -0.36631902797E+02  0.18934822411E+03  0.17145391754E+03 0.  0.
        -24    2    3    3    0    0 -0.44600255878E+02 -0.41605994512E+02 -0.52898405143E+02  0.11412206822E+03  0.80655834158E+02 0.  0.
          6    2    1    2  501    0 -0.24022080842E+02  0.67359835673E+02  0.21601283422E+03  0.28563898905E+03  0.17266638262E+03 0.  0.
         24    2    5    5    0    0  0.42308334583E+02  0.49744618281E+01  0.79534786536E+02  0.12150487809E+03  0.81381279691E+02 0.  0.
          5    1    5    5  501    0 -0.66330415425E+02  0.62385373845E+02  0.13647804769E+03  0.16413411096E+03  0.47000000000E+01 0. -1.
        -13    1    6    6    0    0  0.22242098867E+02 -0.16753077570E+02  0.86709624606E+02  0.91071046823E+02  0.00000000000E+00 0.  1.
         14    1    6    6    0    0  0.20066235717E+02  0.21727539398E+02 -0.71748380701E+01  0.30433831265E+02  0.00000000000E+00 0. -1.
         -5    1    3    3    0  503  0.68622336720E+02 -0.25753841161E+02  0.16266502346E+02  0.75226155891E+02  0.47000000000E+01 0.  1.
         11    1    4    4    0    0 -0.76675604394E+01 -0.57305397027E+02 -0.16962744413E+02  0.60253088797E+02  0.00000000000E+00 0. -1.
        -12    1    4    4    0    0 -0.36932695439E+02  0.15699402515E+02 -0.35935660729E+02  0.53868979420E+02  0.00000000000E+00 0.  1.
</event>
<event>
12    1  0.8563264E-002  0.2578816E+03  0.7818608E-02  0.1109761E+00
         21   -1    0    0  501  502  0.00000000000E+00  0.00000000000E+00  0.10835942647E+03  0.10835942647E+03  0.00000000000E+00 0. -1.
         21   -1    0    0  502  503 -0.00000000000E+00 -0.00000000000E+00 -0.75444611077E+03  0.75444611077E+03  0.00000000000E+00 0. -1.
         -6    2    1    2    0  503 -0.55227653219E+02  0.17141132061E+03 -0.11934462891E+03  0.27632439052E+03  0.17227911608E+03 0.  0.
        -24    2    3    3    0    0 -0.33887305288E+02  0.77902849207E+02  0.78624226765E+01  0.11694130282E+03  0.79976541814E+02 0.  0.
          6    2    1    2  501    0  0.55227653219E+02 -0.17141132061E+03 -0.52674205539E+03  0.58648114672E+03  0.18458333627E+03 0.  0.
         24    2    5    5    0    0 -0.41473772465E+02 -0.71589455715E+02 -0.28838404603E+03  0.31052426410E+03  0.80092675182E+02 0.  0.
          5    1    5    5  501    0  0.96701425684E+02 -0.99821864890E+02 -0.23835800936E+03  0.27595688262E+03  0.47000000000E+01 0. -1.
        -13    1    6    6    0    0  0.17355239142E+02 -0.46858640706E+02 -0.10338258909E+03  0.11482550354E+03  0.00000000000E+00 0.  1.
         14    1    6    6    0    0 -0.58829011607E+02 -0.24730815009E+02 -0.18500145694E+03  0.19569876056E+03  0.00000000000E+00 0. -1.
         -5    1    3    3    0  503 -0.21340347931E+02  0.93508471398E+02 -0.12720705158E+03  0.15938308770E+03  0.47000000000E+01 0.  1.
         11    1    4    4    0    0 -0.11518610115E+02  0.89755301053E+02  0.12023913455E+02  0.91286729270E+02  0.00000000000E+00 0. -1.
        -12    1    4    4    0    0 -0.22368695173E+02 -0.11852451846E+02 -0.41614907781E+01  0.25654573549E+02  0.00000000000E+00 0.  1.
</event>
<event>
12    1  0.8563264E-002  0.1834485E+03  0.7818608E-02  0.1165922E+00
         21   -1    0    0  501  502  0.00000000000E+00  0.00000000000E+00  0.11528434578E+04  0.11528434578E+04  0.00000000000E+00 0.  1.
         21   -1    0    0  502  503 -0.00000000000E+00 -0.00000000000E+00 -0.28984050808E+02  0.28984050808E+02  0.00000000000E+00 0.  1.
         -6    2    1    2    0  503  0.36287700260E+02 -0.20580225464E+02  0.45967939518E+03  0.49277856038E+03  0.17258395159E+03 0.  0.
        -24    2    3    3    0    0  0.39338017033E+02  0.37538152374E+02  0.15458982242E+03  0.18215211643E+03  0.79528534855E+02 0.  0.
          6    2    1    2  501    0 -0.36287700260E+02  0.20580225464E+02  0.66418001183E+03  0.68904894825E+03  0.17864216214E+03 0.  0.
         24    2    5    5    0    0 -0.78390073576E+00  0.78517830976E+02  0.47437816776E+03  0.48739549321E+03  0.79712335797E+02 0.  0.
          5    1    5    5  501    0 -0.35503799524E+02 -0.57937605512E+02  0.18980184407E+03  0.20165345503E+03  0.47000000000E+01 0. -1.
        -11    1    6    6    0    0 -0.31110408278E+02  0.73033579083E+02  0.30057550794E+03  0.31088164492E+03  0.00000000000E+00 0.  1.
         12    1    6    6    0    0  0.30326507542E+02  0.54842518933E+01  0.17380265982E+03  0.17651384829E+03  0.00000000000E+00 0. -1.
         -5    1    3    3    0  503 -0.30503167726E+01 -0.58118377838E+02  0.30508957276E+03  0.31062644395E+03  0.47000000000E+01 0.  1.
         13    1    4    4    0    0  0.60638749248E+02  0.22616174673E+02  0.13459666963E+03  0.14934795861E+03  0.00000000000E+00 0. -1.
        -14    1    4    4    0    0 -0.21300732216E+02  0.14921977702E+02  0.19993152794E+02  0.32804157817E+02  0.00000000000E+00 0.  1.
</event>
<event>
12    1  0.8563264E-002  0.1915960E+03  0.7818608E-02  0.1157653E+00
         21   -1    0    0  503  502  0.00000000000E+00  0.00000000000E+00  0.12829176202E+03  0.12829176202E+03  0.00000000000E+00 0. -1.
         21   -1    0    0  501  503 -0.00000000000E+00 -0.00000000000E+00 -0.28754928338E+03  0.28754928338E+03  0.00000000000E+00 0. -1.
          6    2    1    2  501    0 -0.58776002123E+02  0.59364449409E+02 -0.10904467924E+03  0.22045358288E+03  0.17242471938E+03 0.  0.
         24    2    3    3    0    0 -0.34313474921E+02  0.57414487491E+02 -0.14390133426E+03  0.17756659198E+03  0.79677240488E+02 0.  0.
         -6    2    1    2    0  502  0.58776002123E+02 -0.59364449409E+02 -0.50212842114E+02  0.19538746252E+03  0.16934041077E+03 0.  0.
        -24    2    5    5    0    0  0.50108545362E+02 -0.97466170111E+02 -0.56552220152E+01  0.13593716870E+03  0.80227250129E+02 0.  0.
          5    1    3    3  501    0 -0.24462527203E+02  0.19499619185E+01  0.34856655018E+02  0.42886990891E+02  0.47000000000E+01 0. -1.
        -11    1    4    4    0    0  0.24742978960E+02  0.28811834992E+02 -0.60721485796E+02  0.71620078754E+02  0.00000000000E+00 0.  1.
         12    1    4    4    0    0 -0.59056453881E+02  0.28602652498E+02 -0.83179848466E+02  0.10594651323E+03  0.00000000000E+00 0. -1.
         -5    1    5    5    0  502  0.86674567608E+01  0.38101720702E+02 -0.44557620098E+02  0.59450293826E+02  0.47000000000E+01 0.  1.
         11    1    6    6    0    0  0.56436970574E+02 -0.29966756765E+02  0.13867282872E+02  0.65386846482E+02  0.00000000000E+00 0. -1.
        -12    1    6    6    0    0 -0.63284252120E+01 -0.67499413346E+02 -0.19522504887E+02  0.70550322216E+02  0.00000000000E+00 0.  1.
</event>
<event>
12    1  0.8563264E-002  0.1722599E+03  0.7818608E-02  0.1175562E+00
         21   -1    0    0  503  502  0.00000000000E+00  0.00000000000E+00  0.34771505665E+03  0.34771505665E+03  0.00000000000E+00 0. -1.
         21   -1    0    0  501  503 -0.00000000000E+00 -0.00000000000E+00 -0.30258175637E+03  0.30258175637E+03  0.00000000000E+00 0. -1.
          6    2    1    2  501    0 -0.49432961103E+01 -0.13601427194E+02 -0.25299902332E+03  0.30607510943E+03  0.17165090100E+03 0.  0.
         24    2    3    3    0    0  0.60618612205E+02  0.27104256121E+01 -0.11848559662E+03  0.15547500211E+03  0.80322332640E+02 0.  0.
         -6    2    1    2    0  502  0.49432961103E+01  0.13601427194E+02  0.29813232361E+03  0.34422170358E+03  0.17145338678E+03 0.  0.
        -24    2    5    5    0    0  0.38903007422E+01 -0.30599723968E+02  0.28502774662E+03  0.29786794967E+03  0.80827109038E+02 0.  0.
          5    1    3    3  501    0 -0.65561908316E+02 -0.16311852807E+02 -0.13451342670E+03  0.15060010733E+03  0.47000000000E+01 0. -1.
        -13    1    4    4    0    0  0.22619875339E+02 -0.27472550100E+02 -0.10526391514E+02  0.37110708530E+02  0.00000000000E+00 0.  1.
         14    1    4    4    0    0  0.37998736866E+02  0.30182975712E+02 -0.10795920511E+03  0.11836429358E+03  0.00000000000E+00 0. -1.
         -5    1    5    5    0  502  0.10529953680E+01  0.44201151162E+02  0.13104576992E+02  0.46353753909E+02  0.47000000000E+01 0.  1.
         13    1    6    6    0    0 -0.21736136527E+02  0.14365194761E+01  0.19646409617E+02  0.29334359209E+02  0.00000000000E+00 0. -1.
        -14    1    6    6    0    0  0.25626437269E+02 -0.32036243444E+02  0.26538133700E+03  0.26853359047E+03  0.00000000000E+00 0.  1.
</event>
<event>
12    1  0.8563264E-002  0.1916924E+03  0.7818608E-02  0.1157170E+00
         21   -1    0    0  501  502  0.00000000000E+00  0.00000000000E+00  0.11526506065E+03  0.11526506065E+03  0.00000000000E+00 0. -1.
         21   -1    0    0  502  503 -0.00000000000E+00 -0.00000000000E+00 -0.36228805758E+03  0.36228805758E+03  0.00000000000E+00 0. -1.
         -6    2    1    2    0  503 -0.90258140217E+01 -0.83518150023E+02 -0.20754330981E+03  0.28183742004E+03  0.17117639786E+03 0.  0.
        -24    2    3    3    0    0 -0.39019388975E+02 -0.35742976457E+02 -0.20298096458E+03  0.22504845331E+03  0.81519698676E+02 0.  0.
          6    2    1    2  501    0  0.90258140217E+01  0.83518150023E+02 -0.39479687118E+02  0.19571569819E+03  0.17230566480E+03 0.  0.
         24    2    5    5    0    0 -0.39400958315E+02 -0.15574315392E+01  0.67515916018E+01  0.87353213957E+02  0.77653968929E+02 0.  0.
          5    1    5    5  501    0  0.48426772337E+02  0.85075581562E+02 -0.46231278720E+02  0.10836248423E+03  0.47000000000E+01 0. -1.
        -11    1    6    6    0    0  0.89490115643E+01 -0.29259720387E+02  0.79609664712E+01  0.31616341222E+02  0.00000000000E+00 0.  1.
         12    1    6    6    0    0 -0.48349969880E+02  0.27702288848E+02 -0.12093748694E+01  0.55736872736E+02  0.00000000000E+00 0. -1.
         -5    1    3    3    0  503  0.29993574953E+02 -0.47775173566E+02 -0.45623452208E+01  0.56788966724E+02  0.47000000000E+01 0.  1.
         13    1    4    4    0    0 -0.77941224478E+01 -0.53388564838E+02 -0.76722844853E+02  0.93794893904E+02  0.00000000000E+00 0. -1.
        -14    1    4    4    0    0 -0.31225266527E+02  0.17645588380E+02 -0.12625811973E+03  0.13125355941E+03  0.00000000000E+00 0.  1.
</event>
<event>
12    1  0.8563264E-002  0.1942081E+03  0.7818608E-02  0.1155292E+00
         21   -1    0    0  503  502  0.00000000000E+00  0.00000000000E+00  0.12247643273E+04  0.12247643273E+04  0.00000000000E+00 0. -1.
         21   -1    0    0  501  503 -0.00000000000E+00 -0.00000000000E+00 -0.80147413234E+02  0.80147413234E+02  0.00000000000E+00 0.  1.
          6    2    1    2  501    0  0.91656548310E+01  0.85427926969E+02  0.56746554966E+02  0.19984219204E+03  0.17127402104E+03 0.  0.
         24    2    3    3    0    0 -0.99461485922E+01 -0.25990135059E+01 -0.19480542901E+02  0.81746198339E+02  0.78722732728E+02 0.  0.
         -6    2    1    2    0  502 -0.91656548310E+01 -0.85427926969E+02  0.10878703591E+04  0.11050695485E+04  0.17416902383E+03 0.  0.
        -24    2    5    5    0    0 -0.34970463970E+02  0.16207244259E+02  0.45088576753E+03  0.45949456748E+03  0.79697390607E+02 0.  0.
          5    1    3    3  501    0  0.19111803423E+02  0.88026940475E+02  0.76227097867E+02  0.11809599370E+03  0.47000000000E+01 0. -1.
        -13    1    4    4    0    0 -0.37610217233E+01  0.30856877519E+02 -0.32817541676E+02  0.45202690366E+02  0.00000000000E+00 0.  1.
         14    1    4    4    0    0 -0.61851268688E+01 -0.33455891025E+02  0.13336998775E+02  0.36543507973E+02  0.00000000000E+00 0. -1.
         -5    1    5    5    0  502  0.25804809139E+02 -0.10163517123E+03  0.63698459161E+03  0.64557498104E+03  0.47000000000E+01 0.  1.
         11    1    6    6    0    0  0.21434913750E+01 -0.24640910894E+01  0.35475728242E+03  0.35477231534E+03  0.00000000000E+00 0. -1.
        -12    1    6    6    0    0 -0.37113955345E+02  0.18671335348E+02  0.96128485111E+02  0.10472225215E+03  0.00000000000E+00 0.  1.
</event>
<event>
12    1  0.8563264E-002  0.1787906E+03  0.7818608E-02  0.1169165E+00
         21   -1    0    0  501  502  0.00000000000E+00  0.00000000000E+00  0.23047900734E+03  0.23047900734E+03  0.00000000000E+00 0.  1.
         21   -1    0    0  502  503 -0.00000000000E+00 -0.00000000000E+00 -0.13810925746E+03  0.13810925746E+03  0.00000000000E+00 0.  1.
         -6    2    1    2    0  503 -0.30091936385E+02  0.35505133127E+02  0.47584786747E+02  0.18501458337E+03  0.17262660576E+03 0.  0.
        -24    2    3    3    0    0  0.28749771108E+02 -0.87748655724E+01  0.69233691645E+02  0.10811315354E+03  0.77405441062E+02 0.  0.
          6    2    1    2  501    0  0.30091936385E+02 -0.35505133127E+02  0.44784963129E+02  0.18357368144E+03  0.17183557397E+03 0.  0.
         24    2    5    5    0    0  0.74158428492E+02 -0.41141770318E+02  0.65314720320E+02  0.13440877184E+03  0.81287068318E+02 0.  0.
          5    1    5    5  501    0 -0.44066492107E+02  0.56366371909E+01 -0.20529757190E+02  0.49164909597E+02  0.47000000000E+01 0. -1.
        -13    1    6    6    0    0 -0.36676689305E+01 -0.30157021622E+02 -0.26590051352E+01  0.30495377630E+02  0.00000000000E+00 0.  1.
         14    1    6    6    0    0  0.77826097422E+02 -0.10984748696E+02  0.67973725455E+02  0.10391339421E+03  0.00000000000E+00 0. -1.
         -5    1    3    3    0  503 -0.58841707493E+02  0.44279998699E+02 -0.21648904898E+02  0.76901429823E+02  0.47000000000E+01 0.  1.
         11    1    4    4    0    0  0.24979870478E+02 -0.31273439389E+02  0.54770640753E+01  0.40398269408E+02  0.00000000000E+00 0. -1.
        -12    1    4    4    0    0  0.37699006306E+01  0.22498573817E+02  0.63756627570E+02  0.67714884136E+02  0.00000000000E+00 0.  1.
</event>
<event>
12    1  0.8563264E-002  0.1866303E+03  0.7818608E-02  0.1161787E+00
         21   -1    0    0  503  502  0.00000000000E+00  0.00000000000E+00  0.90989031805E+02  0.90989031805E+02  0.00000000000E+00 0.  1.
         21   -1    0    0  501  503 -0.00000000000E+00 -0.00000000000E+00 -0.50324106195E+03  0.50324106195E+03  0.00000000000E+00 0.  1.
          6    2    1    2  501    0  0.66718593131E+02 -0.10737571903E+02 -0.35326490183E+03  0.39953342075E+03  0.17396608091E+03 0.  0.
         24    2    3    3    0    0  0.11195192951E+02 -0.66915948423E+02 -0.21909844252E+03  0.24377210732E+03  0.82568979002E+02 0.  0.
         -6    2    1    2    0  502 -0.66718593131E+02  0.10737571903E+02 -0.58987128308E+02  0.19469667301E+03  0.17280233521E+03 0.  0.
        -24    2    5    5    0    0 -0.70688355367E+02  0.68800110227E+02 -0.52718585955E+02  0.13597357710E+03  0.77325711209E+02 0.  0.
          5    1    3    3  501    0  0.55523400179E+02  0.56178376520E+02 -0.13416645931E+03  0.15576131343E+03  0.47000000000E+01 0. -1.
        -11    1    4    4    0    0  0.85147611028E+01 -0.67116185575E+02 -0.22624131011E+03  0.23614024207E+03  0.00000000000E+00 0.  1.
         12    1    4    4    0    0  0.26804318484E+01  0.20023715212E+00  0.71428675906E+01  0.76318652522E+01  0.00000000000E+00 0. -1.
         -5    1    5    5    0  502  0.39697622361E+01 -0.58062538324E+02 -0.62685423535E+01  0.58723095900E+02  0.47000000000E+01 0.  1.
         11    1    6    6    0    0 -0.22276146487E+02  0.41507374340E+02 -0.63797519363E+02  0.79304554118E+02  0.00000000000E+00 0. -1.
        -12    1    6    6    0    0 -0.48412208880E+02  0.27292735888E+02  0.11078933409E+02  0.56669022987E+02  0.00000000000E+00 0.  1.
</event>
<event>
12    1  0.8563264E-002  0.1939995E+03  0.7818608E-02  0.1155306E+00
         21   -1    0    0  503  502  0.00000000000E+00  0.00000000000E+00  0.12844793070E+03  0.12844793070E+03  0.00000000000E+00 0.  1.
         21   -1    0    0  501  503 -0.00000000000E+00 -0.00000000000E+00 -0.29097040405E+03  0.29097040405E+03  0.00000000000E+00 0.  1.
          6    2    1    2  501    0  0.55091980045E+02  0.67234281079E+02 -0.91324620669E+02  0.21276656184E+03  0.17138800623E+03 0.  0.
         24    2    3    3    0    0  0.38287879043E+01 -0.28364144573E+02 -0.28458931777E+02  0.87302787404E+02  0.77412412289E+02 0.  0.
         -6    2    1    2    0  502 -0.55091980045E+02 -0.67234281079E+02 -0.71197852681E+02  0.20665177292E+03  0.17343657690E+03 0.  0.
        -24    2    5    5    0    0  0.12139080408E+02  0.19749696110E+02 -0.41460316350E+02  0.92666515782E+02  0.79565806386E+02 0.  0.
          5    1    3    3  501    0  0.51263192140E+02  0.95598425653E+02 -0.62865688892E+02  0.12546377444E+03  0.47000000000E+01 0. -1.
        -11    1    4    4    0    0  0.75722198214E+00 -0.46013903904E+01 -0.52882994073E+02  0.53088202464E+02  0.00000000000E+00 0.  1.
         12    1    4    4    0    0  0.30715659222E+01 -0.23762754183E+02  0.24424062297E+02  0.34214584940E+02  0.00000000000E+00 0. -1.
         -5    1    5    5    0  502 -0.67231060452E+02 -0.86983977189E+02 -0.29737536331E+02  0.11398525714E+03  0.47000000000E+01 0.  1.
         11    1    6    6    0    0 -0.14268377191E+02  0.24402014099E+02 -0.55584952888E+02  0.62359697460E+02  0.00000000000E+00 0. -1.
        -12    1    6    6    0    0  0.26407457599E+02 -0.46523179894E+01  0.14124636537E+02  0.30306818322E+02  0.00000000000E+00 0.  1.
</event>
<event>
12    1  0.8563264E-002  0.2266373E+03  0.7818608E-02  0.1129345E+00
         21   -1    0    0  503  502  0.00000000000E+00  0.00000000000E+00  0.47743656917E+03  0.47743656917E+03  0.00000000000E+00 0.  1.
         21   -1    0    0  501  503 -0.00000000000E+00 -0.00000000000E+00 -0.11381140045E+03  0.11381140045E+03  0.00000000000E+00 0.  1.
          6    2    1    2  501    0 -0.14516307133E+03  0.20559391392E+02  0.25609680344E+03  0.34197957573E+03  0.17282780919E+03 0.  0.
         24    2    3    3    0    0 -0.17371662361E+03  0.32024350812E+02  0.23511319441E+03  0.30444089581E+03  0.78759256521E+02 0.  0.
         -6    2    1    2    0  502  0.14516307133E+03 -0.20559391392E+02  0.10752836527E+03  0.24926839389E+03  0.17052089902E+03 0.  0.
        -24    2    5    5    0    0  0.92708917063E+02 -0.84134768173E+02  0.71119100582E+02  0.15904095135E+03  0.67546245042E+02 0.  0.
          5    1    3    3  501    0  0.28553552283E+02 -0.11464959420E+02  0.20983609030E+02  0.37538679924E+02  0.47000000000E+01 0. -1.
        -13    1    4    4    0    0 -0.13502746814E+03  0.41090025915E+02  0.22109276374E+03  0.26230291184E+03  0.00000000000E+00 0.  1.
         14    1    4    4    0    0 -0.38689155477E+02 -0.90656751030E+01  0.14020430673E+02  0.42137983967E+02  0.00000000000E+00 0. -1.
         -5    1    5    5    0  502  0.52454154267E+02  0.63575376781E+02  0.36409264688E+02  0.90227442543E+02  0.47000000000E+01 0.  1.
         13    1    6    6    0    0  0.40756674892E+02  0.26119241314E+01  0.25195607170E+02  0.47986949440E+02  0.00000000000E+00 0. -1.
        -14    1    6    6    0    0  0.51952242171E+02 -0.86746692305E+02  0.45923493412E+02  0.11105400191E+03  0.00000000000E+00 0.  1.
</event>
<event>
12    1  0.8563264E-002  0.2175981E+03  0.7818608E-02  0.1135770E+00
         21   -1    0    0  501  502  0.00000000000E+00  0.00000000000E+00  0.10031878374E+04  0.10031878374E+04  0.00000000000E+00 0.  1.
         21   -1    0    0  502  503 -0.00000000000E+00 -0.00000000000E+00 -0.71006280897E+02  0.71006280897E+02  0.00000000000E+00 0.  1.
         -6    2    1    2    0  503 -0.12965123340E+03 -0.32560764917E+02  0.15477707091E+03  0.26702976337E+03  0.17169539048E+03 0.  0.
        -24    2    3    3    0    0 -0.94349594106E+02  0.38738179287E+02  0.59794799419E+02  0.14303997718E+03  0.80514126661E+02 0.  0.
          6    2    1    2  501    0  0.12965123340E+03  0.32560764917E+02  0.77740448557E+03  0.80716435491E+03  0.17113420439E+03 0.  0.
         24    2    5    5    0    0  0.44348981554E+02 -0.43159586716E+02  0.44824747087E+03  0.45877308615E+03  0.75613274899E+02 0.  0.
          5    1    5    5  501    0  0.85302251844E+02  0.75720351633E+02  0.32915701470E+03  0.34839126876E+03  0.47000000000E+01 0. -1.
        -13    1    6    6    0    0 -0.22454691082E+01  0.12263393291E+02  0.19444365966E+03  0.19484293605E+03  0.00000000000E+00 0.  1.
         14    1    6    6    0    0  0.46594450663E+02 -0.55422980008E+02  0.25380381121E+03  0.26393015009E+03  0.00000000000E+00 0. -1.
         -5    1    3    3    0  503 -0.35301639292E+02 -0.71298944203E+02  0.94982271491E+02  0.12398978619E+03  0.47000000000E+01 0.  1.
         13    1    4    4    0    0 -0.41645491137E+02  0.48057747616E+02  0.62878728236E+02  0.89429461044E+02  0.00000000000E+00 0. -1.
        -14    1    4    4    0    0 -0.52704102969E+02 -0.93195683291E+01 -0.30839288172E+01  0.53610516138E+02  0.00000000000E+00 0.  1.
</event>
<event>
12    1  0.8563264E-002  0.1881032E+03  0.7818608E-02  0.1160347E+00
         21   -1    0    0  503  502  0.00000000000E+00  0.00000000000E+00  0.66440382934E+02  0.66440382934E+02  0.00000000000E+00 0. -1.
         21   -1    0    0  501  503 -0.00000000000E+00 -0.00000000000E+00 -0.54520135758E+03  0.54520135758E+03  0.00000000000E+00 0. -1.
          6    2    1    2  501    0  0.91703073982E+01 -0.76630088760E+02 -0.18876218927E+03  0.26597990107E+03  0.17075678210E+03 0.  0.
         24    2    3    3    0    0  0.27574967130E+02 -0.11264349219E+03 -0.11791663967E+03  0.18426773169E+03  0.81248556208E+02 0.  0.
         -6    2    1    2    0  502 -0.91703073982E+01  0.76630088760E+02 -0.28999878537E+03  0.34566183944E+03  0.17154167624E+03 0.  0.
        -24    2    5    5    0    0  0.41409699964E+02  0.93790391489E+02 -0.23900803489E+03  0.27166886836E+03  0.78534912669E+02 0.  0.
          5    1    3    3  501    0 -0.18404659732E+02  0.36013403431E+02 -0.70845549600E+02  0.81712169379E+02  0.47000000000E+01 0. -1.
        -13    1    4    4    0    0  0.44985390610E+02 -0.29298473017E+02 -0.28434944783E+02  0.60750571802E+02  0.00000000000E+00 0.  1.
         14    1    4    4    0    0 -0.17410423480E+02 -0.83345019174E+02 -0.89481694886E+02  0.12351715989E+03  0.00000000000E+00 0. -1.
         -5    1    5    5    0  502 -0.50580007363E+02 -0.17160302729E+02 -0.50990750483E+02  0.73992971081E+02  0.47000000000E+01 0.  1.
         11    1    6    6    0    0  0.24022241671E+02  0.67687811930E+02 -0.71846416059E+02  0.10159043006E+03  0.00000000000E+00 0. -1.
        -12    1    6    6    0    0  0.17387458293E+02  0.26102579558E+02 -0.16716161883E+03  0.17007843830E+03  0.00000000000E+00 0.  1.
</event>
<event>
12    1  0.8563264E-002  0.2400089E+03  0.7818608E-02  0.1119955E+00
         21   -1    0    0  501  502  0.00000000000E+00  0.00000000000E+00  0.21938122898E+03  0.21938122898E+03  0.00000000000E+00 0. -1.
         21   -1    0    0  502  503 -0.00000000000E+00 -0.00000000000E+00 -0.33020666597E+03  0.33020666597E+03  0.00000000000E+00 0.  1.
         -6    2    1    2    0  503 -0.16356083242E+03 -0.25025213635E+02 -0.18069039034E+03  0.29961715898E+03  0.17246164087E+03 0.  0.
        -24    2    3    3    0    0 -0.59429027740E+02  0.35981098869E+02 -0.36096649767E+02  0.11121693943E+03  0.78992345696E+02 0.  0.
          6    2    1    2  501    0  0.16356083242E+03  0.25025213635E+02  0.69864953353E+02  0.24997073597E+03  0.17385583083E+03 0.  0.
         24    2    5    5    0    0  0.15051350657E+02  0.40143732605E+02  0.24137524473E+02  0.93776230490E+02  0.79832943658E+02 0.  0.
          5    1    5    5  501    0  0.14850948176E+03 -0.15118518971E+02  0.45727428880E+02  0.15619450548E+03  0.47000000000E+01 0. -1.
        -11    1    6    6    0    0  0.43794462407E+02  0.87800923691E+01 -0.39422472988E+00  0.44667665852E+02  0.00000000000E+00 0.  1.
         12    1    6    6    0    0 -0.28743111749E+02  0.31363640236E+02  0.24531749203E+02  0.49108564639E+02  0.00000000000E+00 0. -1.
         -5    1    3    3    0  503 -0.10413180468E+03 -0.61006312504E+02 -0.14459374057E+03  0.18840021954E+03  0.47000000000E+01 0.  1.
         13    1    4    4    0    0 -0.65370954046E+02  0.47198241656E+02 -0.47983307860E+02  0.93826613930E+02  0.00000000000E+00 0. -1.
        -14    1    4    4    0    0  0.59419263059E+01 -0.11217142787E+02  0.11886658093E+02  0.17390325504E+02  0.00000000000E+00 0.  1.
</event>
<event>
12    1  0.8563264E-002  0.1805527E+03  0.7818608E-02  0.1167340E+00
         21   -1    0    0  503  502  0.00000000000E+00  0.00000000000E+00  0.18932678881E+03  0.18932678881E+03  0.00000000000E+00 0.  1.
         21   -1    0    0  501  503 -0.00000000000E+00 -0.00000000000E+00 -0.24833059482E+03  0.24833059482E+03  0.00000000000E+00 0.  1.
          6    2    1    2  501    0 -0.34635907894E+01 -0.53318164817E+02 -0.15091484607E+03  0.23531799701E+03  0.17246578151E+03 0.  0.
         24    2    3    3    0    0  0.58599115050E+02 -0.85910112601E+01 -0.11353744107E+03  0.15004515183E+03  0.78199330580E+02 0.  0.
         -6    2    1    2    0  502  0.34635907894E+01  0.53318164817E+02  0.91911040063E+02  0.20233938661E+03  0.17215912676E+03 0.  0.
        -24    2    5    5    0    0  0.58143298748E+02  0.97712820539E+01  0.16114564287E+02  0.99124091224E+02  0.78037075397E+02 0.  0.
          5    1    3    3  501    0 -0.62062705840E+02 -0.44727153557E+02 -0.37377405000E+02  0.85272845186E+02  0.47000000000E+01 0. -1.
        -13    1    4    4    0    0  0.15872531795E+02 -0.40976608494E+02 -0.43386663670E+02  0.61752913241E+02  0.00000000000E+00 0.  1.
         14    1    4    4    0    0  0.42726583255E+02  0.32385597234E+02 -0.70150777402E+02  0.88292238589E+02  0.00000000000E+00 0. -1.
         -5    1    5    5    0  502 -0.54679707958E+02  0.43546882763E+02  0.75796475776E+02  0.10321529538E+03  0.47000000000E+01 0.  1.
         11    1    6    6    0    0  0.37166229724E+02 -0.13703814449E+02  0.42463060234E+02  0.58070944945E+02  0.00000000000E+00 0. -1.
        -12    1    6    6    0    0  0.20977069024E+02  0.23475096503E+02 -0.26348495948E+02  0.41053146279E+02  0.00000000000E+00 0.  1.
</event>
<event>
12    1  0.8563264E-002  0.3674747E+03  0.7818608E-02  0.1055693E+00
         21   -1    0    0  501  502  0.00000000000E+00  0.00000000000E+00  0.10333501458E+04  0.10333501458E+04  0.00000000000E+00 0.  1.
         21   -1    0    0  502  503 -0.00000000000E+00 -0.00000000000E+00 -0.74596903188E+03  0.74596903188E+03  0.00000000000E+00 0. -1.
         -6    2    1    2    0  503 -0.99005214213E+02  0.30908390201E+03 -0.66435764260E+03  0.75921588142E+03  0.17234496336E+03 0.  0.
        -24    2    3    3    0    0 -0.11723754756E+03  0.30508762752E+03 -0.55755423540E+03  0.65069193946E+03  0.75565677656E+02 0.  0.
          6    2    1    2  501    0  0.99005214213E+02 -0.30908390201E+03  0.95173875651E+03  0.10201032963E+04  0.17166590652E+03 0.  0.
         24    2    5    5    0    0  0.13793011976E+03 -0.23393758806E+03  0.66683441091E+03  0.72285812318E+03  0.64064199303E+02 0.  0.
          5    1    5    5  501    0 -0.38924905550E+02 -0.75146313952E+02  0.28490434560E+03  0.29724517307E+03  0.47000000000E+01 0. -1.
        -13    1    6    6    0    0  0.98896988057E+02 -0.12166245292E+03  0.32268176063E+03  0.35875602482E+03  0.00000000000E+00 0.  1.
         14    1    6    6    0    0  0.39033131706E+02 -0.11227513514E+03  0.34415265028E+03  0.36410209837E+03  0.00000000000E+00 0. -1.
         -5    1    3    3    0  503  0.18232333348E+02  0.39962744894E+01 -0.10680340720E+03  0.10852394196E+03  0.47000000000E+01 0.  1.
         11    1    4    4    0    0 -0.11469594755E+03  0.30934163483E+03 -0.55312501222E+03  0.64404556250E+03  0.00000000000E+00 0. -1.
        -12    1    4    4    0    0 -0.25416000062E+01 -0.42540073084E+01 -0.44292231751E+01  0.66463769609E+01  0.00000000000E+00 0.  1.
</event>
<event>
12    1  0.8563264E-002  0.1781645E+03  0.7818608E-02  0.1169768E+00
         21   -1    0    0  501  502  0.00000000000E+00  0.00000000000E+00  0.29171849936E+02  0.29171849936E+02  0.00000000000E+00 0. -1.
         21   -1    0    0  502  503 -0.00000000000E+00 -0.00000000000E+00 -0.13595679505E+04  0.13595679505E+04  0.00000000000E+00 0. -1.
         -6    2    1    2    0  503 -0.36449085138E+02 -0.22235157843E+02 -0.97903324992E+03  0.99511239646E+03  0.17297294324E+03 0.  0.
        -24    2    3    3    0    0 -0.40237395186E+02 -0.66789652453E+02 -0.43143744786E+03  0.44567385876E+03  0.80043808739E+02 0.  0.
          6    2    1    2  501    0  0.36449085138E+02  0.22235157843E+02 -0.35136285068E+03  0.39362740401E+03  0.17223165301E+03 0.  0.
         24    2    5    5    0    0 -0.88036318268E+01  0.60644317992E+02 -0.13132815257E+03  0.16567909770E+03  0.80294722862E+02 0.  0.
          5    1    5    5  501    0  0.45252716965E+02 -0.38409160149E+02 -0.22003469811E+03  0.22794830631E+03  0.47000000000E+01 0. -1.
        -11    1    6    6    0    0 -0.27162398956E+02 -0.80407187850E+01 -0.51532945448E+02  0.58805557069E+02  0.00000000000E+00 0.  1.
         12    1    6    6    0    0  0.18358767130E+02  0.68685036777E+02 -0.79795207121E+02  0.10687354063E+03  0.00000000000E+00 0. -1.
         -5    1    3    3    0  503  0.37883100477E+01  0.44554494610E+02 -0.54759580206E+03  0.54943853770E+03  0.47000000000E+01 0.  1.
         11    1    4    4    0    0 -0.17347519294E+02 -0.55704330179E+02 -0.40427520078E+03  0.40846339713E+03  0.00000000000E+00 0. -1.
        -12    1    4    4    0    0 -0.22889875892E+02 -0.11085322274E+02 -0.27162247076E+02  0.37210461627E+02  0.00000000000E+00 0.  1.
</event>
<event>
12    1  0.8563264E-002  0.2317461E+03  0.7818608E-02  0.1125456E+00
         21   -1    0    0  503  502  0.00000000000E+00  0.00000000000E+00  0.37028315169E+03  0.37028315169E+03  0.00000000000E+00 0.  1.
         21   -1    0    0  501  503 -0.00000000000E+00 -0.00000000000E+00 -0.14518226092E+03  0.14518226092E+03  0.00000000000E+00 0.  1.
          6    2    1    2  501    0 -0.62831605287E+02  0.14180975050E+03  0.10112492324E+03  0.25264174252E+03  0.17188305328E+03 0.  0.
         24    2    3    3    0    0  0.53535828885E+01  0.88238072468E+02  0.11347022451E+03  0.16492833969E+03  0.80692298881E+02 0.  0.
         -6    2    1    2    0  502  0.62831605287E+02 -0.14180975050E+03  0.12397596753E+03  0.26282367009E+03  0.17218718034E+03 0.  0.
        -24    2    5    5    0    0  0.98974396114E+02 -0.14168467125E+03  0.12325131358E+03  0.22636914915E+03  0.78623331371E+02 0.  0.
          5    1    3    3  501    0 -0.68185188175E+02  0.53571678027E+02 -0.12345301269E+02  0.87713402833E+02  0.47000000000E+01 0. -1.
        -13    1    4    4    0    0  0.10364850335E+02  0.14135174387E+02 -0.10485128592E+02  0.20424769252E+02  0.00000000000E+00 0.  1.
         14    1    4    4    0    0 -0.50112674463E+01  0.74102898082E+02  0.12395535311E+03  0.14450357044E+03  0.00000000000E+00 0. -1.
         -5    1    5    5    0  502 -0.36142790827E+02 -0.12507924923E+00  0.72465395678E+00  0.36454520940E+02  0.47000000000E+01 0.  1.
         13    1    6    6    0    0  0.77683733814E+01 -0.28023413165E+02  0.61629190901E+02  0.68145553644E+02  0.00000000000E+00 0. -1.
        -14    1    6    6    0    0  0.91206022732E+02 -0.11366125808E+03  0.61622122674E+02  0.15822359550E+03  0.00000000000E+00 0.  1.
</event>
<event>
12    1  0.8563264E-002  0.1917437E+03  0.7818608E-02  0.1157301E+00
         21   -1    0    0  501  502  0.00000000000E+00  0.00000000000E+00  0.23110438358E+03  0.23110438358E+03  0.00000000000E+00 0. -1.
         21   -1    0    0  502  503 -0.00000000000E+00 -0.00000000000E+00 -0.17150986261E+03  0.17150986261E+03  0.00000000000E+00 0. -1.
         -6    2    1    2    0  503  0.81885149253E+02  0.30564091587E+01  0.87001714857E+02  0.20892170727E+03  0.17136061997E+03 0.  0.
        -24    2    3    3    0    0  0.12319623446E+03  0.99564687493E+01  0.57433019256E+02  0.15743758989E+03  0.78813701570E+02 0.  0.
          6    2    1    2  501    0 -0.81885149253E+02 -0.30564091587E+01 -0.27407193885E+02  0.19369253892E+03  0.17335260612E+03 0.  0.
         24    2    5    5    0    0 -0.17876251296E+02 -0.51641167858E+02 -0.51930118942E+02  0.10954337583E+03  0.79477313467E+02 0.  0.
          5    1    5    5  501    0 -0.64008897957E+02  0.48584758699E+02  0.24522925056E+02  0.84149163091E+02  0.47000000000E+01 0. -1.
        -11    1    6    6    0    0  0.31913368422E+01  0.20674338513E+02 -0.14342662806E+02  0.25363849868E+02  0.00000000000E+00 0.  1.
         12    1    6    6    0    0 -0.21067588139E+02 -0.72315506371E+02 -0.37587456136E+02  0.84179525958E+02  0.00000000000E+00 0. -1.
         -5    1    3    3    0  503 -0.41311085205E+02 -0.69000595907E+01  0.29568695601E+02  0.51484117383E+02  0.47000000000E+01 0.  1.
         11    1    4    4    0    0  0.33150820848E+02 -0.29813338262E+02  0.23722499137E+01  0.44647952146E+02  0.00000000000E+00 0. -1.
        -12    1    4    4    0    0  0.90045413611E+02  0.39769807011E+02  0.55060769342E+02  0.11278963774E+03  0.00000000000E+00 0.  1.
</event>
<event>
12    1  0.8563264E-002  0.2249574E+03  0.7818608E-02  0.1130250E+00
         21   -1    0    0  501  502  0.00000000000E+00  0.00000000000E+00  0.21664009978E+03  0.21664009978E+03  0.00000000000E+00 0. -1.
         21   -1    0    0  502  503 -0.00000000000E+00 -0.00000000000E+00 -0.23587316322E+03  0.23587316322E+03  0.00000000000E+00 0.  1.
         -6    2    1    2    0  503  0.14500944701E+03  0.82480254650E+01  0.12905108714E+02  0.22527176063E+03  0.17171212729E+03 0.  0.
        -24    2    3    3    0    0  0.44185494104E+02  0.39594012529E+02  0.51293720624E+02  0.11282703683E+03  0.81110114952E+02 0.  0.
          6    2    1    2  501    0 -0.14500944701E+03 -0.82480254650E+01 -0.32138172152E+02  0.22724150238E+03  0.17178494884E+03 0.  0.
         24    2    5    5    0    0 -0.16936049530E+03  0.18379099277E+02 -0.31947227766E+02  0.19085326548E+03  0.79897277319E+02 0.  0.
          5    1    5    5  501    0  0.24351048290E+02 -0.26627124742E+02 -0.19094438559E+00  0.36388236898E+02  0.47000000000E+01 0. -1.
        -11    1    6    6    0    0 -0.17558894178E+03  0.17930530628E+02 -0.20336484413E+02  0.17766978640E+03  0.00000000000E+00 0.  1.
         12    1    6    6    0    0  0.62284464740E+01  0.44856864899E+00 -0.11610743353E+02  0.13183479075E+02  0.00000000000E+00 0. -1.
         -5    1    3    3    0  503  0.10082395291E+03 -0.31345987064E+02 -0.38388611910E+02  0.11244472380E+03  0.47000000000E+01 0.  1.
         13    1    4    4    0    0  0.63775105039E+02  0.34303945446E+02  0.56533846142E+02  0.91870019350E+02  0.00000000000E+00 0. -1.
        -14    1    4    4    0    0 -0.19589610935E+02  0.52900670831E+01 -0.52401255175E+01  0.20957017482E+02  0.00000000000E+00 0.  1.
</event>
<event>
12    1  0.8563264E-002  0.1808693E+03  0.7818608E-02  0.1167660E+00
         21   -1    0    0  501  502  0.00000000000E+00  0.00000000000E+00  0.31657284226E+02  0.31657284226E+02  0.00000000000E+00 0. -1.
         21   -1    0    0  502  503 -0.00000000000E+00 -0.00000000000E+00 -0.10173826672E+04  0.10173826672E+04  0.00000000000E+00 0. -1.
         -6    2    1    2    0  503 -0.50047695834E+02 -0.20151110267E+02 -0.49842381469E+03  0.52925488711E+03  0.16962782017E+03 0.  0.
        -24    2    3    3    0    0 -0.95045546222E+02 -0.10357307609E+02 -0.28734917883E+03  0.31316389467E+03  0.79756784491E+02 0.  0.
          6    2    1    2  501    0  0.50047695834E+02  0.20151110267E+02 -0.48730156826E+03  0.51978506429E+03  0.17263503564E+03 0.  0.
         24    2    5    5    0    0  0.31054526626E+02  0.78405479433E+01 -0.48951334929E+03  0.49656282502E+03  0.76977024094E+02 0.  0.
          5    1    5    5  501    0  0.18993169209E+02  0.12310562324E+02  0.22117810382E+01  0.23222239269E+02  0.47000000000E+01 0. -1.
        -13    1    6    6    0    0 -0.98157289756E+01 -0.18662410884E+02 -0.48736466353E+02  0.53102516588E+02  0.00000000000E+00 0.  1.
         14    1    6    6    0    0  0.40870255601E+02  0.26502958828E+02 -0.44077688294E+03  0.44346030843E+03  0.00000000000E+00 0. -1.
         -5    1    3    3    0  503  0.44997850387E+02 -0.97938026582E+01 -0.21107463585E+03  0.21609099243E+03  0.47000000000E+01 0.  1.
         11    1    4    4    0    0 -0.13006693074E+02  0.15822727751E+02 -0.14758805773E+03  0.14900257569E+03  0.00000000000E+00 0. -1.
        -12    1    4    4    0    0 -0.82038853148E+02 -0.26180035359E+02 -0.13976112110E+03  0.16416131898E+03  0.00000000000E+00 0.  1.
</event>
<event>
12    1  0.8563264E-002  0.1963462E+03  0.7818608E-02  0.1152991E+00
         21   -1    0    0  503  502  0.00000000000E+00  0.00000000000E+00  0.91990536689E+03  0.91990536689E+03  0.00000000000E+00 0. -1.
         21   -1    0    0  501  503 -0.00000000000E+00 -0.00000000000E+00 -0.42343533470E+02  0.42343533470E+02  0.00000000000E+00 0. -1.
          6    2    1    2  501    0  0.81207087553E+02 -0.49590276372E+02  0.38251690682E+03  0.42968782944E+03  0.17105163018E+03 0.  0.
         24    2    3    3    0    0  0.96693924309E+02  0.18213065749E+02  0.24499105516E+03  0.27550422075E+03  0.78743430067E+02 0.  0.
         -6    2    1    2    0  502 -0.81207087553E+02  0.49590276372E+02  0.49504492660E+03  0.53256107092E+03  0.17174990051E+03 0.  0.
        -24    2    5    5    0    0 -0.77051287013E+02 -0.27891145933E+02  0.36173433784E+03  0.37824177674E+03  0.74163964600E+02 0.  0.
          5    1    3    3  501    0 -0.15486836756E+02 -0.67803342122E+02  0.13752585165E+03  0.15418360869E+03  0.47000000000E+01 0. -1.
        -11    1    4    4    0    0 -0.17889508828E+01  0.26156755831E+02  0.38324838522E+02  0.46434571911E+02  0.00000000000E+00 0.  1.
         12    1    4    4    0    0  0.98482875192E+02 -0.79436900816E+01  0.20666621664E+03  0.22906964884E+03  0.00000000000E+00 0. -1.
         -5    1    5    5    0  502 -0.41558005394E+01  0.77481422305E+02  0.13331058875E+03  0.15431929417E+03  0.47000000000E+01 0.  1.
         11    1    6    6    0    0 -0.25133417336E+02  0.56359643825E+01  0.24322921635E+03  0.24458925661E+03  0.00000000000E+00 0. -1.
        -12    1    6    6    0    0 -0.51917869677E+02 -0.33527110315E+02  0.11850512150E+03  0.13365252014E+03  0.00000000000E+00 0.  1.
</event>
<event>
12    1  0.8563264E-002  0.1795871E+03  0.7818608E-02  0.1168555E+00
         21   -1    0    0  501  502  0.00000000000E+00  0.00000000000E+00  0.53623808373E+03  0.53623808373E+03  0.00000000000E+00 0.  1.
         21   -1    0    0  502  503 -0.00000000000E+00 -0.00000000000E+00 -0.26892126070E+03  0.26892126070E+03  0.00000000000E+00 0.  1.
         -6    2    1    2    0  503  0.45036155007E+02  0.12564991077E+02 -0.22158604703E+03  0.28431622247E+03  0.17189881869E+03 0.  0.
        -24    2    3    3    0    0  0.56849546674E+02 -0.35450090562E+02 -0.71468749647E+02  0.12619507506E+03  0.79553974854E+02 0.  0.
          6    2    1    2  501    0 -0.45036155007E+02 -0.12564991077E+02  0.48890287005E+03  0.52084312196E+03  0.17339379194E+03 0.  0.
         24    2    5    5    0    0 -0.66319552142E+02 -0.63107034609E+02  0.28801652667E+03  0.31255271384E+03  0.79717617103E+02 0.  0.
          5    1    5    5  501    0  0.21283397135E+02  0.50542043532E+02  0.20088634338E+03  0.20829040812E+03  0.47000000000E+01 0. -1.
        -13    1    6    6    0    0 -0.45776637876E+02 -0.48469899037E+02  0.27720443931E+03  0.28510898418E+03  0.00000000000E+00 0.  1.
         14    1    6    6    0    0 -0.20542914266E+02 -0.14637135572E+02  0.10812087364E+02  0.27443729657E+02  0.00000000000E+00 0. -1.
         -5    1    3    3    0  503 -0.11813391667E+02  0.48015081639E+02 -0.15011729738E+03  0.15812114742E+03  0.47000000000E+01 0.  1.
         11    1    4    4    0    0  0.41267507577E+02 -0.13711708098E+02 -0.85550593588E+02  0.95968339486E+02  0.00000000000E+00 0. -1.
        -12    1    4    4    0    0  0.15582039097E+02 -0.21738382464E+02  0.14081843941E+02  0.30226735572E+02  0.00000000000E+00 0.  1.
</event>
<event>
12    1  0.8563264E-002  0.3407497E+03  0.7818608E-02  0.1066542E+00
         21   -1    0    0  503  502  0.00000000000E+00  0.00000000000E+00  0.34672281029E+03  0.34672281029E+03  0.00000000000E+00 0. -1.
         21   -1    0    0  501  503 -0.00000000000E+00 -0.00000000000E+00 -0.44016262919E+03  0.44016262919E+03  0.00000000000E+00 0.  1.
          6    2    1    2  501    0  0.27252207709E+03 -0.11134000650E+03 -0.23972182203E+03  0.41662560987E+03  0.17159681609E+03 0.  0.
         24    2    3    3    0    0  0.46016807476E+02 -0.53460719894E+02 -0.65468441990E+02  0.12500774444E+03  0.79782354767E+02 0.  0.
         -6    2    1    2    0  502 -0.27252207709E+03  0.11134000650E+03  0.14628200314E+03  0.37025982962E+03  0.17037909919E+03 0.  0.
        -24    2    5    5    0    0 -0.24191598159E+03  0.14209168227E+03  0.14865027612E+03  0.32655516899E+03  0.76341243633E+02 0.  0.
          5    1    3    3  501    0  0.22650526961E+03 -0.57879286605E+02 -0.17425338004E+03  0.29161786543E+03  0.47000000000E+01 0. -1.
        -11    1    4    4    0    0  0.52503633566E+02 -0.80662206033E-02 -0.35580885504E+02  0.63424214744E+02  0.00000000000E+00 0.  1.
         12    1    4    4    0    0 -0.64868260897E+01 -0.53452653673E+02 -0.29887556485E+02  0.61583529698E+02  0.00000000000E+00 0. -1.
         -5    1    5    5    0  502 -0.30606095491E+02 -0.30751675771E+02 -0.23682729858E+01  0.43704660631E+02  0.47000000000E+01 0.  1.
         13    1    6    6    0    0 -0.99714616259E+02  0.10249089938E+03  0.67847573672E+02  0.15827407370E+03  0.00000000000E+00 0. -1.
        -14    1    6    6    0    0 -0.14220136534E+03  0.39600782891E+02  0.80802702450E+02  0.16828109529E+03  0.00000000000E+00 0.  1.
</event>
<event>
12    1  0.8563264E-002  0.1941014E+03  0.7818608E-02  0.1154856E+00
         21   -1    0    0  503  502  0.00000000000E+00  0.00000000000E+00  0.46388867491E+03  0.46388867491E+03  0.00000000000E+00 0. -1.
         21   -1    0    0  501  503 -0.00000000000E+00 -0.00000000000E+00 -0.86402470960E+02  0.86402470960E+02  0.00000000000E+00 0. -1.
          6    2    1    2  501    0 -0.86415461023E+02 -0.11610162305E+02  0.12089609670E+03  0.22867274916E+03  0.17341549020E+03 0.  0.
         24    2    3    3    0    0  0.21933886357E+02 -0.23205360961E+02  0.55615652032E+02  0.10155997968E+03  0.78751156015E+02 0.  0.
         -6    2    1    2    0  502  0.86415461023E+02  0.11610162305E+02  0.25659010725E+03  0.32161839671E+03  0.17319781231E+03 0.  0.
        -24    2    5    5    0    0 -0.32521823509E+02 -0.20912193316E+02  0.78699141736E+02  0.10512112911E+03  0.57981963069E+02 0.  0.
          5    1    3    3  501    0 -0.10834934738E+03  0.11595198656E+02  0.65280444668E+02  0.12711276948E+03  0.47000000000E+01 0. -1.
        -11    1    4    4    0    0 -0.23343916713E+02  0.13242261089E+02  0.16680643799E+02  0.31599680438E+02  0.00000000000E+00 0.  1.
         12    1    4    4    0    0  0.45277803070E+02 -0.36447622049E+02  0.38935008233E+02  0.69960299242E+02  0.00000000000E+00 0. -1.
         -5    1    5    5    0  502  0.11893728453E+03  0.32522355621E+02  0.17789096552E+03  0.21649726760E+03  0.47000000000E+01 0.  1.
         13    1    6    6    0    0 -0.15012518653E+02  0.19940016647E+02  0.23828635202E+02  0.34507735883E+02  0.00000000000E+00 0. -1.
        -14    1    6    6    0    0 -0.17509304856E+02 -0.40852209963E+02  0.54870506535E+02  0.70613393225E+02  0.00000000000E+00 0.  1.
</event>
<event>
12    1  0.8563264E-002  0.1852208E+03  0.7818608E-02  0.1163789E+00
         21   -1    0    0  503  502  0.00000000000E+00  0.00000000000E+00  0.35514029643E+03  0.35514029643E+03  0.00000000000E+00 0.  1.
         21   -1    0    0  501  503 -0.00000000000E+00 -0.00000000000E+00 -0.97970947316E+02  0.97970947316E+02  0.00000000000E+00 0.  1.
          6    2    1    2  501    0 -0.55907362855E+02 -0.39645671593E+02  0.16973196997E+03  0.24828930026E+03  0.16775345748E+03 0.  0.
         24    2    3    3    0    0 -0.96731988564E+02 -0.51166055436E+02  0.14906619937E+03  0.20087059738E+03  0.78442477374E+02 0.  0.
         -6    2    1    2    0  502  0.55907362855E+02  0.39645671593E+02  0.87437379144E+02  0.20482194349E+03  0.17207359113E+03 0.  0.
        -24    2    5    5    0    0  0.92504108010E+02 -0.45324720250E+01  0.81829603619E+02  0.14698970960E+03  0.79575985070E+02 0.  0.
          5    1    3    3  501    0  0.40824625709E+02  0.11520383843E+02  0.20665770601E+02  0.47418702879E+02  0.47000000000E+01 0. -1.
        -13    1    4    4    0    0 -0.20370727000E+02 -0.45987794806E+02  0.27793490253E+02  0.57465832371E+02  0.00000000000E+00 0.  1.
         14    1    4    4    0    0 -0.76361261564E+02 -0.51782606302E+01  0.12127270911E+03  0.14340476501E+03  0.00000000000E+00 0. -1.
         -5    1    5    5    0  502 -0.36596745155E+02  0.44178143618E+02  0.56077755253E+01  0.57832233882E+02  0.47000000000E+01 0.  1.
         11    1    6    6    0    0 -0.88681542696E+01 -0.15155447547E+02  0.24197246849E+02  0.29897132063E+02  0.00000000000E+00 0. -1.
        -12    1    6    6    0    0  0.10137226228E+03  0.10622975522E+02  0.57632356770E+02  0.11709257754E+03  0.00000000000E+00 0.  1.
</event>
<event>
12    1  0.8563264E-002  0.1790294E+03  0.7818608E-02  0.1169321E+00
         21   -1    0    0  503  502  0.00000000000E+00  0.00000000000E+00  0.19352826119E+02  0.19352826119E+02  0.00000000000E+00 0.  1.
         21   -1    0    0  501  503 -0.00000000000E+00 -0.00000000000E+00 -0.18325657361E+04  0.18325657361E+04  0.00000000000E+00 0.  1.
          6    2    1    2  501    0  0.21557369684E+02  0.32029920010E+02 -0.12056503031E+04  0.12185278075E+04  0.17241440887E+03 0.  0.
         24    2    3    3    0    0  0.37142402473E+02  0.30836615233E+02 -0.32392339565E+03  0.33664984173E+03  0.77950591988E+02 0.  0.
         -6    2    1    2    0  502 -0.21557369684E+02 -0.32029920010E+02 -0.60756260696E+03  0.63339075477E+03  0.17481673516E+03 0.  0.
        -24    2    5    5    0    0 -0.72465618335E+02 -0.48398894851E+02 -0.48339543875E+03  0.49811633450E+03  0.82795009690E+02 0.  0.
          5    1    3    3  501    0 -0.15585032789E+02  0.11933047771E+01 -0.88172690742E+03  0.88187796576E+03  0.47000000000E+01 0. -1.
        -13    1    4    4    0    0 -0.21341506116E+02  0.95056894176E+01 -0.15236984361E+03  0.15415053440E+03  0.00000000000E+00 0.  1.
         14    1    4    4    0    0  0.58483908590E+02  0.21330925816E+02 -0.17155355203E+03  0.18249930733E+03  0.00000000000E+00 0. -1.
         -5    1    5    5    0  502  0.50908248651E+02  0.16368974841E+02 -0.12416716821E+03  0.13527442027E+03  0.47000000000E+01 0.  1.
         13    1    6    6    0    0 -0.39759143348E+02 -0.10663462826E+02 -0.39037590888E+03  0.39254025164E+03  0.00000000000E+00 0. -1.
        -14    1    6    6    0    0 -0.32706474987E+02 -0.37735432025E+02 -0.93019529861E+02  0.10557608286E+03  0.00000000000E+00 0.  1.
</event>
<event>
12    1  0.8563264E-002  0.1957993E+03  0.7818608E-02  0.1153569E+00
         21   -1    0    0  501  502  0.00000000000E+00  0.00000000000E+00  0.36979213689E+02  0.36979213689E+02  0.00000000000E+00 0.  1.
         21   -1    0    0  502  503 -0.00000000000E+00 -0.00000000000E+00 -0.10321284858E+04  0.10321284858E+04  0.00000000000E+00 0.  1.
         -6    2    1    2    0  503 -0.50595991704E+02 -0.78496213562E+02 -0.51680764885E+03  0.55265497067E+03  0.17209230308E+03 0.  0.
        -24    2    3    3    0    0  0.31432834066E+02 -0.21715233076E+02 -0.31590282682E+03  0.32829444492E+03  0.80765538237E+02 0.  0.
          6    2    1    2  501    0  0.50595991704E+02  0.78496213562E+02 -0.47834162328E+03  0.51645272884E+03  0.17085403898E+03 0.  0.
         24    2    5    5    0    0  0.10024780081E+03  0.48056747862E+02 -0.35341998904E+03  0.37854200437E+03  0.77648488988E+02 0.  0.
          5    1    5    5  501    0 -0.49651809103E+02  0.30439465700E+02 -0.12492163425E+03  0.13791072446E+03  0.47000000000E+01 0. -1.
        -13    1    6    6    0    0  0.85076374347E+02  0.69011797518E+02 -0.27780894042E+03  0.29862756914E+03  0.00000000000E+00 0.  1.
         14    1    6    6    0    0  0.15171426460E+02 -0.20955049655E+02 -0.75611048614E+02  0.79914435238E+02  0.00000000000E+00 0. -1.
         -5    1    3    3    0  503 -0.82028825770E+02 -0.56780980486E+02 -0.20090482203E+03  0.22436052575E+03  0.47000000000E+01 0.  1.
         11    1    4    4    0    0  0.38630572470E+02 -0.18964035954E+02 -0.69323528551E+02  0.81594775567E+02  0.00000000000E+00 0. -1.
        -12    1    4    4    0    0 -0.71977384039E+01 -0.27511971216E+01 -0.24657929827E+03  0.24669966935E+03  0.00000000000E+00 0.  1.
</event>
<event>
12    1  0.8563264E-002  0.2798597E+03  0.7818608E-02  0.1096146E+00
         21   -1    0    0  501  502  0.00000000000E+00  0.00000000000E+00  0.98056104850E+03  0.98056104850E+03  0.00000000000E+00 0. -1.
         21   -1    0    0  502  503 -0.00000000000E+00 -0.00000000000E+00 -0.19069834659E+03  0.19069834659E+03  0.00000000000E+00 0.  1.
         -6    2    1    2    0  503 -0.16382911457E+03  0.14525059600E+03  0.84214308394E+03  0.88655834911E+03  0.16983232362E+03 0.  0.
        -24    2    3    3    0    0 -0.97075532207E+02  0.16518739821E+03  0.58508992048E+03  0.62019030358E+03  0.74801484751E+02 0.  0.
          6    2    1    2  501    0  0.16382911457E+03 -0.14525059600E+03 -0.52280382024E+02  0.28470104598E+03  0.17430930215E+03 0.  0.
         24    2    5    5    0    0  0.17159413671E+03 -0.81711812396E+02 -0.57252897136E+01  0.20541082457E+03  0.77713961883E+02 0.  0.
          5    1    5    5  501    0 -0.77650221358E+01 -0.63538783599E+02 -0.46555092310E+02  0.79290221402E+02  0.47000000000E+01 0. -1.
        -13    1    6    6    0    0  0.61117503452E+02 -0.63652595773E+02 -0.25233204901E+02  0.91780808487E+02  0.00000000000E+00 0.  1.
         14    1    6    6    0    0  0.11047663326E+03 -0.18059216623E+02  0.19507915187E+02  0.11363001609E+03  0.00000000000E+00 0. -1.
         -5    1    3    3    0  503 -0.66753582368E+02 -0.19936802216E+02  0.25705316345E+03  0.26636804554E+03  0.47000000000E+01 0.  1.
         11    1    4    4    0    0 -0.10324710568E+03  0.11336525089E+03  0.42563583889E+03  0.45241298864E+03  0.00000000000E+00 0. -1.
        -12    1    4    4    0    0  0.61715734722E+01  0.51822147321E+02  0.15945408159E+03  0.16777731494E+03  0.00000000000E+00 0.  1.
</event>
<event>
12    1  0.8563264E-002  0.2065973E+03  0.7818608E-02  0.1146441E+00
         21   -1    0    0  501  502  0.00000000000E+00  0.00000000000E+00  0.49999666022E+03  0.49999666022E+03  0.00000000000E+00 0.  1.
         21   -1    0    0  502  503 -0.00000000000E+00 -0.00000000000E+00 -0.16200330226E+03  0.16200330226E+03  0.00000000000E+00 0.  1.
         -6    2    1    2    0  503  0.10419590113E+03 -0.62939035220E+01 -0.62639561759E+02  0.21588458276E+03  0.17828639697E+03 0.  0.
        -24    2    3    3    0    0  0.98196959551E+02 -0.39801424243E+02  0.12039704366E+02  0.13367859737E+03  0.80611517029E+02 0.  0.
          6    2    1    2  501    0 -0.10419590113E+03  0.62939035220E+01  0.40063291972E+03  0.44611537972E+03  0.16618001272E+03 0.  0.
         24    2    5    5    0    0 -0.94724148925E+02  0.63158647929E+02  0.30717557754E+03  0.33620779102E+03  0.75611930994E+02 0.  0.
          5    1    5    5  501    0 -0.94717522043E+01 -0.56864744407E+02  0.93457342179E+02  0.10990758870E+03  0.47000000000E+01 0. -1.
        -11    1    6    6    0    0 -0.60304023986E+02 -0.41047134130E+01  0.15318792736E+03  0.16468140475E+03  0.00000000000E+00 0.  1.
         12    1    6    6    0    0 -0.34420124939E+02  0.67263361342E+02  0.15398765018E+03  0.17152638627E+03  0.00000000000E+00 0. -1.
         -5    1    3    3    0  503  0.59989415779E+01  0.33507520721E+02 -0.74679266125E+02  0.82205985389E+02  0.47000000000E+01 0.  1.
         11    1    4    4    0    0  0.10036504330E+02  0.12921773018E+02 -0.20218726847E+02  0.26009624227E+02  0.00000000000E+00 0. -1.
        -12    1    4    4    0    0  0.88160455221E+02 -0.52723197261E+02  0.32258431213E+02  0.10766897315E+03  0.00000000000E+00 0.  1.
</event>
<event>
12    1  0.8563264E-002  0.1890687E+03  0.7818608E-02  0.1159501E+00
         21   -1    0    0  501  502  0.00000000000E+00  0.00000000000E+00  0.12227085171E+03  0.12227085171E+03  0.00000000000E+00 0. -1.
         21   -1    0    0  502  503 -0.00000000000E+00 -0.00000000000E+00 -0.29119719456E+03  0.29119719456E+03  0.00000000000E+00 0. -1.
         -6    2    1    2    0  503  0.58175298029E+02  0.51802394527E+02 -0.79205844410E+02  0.20419131468E+03  0.17132622048E+03 0.  0.
        -24    2    3    3    0    0  0.28711422936E+02  0.99432186387E+02 -0.46294250624E+02  0.13906083016E+03  0.80521123613E+02 0.  0.
          6    2    1    2  501    0 -0.58175298029E+02 -0.51802394527E+02 -0.89720498440E+02  0.20927673158E+03  0.17227631631E+03 0.  0.
         24    2    5    5    0    0 -0.66368310624E+02  0.26746201371E+02 -0.72906149017E+02  0.12839521503E+03  0.77781184968E+02 0.  0.
          5    1    5    5  501    0  0.81930125948E+01 -0.78548595897E+02 -0.16814349423E+02  0.80881516549E+02  0.47000000000E+01 0. -1.
        -11    1    6    6    0    0 -0.40085597337E+01 -0.13659689362E+02  0.97460208871E+01  0.17252263265E+02  0.00000000000E+00 0.  1.
         12    1    6    6    0    0 -0.62359750890E+02  0.40405890733E+02 -0.82652169904E+02  0.11114295176E+03  0.00000000000E+00 0. -1.
         -5    1    3    3    0  503  0.29463875093E+02 -0.47629791861E+02 -0.32911593787E+02  0.65130484520E+02  0.47000000000E+01 0.  1.
         13    1    4    4    0    0  0.32218857305E+02  0.25093855830E+02  0.14114283751E+02  0.43208440984E+02  0.00000000000E+00 0. -1.
        -14    1    4    4    0    0 -0.35074343694E+01  0.74338330557E+02 -0.60408534375E+02  0.95852389178E+02  0.00000000000E+00 0.  1.
</event>
<event>
12    1  0.8563264E-002  0.1725653E+03  0.7818608E-02  0.1175245E+00
         21   -1    0    0  503  502  0.00000000000E+00  0.00000000000E+00  0.79406246084E+02  0.79406246084E+02  0.00000000000E+00 0. -1.
         21   -1    0    0  501  503 -0.00000000000E+00 -0.00000000000E+00 -0.14852706345E+04  0.14852706345E+04  0.00000000000E+00 0. -1.
          6    2    1    2  501    0  0.12539343496E+02 -0.10323570513E+02 -0.13795416186E+04  0.13902927232E+04  0.17179920649E+03 0.  0.
         24    2    3    3    0    0  0.36707181758E+02 -0.52947801450E+02 -0.55401107453E+03  0.56329594041E+03  0.78887000889E+02 0.  0.
         -6    2    1    2    0  502 -0.12539343496E+02  0.10323570513E+02 -0.26322769727E+02  0.17438415735E+03  0.17161915652E+03 0.  0.
        -24    2    5    5    0    0 -0.46799538098E+02 -0.45887896044E+02 -0.60014582640E+01  0.10532957309E+03  0.82233847638E+02 0.  0.
          5    1    3    3  501    0 -0.24167838262E+02  0.42624230937E+02 -0.82553054412E+03  0.82699678279E+03  0.47000000000E+01 0. -1.
        -11    1    4    4    0    0  0.66545809802E+01 -0.67567213415E+02 -0.34303614194E+03  0.34969044375E+03  0.00000000000E+00 0.  1.
         12    1    4    4    0    0  0.30052600777E+02  0.14619411965E+02 -0.21097493259E+03  0.21360549666E+03  0.00000000000E+00 0. -1.
         -5    1    5    5    0  502  0.34260194602E+02  0.56211466557E+02 -0.20321311463E+02  0.69054584252E+02  0.47000000000E+01 0.  1.
         11    1    6    6    0    0 -0.38438502672E+02  0.14557362680E+02  0.98850627362E+01  0.42274694099E+02  0.00000000000E+00 0. -1.
        -12    1    6    6    0    0 -0.83610354263E+01 -0.60445258724E+02 -0.15886521000E+02  0.63054878995E+02  0.00000000000E+00 0.  1.
</event>
<event>
12    1  0.8563264E-002  0.2237875E+03  0.7818608E-02  0.1131098E+00
         21   -1    0    0  501  502  0.00000000000E+00  0.00000000000E+00  0.15206963341E+03  0.15206963341E+03  0.00000000000E+00 0.  1.
         21   -1    0    0  502  503 -0.00000000000E+00 -0.00000000000E+00 -0.34518769815E+03  0.34518769815E+03  0.00000000000E+00 0. -1.
         -6    2    1    2    0  503  0.14362559498E+03 -0.13948389885E+02 -0.14996074570E+03  0.26938644522E+03  0.17104959078E+03 0.  0.
        -24    2    3    3    0    0  0.80893555561E+02  0.40710970200E+02 -0.14146365322E+03  0.18561744741E+03  0.78998235254E+02 0.  0.
          6    2    1    2  501    0 -0.14362559498E+03  0.13948389885E+02 -0.43157319042E+02  0.22787088634E+03  0.17099625008E+03 0.  0.
         24    2    5    5    0    0 -0.11250525779E+03  0.22202398012E+02 -0.93257437837E+02  0.16813215569E+03  0.80131720039E+02 0.  0.
          5    1    5    5  501    0 -0.31120337191E+02 -0.82540081270E+01  0.50100118795E+02  0.59738730656E+02  0.47000000000E+01 0. -1.
        -11    1    6    6    0    0 -0.37810137940E+02 -0.23543959413E+02 -0.67968350683E+01  0.45056869874E+02  0.00000000000E+00 0.  1.
         12    1    6    6    0    0 -0.74695119847E+02  0.45746357424E+02 -0.86460602769E+02  0.12307528581E+03  0.00000000000E+00 0. -1.
         -5    1    3    3    0  503  0.62732039417E+02 -0.54659360085E+02 -0.84970924796E+01  0.83768997815E+02  0.47000000000E+01 0.  1.
         11    1    4    4    0    0  0.60225703857E+02 -0.12144071289E+02 -0.56661427437E+02  0.83577097531E+02  0.00000000000E+00 0. -1.
        -12    1    4    4    0    0  0.20667851705E+02  0.52855041489E+02 -0.84802225787E+02  0.10204034988E+03  0.00000000000E+00 0.  1.
</event>
<event>
12    1  0.8563264E-002  0.2061299E+03  0.7818608E-02  0.1145019E+00
         21   -1    0    0  501  502  0.00000000000E+00  0.00000000000E+00  0.15740749488E+03  0.15740749488E+03  0.00000000000E+00 0. -1.
         21   -1    0    0  502  503 -0.00000000000E+00 -0.00000000000E+00 -0.28516105738E+03  0.28516105738E+03  0.00000000000E+00 0. -1.
         -6    2    1    2    0  503  0.41775425664E+02 -0.10138679033E+03 -0.88405375435E+01  0.20459826630E+03  0.17250457393E+03 0.  0.
        -24    2    3    3    0    0 -0.14547289899E+01 -0.11738324378E+03 -0.41123676637E+02  0.14812682339E+03  0.80432934001E+02 0.  0.
          6    2    1    2  501    0 -0.41775425664E+02  0.10138679033E+03 -0.11891302496E+03  0.23797028596E+03  0.17454249354E+03 0.  0.
         24    2    5    5    0    0 -0.11107343429E+02 -0.54031296759E+01 -0.11175489587E+02  0.83134615610E+02  0.81448792851E+02 0.  0.
          5    1    5    5  501    0 -0.30668082236E+02  0.10678992001E+03 -0.10773753538E+03  0.15483567035E+03  0.47000000000E+01 0. -1.
        -13    1    6    6    0    0 -0.48770161306E+01 -0.40295711105E+02  0.10057100817E+02  0.41817160313E+02  0.00000000000E+00 0.  1.
         14    1    6    6    0    0 -0.62303272981E+01  0.34892581429E+02 -0.21232590404E+02  0.41317455298E+02  0.00000000000E+00 0. -1.
         -5    1    3    3    0  503  0.43230154654E+02  0.15996453451E+02  0.32283139094E+02  0.56471442909E+02  0.47000000000E+01 0.  1.
         11    1    4    4    0    0  0.18749322652E+02 -0.35381525935E+02  0.19134614193E+02  0.44379307540E+02  0.00000000000E+00 0. -1.
        -12    1    4    4    0    0 -0.20204051642E+02 -0.82001717845E+02 -0.60258290830E+02  0.10374751585E+03  0.00000000000E+00 0.  1.
</event>
<event>
12    1  0.8563264E-002  0.1843960E+03  0.7818608E-02  0.1163690E+00
         21   -1    0    0  501  502  0.00000000000E+00  0.00000000000E+00  0.71247656030E+02  0.71247656030E+02  0.00000000000E+00 0.  1.
         21   -1    0    0  502  503 -0.00000000000E+00 -0.00000000000E+00 -0.61192270607E+03  0.61192270607E+03  0.00000000000E+00 0.  1.
         -6    2    1    2    0  503 -0.32427452661E+02 -0.56795237120E+02 -0.43126614373E+03  0.46903343013E+03  0.17240833276E+03 0.  0.
        -24    2    3    3    0    0 -0.19559905172E+02  0.35440083139E+02 -0.17484366896E+03  0.19618273168E+03  0.79238666369E+02 0.  0.
          6    2    1    2  501    0  0.32427452661E+02  0.56795237120E+02 -0.10940890631E+03  0.21413693197E+03  0.17206707474E+03 0.  0.
         24    2    5    5    0    0  0.14913952133E+02  0.10136682714E+03 -0.10239086679E+03  0.16550883087E+03  0.80072616313E+02 0.  0.
          5    1    5    5  501    0  0.17513500528E+02 -0.44571590021E+02 -0.70180395288E+01  0.48628101100E+02  0.47000000000E+01 0. -1.
        -13    1    6    6    0    0 -0.21848877407E+01  0.34765962427E+02 -0.88840262699E+02  0.95425563421E+02  0.00000000000E+00 0.  1.
         14    1    6    6    0    0  0.17098839874E+02  0.66600864714E+02 -0.13550604087E+02  0.70083267452E+02  0.00000000000E+00 0. -1.
         -5    1    3    3    0  503 -0.12867547489E+02 -0.92235320258E+02 -0.25642247476E+03  0.27285069845E+03  0.47000000000E+01 0.  1.
         11    1    4    4    0    0 -0.49356786054E+01 -0.16217701788E+02 -0.11309294298E+03  0.11435641008E+03  0.00000000000E+00 0. -1.
        -12    1    4    4    0    0 -0.14624226567E+02  0.51657784927E+02 -0.61750725980E+02  0.81826321592E+02  0.00000000000E+00 0.  1.
</event>
<event>
12    1  0.8563264E-002  0.2598540E+03  0.7818608E-02  0.1107288E+00
         21   -1    0    0  501  502  0.00000000000E+00  0.00000000000E+00  0.74067211926E+03  0.74067211926E+03  0.00000000000E+00 0.  1.
         21   -1    0    0  502  503 -0.00000000000E+00 -0.00000000000E+00 -0.10532730756E+03  0.10532730756E+03  0.00000000000E+00 0. -1.
         -6    2    1    2    0  503  0.10636835087E+03  0.16308784770E+03  0.47370335229E+03  0.54029527618E+03  0.17208209480E+03 0.  0.
        -24    2    3    3    0    0  0.11914439932E+03  0.62289206494E+02  0.25327027152E+03  0.29752701923E+03  0.79379868982E+02 0.  0.
          6    2    1    2  501    0 -0.10636835087E+03 -0.16308784770E+03  0.16164145941E+03  0.30570415065E+03  0.17150858343E+03 0.  0.
         24    2    5    5    0    0 -0.11662775463E+03 -0.15933529048E+03  0.18333929708E+03  0.28096100593E+03  0.79599127242E+02 0.  0.
          5    1    5    5  501    0  0.10259403762E+02 -0.37525572203E+01 -0.21697837666E+02  0.24743144720E+02  0.47000000000E+01 0. -1.
        -13    1    6    6    0    0 -0.39636533781E+02 -0.11949215428E+03  0.11602446449E+03  0.17120486589E+03  0.00000000000E+00 0.  1.
         14    1    6    6    0    0 -0.76991220847E+02 -0.39843136201E+02  0.67314832586E+02  0.10975614004E+03  0.00000000000E+00 0. -1.
         -5    1    3    3    0  503 -0.12776048455E+02  0.10079864121E+03  0.22043308077E+03  0.24276825695E+03  0.47000000000E+01 0. -1.
         13    1    4    4    0    0  0.12773036638E+03  0.44219907594E+02  0.20837106721E+03  0.24837259988E+03  0.00000000000E+00 0. -1.
        -14    1    4    4    0    0 -0.85859670623E+01  0.18069298899E+02  0.44899204314E+02  0.49154419345E+02  0.00000000000E+00 0.  1.
</event>
<event>
12    1  0.8563264E-002  0.2620886E+03  0.7818608E-02  0.1105922E+00
         21   -1    0    0  503  502  0.00000000000E+00  0.00000000000E+00  0.13880157762E+03  0.13880157762E+03  0.00000000000E+00 0.  1.
         21   -1    0    0  501  503 -0.00000000000E+00 -0.00000000000E+00 -0.54174542671E+03  0.54174542671E+03  0.00000000000E+00 0. -1.
          6    2    1    2  501    0 -0.14766815299E+03 -0.12905349377E+03 -0.30185024390E+03  0.39963715589E+03  0.17359607993E+03 0.  0.
         24    2    3    3    0    0 -0.17244528396E+03 -0.10422262572E+03 -0.21278548279E+03  0.30379822904E+03  0.80099754143E+02 0.  0.
         -6    2    1    2    0  502  0.14766815299E+03  0.12905349377E+03 -0.10109360519E+03  0.28090984844E+03  0.17386701320E+03 0.  0.
        -24    2    5    5    0    0  0.77969974196E+00  0.41679696716E+02 -0.38984237259E+02  0.99003109443E+02  0.80895240124E+02 0.  0.
          5    1    3    3  501    0  0.24777130972E+02 -0.24830868052E+02 -0.89064761116E+02  0.95838926852E+02  0.47000000000E+01 0. -1.
        -13    1    4    4    0    0 -0.76462728983E+02 -0.92357875450E+02 -0.12449598078E+03  0.17284610297E+03  0.00000000000E+00 0.  1.
         14    1    4    4    0    0 -0.95982554975E+02 -0.11864750266E+02 -0.88289502004E+02  0.13095212607E+03  0.00000000000E+00 0. -1.
         -5    1    5    5    0  502  0.14688845324E+03  0.87373797052E+02 -0.62109367929E+02  0.18190673900E+03  0.47000000000E+01 0.  1.
         13    1    6    6    0    0  0.29006646136E+02  0.44912776466E+02 -0.45093037853E+02  0.69942298166E+02  0.00000000000E+00 0. -1.
        -14    1    6    6    0    0 -0.28226946394E+02 -0.32330797507E+01  0.61088005934E+01  0.29060811277E+02  0.00000000000E+00 0.  1.
</event>
<event>
12    1  0.8563264E-002  0.2012793E+03  0.7818608E-02  0.1149162E+00
         21   -1    0    0  503  502  0.00000000000E+00  0.00000000000E+00  0.35873165128E+03  0.35873165128E+03  0.00000000000E+00 0.  1.
         21   -1    0    0  501  503 -0.00000000000E+00 -0.00000000000E+00 -0.22116873045E+03  0.22116873045E+03  0.00000000000E+00 0. -1.
          6    2    1    2  501    0  0.92013783209E+02 -0.46737333484E+02 -0.13508261946E+03  0.24240602828E+03  0.17280756298E+03 0.  0.
         24    2    3    3    0    0  0.20339704710E+02 -0.52079350879E+02 -0.10094840640E+02  0.98150194659E+02  0.80034945670E+02 0.  0.
         -6    2    1    2    0  502 -0.92013783209E+02  0.46737333484E+02  0.27264554029E+03  0.33749435345E+03  0.17004685628E+03 0.  0.
        -24    2    5    5    0    0 -0.89973665346E+01 -0.25666703329E+02  0.75451183641E+02  0.11157008676E+03  0.77558177413E+02 0.  0.
          5    1    3    3  501    0  0.71674078498E+02  0.53420173957E+01 -0.12498777882E+03  0.14425583362E+03  0.47000000000E+01 0. -1.
        -11    1    4    4    0    0 -0.12807602085E+02 -0.22927397661E+02  0.29042749460E+02  0.39155862024E+02  0.00000000000E+00 0.  1.
         12    1    4    4    0    0  0.33147306796E+02 -0.29151953218E+02 -0.39137590100E+02  0.58994332635E+02  0.00000000000E+00 0. -1.
         -5    1    5    5    0  502 -0.83016416674E+02  0.72404036813E+02  0.19719435665E+03  0.22592426669E+03  0.47000000000E+01 0.  1.
         11    1    6    6    0    0 -0.19922717588E+02 -0.29985971496E+02  0.81012463773E+00  0.36010130027E+02  0.00000000000E+00 0. -1.
        -12    1    6    6    0    0  0.10925351054E+02  0.43192681665E+01  0.74641059003E+02  0.75559956738E+02  0.00000000000E+00 0.  1.
</event>
<event>
12    1  0.8563264E-002  0.2237380E+03  0.7818608E-02  0.1132596E+00
         21   -1    0    0  501  502  0.00000000000E+00  0.00000000000E+00  0.62321306747E+03  0.62321306747E+03  0.00000000000E+00 0. -1.
         21   -1    0    0  502  503 -0.00000000000E+00 -0.00000000000E+00 -0.79491082012E+02  0.79491082012E+02  0.00000000000E+00 0. -1.
         -6    2    1    2    0  503  0.10689802657E+03 -0.81297934061E+02  0.33208178137E+03  0.40042101341E+03  0.17894730033E+03 0.  0.
        -24    2    3    3    0    0 -0.13363506295E+02 -0.16333913436E+02  0.78727640248E+02  0.11250857692E+03  0.77554874203E+02 0.  0.
          6    2    1    2  501    0 -0.10689802657E+03  0.81297934061E+02  0.21164020410E+03  0.30228313608E+03  0.16895850438E+03 0.  0.
         24    2    5    5    0    0 -0.25661605092E+02 -0.30216627901E+01  0.14746040348E+03  0.16867816838E+03  0.77718115465E+02 0.  0.
          5    1    5    5  501    0 -0.81236421474E+02  0.84319596851E+02  0.64179800614E+02  0.13360496770E+03  0.47000000000E+01 0. -1.
        -13    1    6    6    0    0  0.25852867066E+02 -0.13744053140E+02  0.52008561887E+02  0.59683835683E+02  0.00000000000E+00 0.  1.
         14    1    6    6    0    0 -0.51514472158E+02  0.10722390350E+02  0.95451841595E+02  0.10899433270E+03  0.00000000000E+00 0. -1.
         -5    1    3    3    0  503  0.12026153286E+03 -0.64964020624E+02  0.25335414112E+03  0.28791243649E+03  0.47000000000E+01 0.  1.
         11    1    4    4    0    0  0.62682572547E+01 -0.41342626765E+02  0.21443564703E+02  0.46992875035E+02  0.00000000000E+00 0. -1.
        -12    1    4    4    0    0 -0.19631763550E+02  0.25008713328E+02  0.57284075544E+02  0.65515701884E+02  0.00000000000E+00 0.  1.
</event>
<event>
12    1  0.8563264E-002  0.1890029E+03  0.7818608E-02  0.1159701E+00
         21   -1    0    0  503  502  0.00000000000E+00  0.00000000000E+00  0.19681404117E+03  0.19681404117E+03  0.00000000000E+00 0. -1.
         21   -1    0    0  501  503 -0.00000000000E+00 -0.00000000000E+00 -0.38157341026E+03  0.38157341026E+03  0.00000000000E+00 0. -1.
          6    2    1    2  501    0 -0.67735701458E+02 -0.33219852938E+02 -0.30235625552E+03  0.35578662572E+03  0.17167741234E+03 0.  0.
         24    2    3    3    0    0 -0.92443868158E+02 -0.71280166570E+02 -0.21619285374E+03  0.25829148337E+03  0.79676906734E+02 0.  0.
         -6    2    1    2    0  502  0.67735701458E+02  0.33219852938E+02  0.11759688644E+03  0.22260082571E+03  0.17329286202E+03 0.  0.
        -24    2    5    5    0    0  0.53357225069E+02  0.89066747512E+02  0.91517427221E+02  0.15913552488E+03  0.78541688376E+02 0.  0.
          5    1    3    3  501    0  0.24708166700E+02  0.38060313632E+02 -0.86163401784E+02  0.97495142353E+02  0.47000000000E+01 0. -1.
        -13    1    4    4    0    0 -0.30927997986E+02 -0.47184454890E+02 -0.37413791338E+02  0.67695683946E+02  0.00000000000E+00 0.  1.
         14    1    4    4    0    0 -0.61515870172E+02 -0.24095711680E+02 -0.17877906240E+03  0.19059579942E+03  0.00000000000E+00 0. -1.
         -5    1    5    5    0  502  0.14378476389E+02 -0.55846894574E+02  0.26079459215E+02  0.63465300833E+02  0.47000000000E+01 0.  1.
         11    1    6    6    0    0  0.58408402414E+02  0.27003681813E+02  0.27966012186E+02  0.70162939944E+02  0.00000000000E+00 0. -1.
        -12    1    6    6    0    0 -0.50511773450E+01  0.62063065699E+02  0.63551415036E+02  0.88972584933E+02  0.00000000000E+00 0.  1.
</event>
<event>
12    1  0.8563264E-002  0.2887238E+03  0.7818608E-02  0.1091036E+00
         21   -1    0    0  501  502  0.00000000000E+00  0.00000000000E+00  0.10005341001E+03  0.10005341001E+03  0.00000000000E+00 0.  1.
         21   -1    0    0  502  503 -0.00000000000E+00 -0.00000000000E+00 -0.10534382407E+04  0.10534382407E+04  0.00000000000E+00 0. -1.
         -6    2    1    2    0  503  0.21003342953E+03 -0.97398113036E+02 -0.74057094136E+03  0.79481188951E+03  0.17227938523E+03 0.  0.
        -24    2    3    3    0    0  0.16871421091E+03 -0.13643708858E+03 -0.60581480438E+03  0.64848135307E+03  0.80230442956E+02 0.  0.
          6    2    1    2  501    0 -0.21003342953E+03  0.97398113036E+02 -0.21281388937E+03  0.35867976125E+03  0.17251372605E+03 0.  0.
         24    2    5    5    0    0 -0.21780628206E+02  0.38899099453E+02 -0.57907639902E+02  0.10792233280E+03  0.79412841873E+02 0.  0.
          5    1    5    5  501    0 -0.18825280132E+03  0.58499013584E+02 -0.15490624947E+03  0.25075742845E+03  0.47000000000E+01 0. -1.
        -11    1    6    6    0    0 -0.37746456673E+02  0.53399210647E+02 -0.28208001402E+02  0.71217708698E+02  0.00000000000E+00 0.  1.
         12    1    6    6    0    0  0.15965828467E+02 -0.14500111195E+02 -0.29699638500E+02  0.36704624100E+02  0.00000000000E+00 0. -1.
         -5    1    3    3    0  503  0.41319218623E+02  0.39038975548E+02 -0.13475613698E+03  0.14633053644E+03  0.47000000000E+01 0.  1.
         13    1    4    4    0    0  0.51252633334E+02 -0.77092955185E+02 -0.33228398897E+03  0.34493884311E+03  0.00000000000E+00 0. -1.
        -14    1    4    4    0    0  0.11746157757E+03 -0.59344133400E+02 -0.27353081541E+03  0.30354250996E+03  0.00000000000E+00 0.  1.
</event>
<event>
12    1  0.8563264E-002  0.1865343E+03  0.7818608E-02  0.1161820E+00
         21   -1    0    0  501  502  0.00000000000E+00  0.00000000000E+00  0.15985830879E+03  0.15985830879E+03  0.00000000000E+00 0.  1.
         21   -1    0    0  502  503 -0.00000000000E+00 -0.00000000000E+00 -0.21908132354E+03  0.21908132354E+03  0.00000000000E+00 0.  1.
         -6    2    1    2    0  503  0.45733312478E+02  0.55868121060E+02 -0.49384757346E+02  0.19214609512E+03  0.17108034601E+03 0.  0.
        -24    2    3    3    0    0 -0.22633976941E+02  0.55954373440E+02  0.25844840519E+02  0.90383252702E+02  0.62112702149E+02 0.  0.
          6    2    1    2  501    0 -0.45733312478E+02 -0.55868121060E+02 -0.98382574045E+01  0.18679353720E+03  0.17199491682E+03 0.  0.
         24    2    5    5    0    0 -0.57876743018E+02 -0.26174243650E+02  0.53619666577E+02  0.11553213547E+03  0.80235885176E+02 0.  0.
          5    1    5    5  501    0  0.12143430540E+02 -0.29693877410E+02 -0.63457923981E+02  0.71261401733E+02  0.47000000000E+01 0. -1.
        -11    1    6    6    0    0 -0.66808480836E+02 -0.43683295680E+02  0.53097809467E+02  0.95869603125E+02  0.00000000000E+00 0.  1.
         12    1    6    6    0    0  0.89317378185E+01  0.17509052030E+02  0.52185711023E+00  0.19662532347E+02  0.00000000000E+00 0. -1.
         -5    1    3    3    0  503  0.68367289419E+02 -0.86252380212E-01 -0.75229597865E+02  0.10176284242E+03  0.47000000000E+01 0.  1.
         11    1    4    4    0    0 -0.40868423239E+02  0.19784331308E+02  0.19362467687E+02  0.49361451947E+02  0.00000000000E+00 0. -1.
        -12    1    4    4    0    0  0.18234446299E+02  0.36170042131E+02  0.64823728318E+01  0.41021800754E+02  0.00000000000E+00 0.  1.
</event>
<event>
12    1  0.8563264E-002  0.2404682E+03  0.7818608E-02  0.1119586E+00
         21   -1    0    0  501  502  0.00000000000E+00  0.00000000000E+00  0.91540555779E+02  0.91540555779E+02  0.00000000000E+00 0.  1.
         21   -1    0    0  502  503 -0.00000000000E+00 -0.00000000000E+00 -0.65328872787E+03  0.65328872787E+03  0.00000000000E+00 0. -1.
         -6    2    1    2    0  503  0.44754475947E+02 -0.16207121724E+03 -0.35150182639E+03  0.42588554957E+03  0.17191545830E+03 0.  0.
        -24    2    3    3    0    0  0.88574891239E+02 -0.15127317279E+03 -0.26074511918E+03  0.32441783813E+03  0.80807378133E+02 0.  0.
          6    2    1    2  501    0 -0.44754475947E+02  0.16207121724E+03 -0.21024634570E+03  0.31894373408E+03  0.17103080732E+03 0.  0.
         24    2    5    5    0    0 -0.26006139405E+02  0.63334225993E+02 -0.18819313697E+03  0.21594408563E+03  0.80793860214E+02 0.  0.
          5    1    5    5  501    0 -0.18748336542E+02  0.98736991250E+02 -0.22053208727E+02  0.10299964844E+03  0.47000000000E+01 0. -1.
        -11    1    6    6    0    0  0.34815494008E+01 -0.51444585699E+01  0.55625623516E+01  0.83383895401E+01  0.00000000000E+00 0.  1.
         12    1    6    6    0    0 -0.29487688806E+02  0.68478684563E+02 -0.19375569932E+03  0.20760569609E+03  0.00000000000E+00 0. -1.
         -5    1    3    3    0  503 -0.43820415291E+02 -0.10798044458E+02 -0.90756707215E+02  0.10146771144E+03  0.47000000000E+01 0.  1.
         11    1    4    4    0    0  0.11732274523E+02 -0.99380742648E+02 -0.14326569080E+03  0.17475478945E+03  0.00000000000E+00 0. -1.
        -12    1    4    4    0    0  0.76842616715E+02 -0.51892430137E+02 -0.11747942837E+03  0.14966304868E+03  0.00000000000E+00 0.  1.
</event>
<event>
12    1  0.8563264E-002  0.1886495E+03  0.7818608E-02  0.1160078E+00
         21   -1    0    0  501  502  0.00000000000E+00  0.00000000000E+00  0.20473169512E+03  0.20473169512E+03  0.00000000000E+00 0. -1.
         21   -1    0    0  502  503 -0.00000000000E+00 -0.00000000000E+00 -0.53005062784E+03  0.53005062784E+03  0.00000000000E+00 0. -1.
         -6    2    1    2    0  503 -0.25302437130E+02 -0.64496650941E+02 -0.46426547913E+03  0.50048596972E+03  0.17361952501E+03 0.  0.
        -24    2    3    3    0    0 -0.23746325808E+02 -0.50466590304E+02 -0.47335556163E+03  0.48305084185E+03  0.78497537318E+02 0.  0.
          6    2    1    2  501    0  0.25302437130E+02  0.64496650941E+02  0.13894654640E+03  0.23429635324E+03  0.17546682614E+03 0.  0.
         24    2    5    5    0    0 -0.11146422187E+02 -0.21340364585E+02  0.23434030826E+02  0.85764390905E+02  0.78909587874E+02 0.  0.
          5    1    5    5  501    0  0.36448859317E+02  0.85837015526E+02  0.11551251558E+03  0.14853196233E+03  0.47000000000E+01 0. -1.
        -13    1    6    6    0    0 -0.24265278741E+02  0.24477156079E+02  0.58169694835E+01  0.34953856097E+02  0.00000000000E+00 0.  1.
         14    1    6    6    0    0  0.13118856554E+02 -0.45817520664E+02  0.17617061343E+02  0.50810534808E+02  0.00000000000E+00 0. -1.
         -5    1    3    3    0  503 -0.15561113221E+01 -0.14030060637E+02  0.90900824963E+01  0.17435127866E+02  0.47000000000E+01 0.  1.
         11    1    4    4    0    0  0.19838927548E+02 -0.43043365154E+02 -0.31850758880E+03  0.32201459354E+03  0.00000000000E+00 0. -1.
        -12    1    4    4    0    0 -0.43585253356E+02 -0.74232251504E+01 -0.15484797283E+03  0.16103624831E+03  0.00000000000E+00 0.  1.
</event>
<event>
12    1  0.8563264E-002  0.1843995E+03  0.7818608E-02  0.1164722E+00
         21   -1    0    0  501  502  0.00000000000E+00  0.00000000000E+00  0.38715549253E+02  0.38715549253E+02  0.00000000000E+00 0. -1.
         21   -1    0    0  502  503 -0.00000000000E+00 -0.00000000000E+00 -0.94287220091E+03  0.94287220091E+03  0.00000000000E+00 0.  1.
         -6    2    1    2    0  503  0.12141497158E+02  0.60836724078E+02 -0.59562697105E+03  0.62215242341E+03  0.16868202736E+03 0.  0.
        -24    2    3    3    0    0  0.36729951450E+02  0.54455669027E+02 -0.19430537055E+03  0.22000017987E+03  0.79567536703E+02 0.  0.
          6    2    1    2  501    0 -0.12141497158E+02 -0.60836724078E+02 -0.30852968060E+03  0.35943532675E+03  0.17365099296E+03 0.  0.
         24    2    5    5    0    0  0.60540319558E+02 -0.43910499345E+02 -0.19177132952E+03  0.22078560223E+03  0.79854724838E+02 0.  0.
          5    1    5    5  501    0 -0.72681816715E+02 -0.16926224733E+02 -0.11675835108E+03  0.13864972453E+03  0.47000000000E+01 0. -1.
        -13    1    6    6    0    0 -0.89143117470E+01 -0.32094882688E+01 -0.92463147259E+02  0.92947293505E+02  0.00000000000E+00 0.  1.
         14    1    6    6    0    0  0.69454631305E+02 -0.40701011076E+02 -0.99308182263E+02  0.12783830872E+03  0.00000000000E+00 0. -1.
         -5    1    3    3    0  503 -0.24588454293E+02  0.63810550515E+01 -0.40132160051E+03  0.40215224354E+03  0.47000000000E+01 0.  1.
         13    1    4    4    0    0 -0.22598887211E+02 -0.44855737070E-01 -0.44196209940E+02  0.49638862681E+02  0.00000000000E+00 0. -1.
        -14    1    4    4    0    0  0.59328838661E+02  0.54500524764E+02 -0.15010916061E+03  0.17036131719E+03  0.00000000000E+00 0.  1.
</event>
<event>
12    1  0.8563264E-002  0.5207396E+03  0.7818608E-02  0.1008518E+00
         21   -1    0    0  503  502  0.00000000000E+00  0.00000000000E+00  0.52592510778E+03  0.52592510778E+03  0.00000000000E+00 0.  1.
         21   -1    0    0  501  503 -0.00000000000E+00 -0.00000000000E+00 -0.56674297342E+03  0.56674297342E+03  0.00000000000E+00 0. -1.
          6    2    1    2  501    0 -0.37932878551E+03 -0.31232797041E+03 -0.18490903674E+03  0.55236080358E+03  0.17167415895E+03 0.  0.
         24    2    3    3    0    0 -0.17836998909E+03 -0.18654452759E+03 -0.35901105197E+02  0.27230479846E+03  0.79033537980E+02 0.  0.
         -6    2    1    2    0  502  0.37932878551E+03  0.31232797041E+03  0.14409117110E+03  0.54030727761E+03  0.17242563626E+03 0.  0.
        -24    2    5    5    0    0  0.88648617451E+02  0.13763346940E+03  0.47330289316E+02  0.18760643125E+03  0.78450414169E+02 0.  0.
          5    1    3    3  501    0 -0.20095879642E+03 -0.12578344282E+03 -0.14900793154E+03  0.28005600513E+03  0.47000000000E+01 0. -1.
        -13    1    4    4    0    0 -0.50855064089E+02 -0.68600174360E+02  0.23773708894E+02  0.88642036869E+02  0.00000000000E+00 0.  1.
         14    1    4    4    0    0 -0.12751492500E+03 -0.11794435323E+03 -0.59674814090E+02  0.18366276159E+03  0.00000000000E+00 0. -1.
         -5    1    5    5    0  502  0.29068016806E+03  0.17469450101E+03  0.96760881784E+02  0.35270084637E+03  0.47000000000E+01 0.  1.
         11    1    6    6    0    0  0.60101401555E+02  0.13208062965E+03  0.17867218809E+02  0.14620775870E+03  0.00000000000E+00 0. -1.
        -12    1    6    6    0    0  0.28547215896E+02  0.55528397535E+01  0.29463070507E+02  0.41398672544E+02  0.00000000000E+00 0.  1.
</event>
<event>
12    1  0.8563264E-002  0.2608408E+03  0.7818608E-02  0.1108294E+00
         21   -1    0    0  501  502  0.00000000000E+00  0.00000000000E+00  0.33473444272E+03  0.33473444272E+03  0.00000000000E+00 0. -1.
         21   -1    0    0  502  503 -0.00000000000E+00 -0.00000000000E+00 -0.20315829710E+03  0.20315829710E+03  0.00000000000E+00 0. -1.
         -6    2    1    2    0  503 -0.19422871004E+03 -0.28448224172E+02  0.10304922446E+02  0.25023906501E+03  0.15485252651E+03 0.  0.
        -24    2    3    3    0    0 -0.18742609837E+03  0.13865333262E+02  0.22546079305E+02  0.20542111560E+03  0.79804255682E+02 0.  0.
          6    2    1    2  501    0  0.19422871004E+03  0.28448224172E+02  0.12127122317E+03  0.28765367481E+03  0.17176680063E+03 0.  0.
         24    2    5    5    0    0  0.30738903957E+02  0.14676216297E+02  0.13161939879E+02  0.91112859640E+02  0.83474816496E+02 0.  0.
          5    1    5    5  501    0  0.16348980608E+03  0.13772007875E+02  0.10810928329E+03  0.19654081517E+03  0.47000000000E+01 0. -1.
        -13    1    6    6    0    0  0.21672554135E+02  0.46444231324E+02 -0.80103793331E+01  0.51874197855E+02  0.00000000000E+00 0.  1.
         14    1    6    6    0    0  0.90663498218E+01 -0.31768015027E+02  0.21172319213E+02  0.39238661785E+02  0.00000000000E+00 0. -1.
         -5    1    3    3    0  503 -0.68026116728E+01 -0.42313557433E+02 -0.12241156859E+02  0.44817949412E+02  0.47000000000E+01 0.  1.
         11    1    4    4    0    0 -0.78233962634E+02 -0.49812399176E+01 -0.28512546923E+02  0.83416611011E+02  0.00000000000E+00 0. -1.
        -12    1    4    4    0    0 -0.10919213573E+03  0.18846573179E+02  0.51058626228E+02  0.12200450459E+03  0.00000000000E+00 0.  1.
</event>
<event>
12    1  0.8563264E-002  0.1766971E+03  0.7818608E-02  0.1171164E+00
         21   -1    0    0  503  502  0.00000000000E+00  0.00000000000E+00  0.16120189109E+04  0.16120189109E+04  0.00000000000E+00 0.  1.
         21   -1    0    0  501  503 -0.00000000000E+00 -0.00000000000E+00 -0.18388946048E+03  0.18388946048E+03  0.00000000000E+00 0.  1.
          6    2    1    2  501    0 -0.28723962658E+02  0.28753612981E+02 -0.13532099417E+03  0.22256152874E+03  0.17195937405E+03 0.  0.
         24    2    3    3    0    0 -0.80034020234E+02 -0.80440663891E+01 -0.76520210286E+02  0.13615311827E+03  0.78817368856E+02 0.  0.
         -6    2    1    2    0  502  0.28723962658E+02 -0.28753612981E+02  0.15634504445E+04  0.15733468426E+04  0.17143849698E+03 0.  0.
        -24    2    5    5    0    0 -0.47385212729E+02 -0.34942112894E+02  0.92338067491E+03  0.92872113405E+03  0.80154628029E+02 0.  0.
          5    1    3    3  501    0  0.51310057575E+02  0.36797679370E+02 -0.58800783880E+02  0.86408410473E+02  0.47000000000E+01 0. -1.
        -13    1    4    4    0    0 -0.50249119317E+02 -0.88455570197E+01 -0.89995118853E+02  0.10345211109E+03  0.00000000000E+00 0.  1.
         14    1    4    4    0    0 -0.29784900917E+02  0.80149063062E+00  0.13474908566E+02  0.32701007182E+02  0.00000000000E+00 0. -1.
         -5    1    5    5    0  502  0.76109175387E+02  0.61884999122E+01  0.64006976964E+03  0.64462570854E+03  0.47000000000E+01 0.  1.
         11    1    6    6    0    0  0.20629456657E+02 -0.98515228501E+01  0.35508825730E+03  0.35582340768E+03  0.00000000000E+00 0. -1.
        -12    1    6    6    0    0 -0.68014669386E+02 -0.25090590043E+02  0.56829241761E+03  0.57289772637E+03  0.00000000000E+00 0.  1.
</event>
<event>
12    1  0.8563264E-002  0.2102623E+03  0.7818608E-02  0.1141723E+00
         21   -1    0    0  501  502  0.00000000000E+00  0.00000000000E+00  0.11928929846E+04  0.11928929846E+04  0.00000000000E+00 0.  1.
         21   -1    0    0  502  503 -0.00000000000E+00 -0.00000000000E+00 -0.39233659976E+02  0.39233659976E+02  0.00000000000E+00 0. -1.
         -6    2    1    2    0  503  0.75661166788E+02  0.89619672790E+02  0.73454429741E+03  0.76404553232E+03  0.17451060907E+03 0.  0.
        -24    2    3    3    0    0  0.61912598607E+02 -0.27471382552E+01  0.22168807215E+03  0.24273540514E+03  0.77033492314E+02 0.  0.
          6    2    1    2  501    0 -0.75661166788E+02 -0.89619672790E+02  0.41911502723E+03  0.46808111228E+03  0.17229690569E+03 0.  0.
         24    2    5    5    0    0 -0.83726889775E+02 -0.32798986072E+00  0.18674680558E+03  0.21897241921E+03  0.77873303087E+02 0.  0.
          5    1    5    5  501    0  0.80657229870E+01 -0.89291682929E+02  0.23236822165E+03  0.24910869306E+03  0.47000000000E+01 0. -1.
        -11    1    6    6    0    0 -0.29846196446E+02 -0.40697044505E+01  0.15152977223E+03  0.15449475657E+03  0.00000000000E+00 0.  1.
         12    1    6    6    0    0 -0.53880693329E+02  0.37417145898E+01  0.35217033349E+02  0.64477662640E+02  0.00000000000E+00 0. -1.
         -5    1    3    3    0  503  0.13748568181E+02  0.92366811045E+02  0.51285622526E+03  0.52131012718E+03  0.47000000000E+01 0.  1.
         13    1    4    4    0    0  0.44355744030E+02 -0.38690811509E+02  0.13333280896E+03  0.14574652267E+03  0.00000000000E+00 0. -1.
        -14    1    4    4    0    0  0.17556854577E+02  0.35943673254E+02  0.88355263190E+02  0.96988882471E+02  0.00000000000E+00 0.  1.
</event>
<event>
12    1  0.8563264E-002  0.1929361E+03  0.7818608E-02  0.1156389E+00
         21   -1    0    0  503  502  0.00000000000E+00  0.00000000000E+00  0.15877669415E+04  0.15877669415E+04  0.00000000000E+00 0.  1.
         21   -1    0    0  501  503 -0.00000000000E+00 -0.00000000000E+00 -0.14012109566E+03  0.14012109566E+03  0.00000000000E+00 0.  1.
          6    2    1    2  501    0 -0.41144015716E+02  0.75912713785E+02 -0.66316578814E+02  0.20168144868E+03  0.16977028001E+03 0.  0.
         24    2    3    3    0    0 -0.47384779215E+02  0.12934053098E+02  0.17061411043E+02  0.96899589453E+02  0.81766934995E+02 0.  0.
         -6    2    1    2    0  502  0.41144015716E+02 -0.75912713785E+02  0.15139624246E+04  0.15262065884E+04  0.17253624923E+03 0.  0.
        -24    2    5    5    0    0  0.90819527554E+02 -0.61861156516E+02  0.12424961549E+04  0.12498352289E+04  0.78844247564E+02 0.  0.
          5    1    3    3  501    0  0.62407634987E+01  0.62978660687E+02 -0.83377989857E+02  0.10478185923E+03  0.47000000000E+01 0. -1.
        -13    1    4    4    0    0 -0.15347246533E+02  0.75873351637E+01 -0.33027599277E+02  0.37201182038E+02  0.00000000000E+00 0.  1.
         14    1    4    4    0    0 -0.32037532681E+02  0.53467179347E+01  0.50089010320E+02  0.59698407414E+02  0.00000000000E+00 0. -1.
         -5    1    5    5    0  502 -0.49675511838E+02 -0.14051557269E+02  0.27146626975E+03  0.27637135950E+03  0.47000000000E+01 0.  1.
         13    1    6    6    0    0  0.29297724970E+02  0.15021536099E+02  0.19919287359E+03  0.20189552775E+03  0.00000000000E+00 0. -1.
        -14    1    6    6    0    0  0.61521802584E+02 -0.76882692615E+02  0.10433032813E+04  0.10479397012E+04  0.00000000000E+00 0.  1.
</event>
<event>
12    1  0.8563264E-002  0.1950170E+03  0.7818608E-02  0.1158313E+00
         21   -1    0    0  503  502  0.00000000000E+00  0.00000000000E+00  0.88998169887E+03  0.88998169887E+03  0.00000000000E+00 0. -1.
         21   -1    0    0  501  503 -0.00000000000E+00 -0.00000000000E+00 -0.42404386035E+02  0.42404386035E+02  0.00000000000E+00 0. -1.
          6    2    1    2  501    0  0.35615298850E+02  0.20627969340E+02  0.26730444478E+03  0.32021923955E+03  0.17144892110E+03 0.  0.
         24    2    3    3    0    0  0.52135187801E+02 -0.43915649585E+02  0.12666734073E+03  0.16452829405E+03  0.79864148717E+02 0.  0.
         -6    2    1    2    0  502 -0.35615298850E+02 -0.20627969340E+02  0.58027286805E+03  0.61216684535E+03  0.19062445415E+03 0.  0.
        -24    2    5    5    0    0  0.37830805951E+02  0.34519036174E+02  0.21112235010E+03  0.23173325400E+03  0.80653087718E+02 0.  0.
          5    1    3    3  501    0 -0.16519888951E+02  0.64543618925E+02  0.14063710405E+03  0.15569094550E+03  0.47000000000E+01 0. -1.
        -11    1    4    4    0    0  0.38054280093E+02 -0.29162877213E+02  0.13441709279E+03  0.14271144480E+03  0.00000000000E+00 0.  1.
         12    1    4    4    0    0  0.14080907708E+02 -0.14752772372E+02 -0.77497520603E+01  0.21816849257E+02  0.00000000000E+00 0. -1.
         -5    1    5    5    0  502 -0.73446104801E+02 -0.55147005514E+02  0.36915051795E+03  0.38043359135E+03  0.47000000000E+01 0.  1.
         11    1    6    6    0    0  0.28032629706E+02 -0.18468062382E+02  0.13059203655E+03  0.13483759737E+03  0.00000000000E+00 0. -1.
        -12    1    6    6    0    0  0.97981762450E+01  0.52987098556E+02  0.80530313557E+02  0.96895656625E+02  0.00000000000E+00 0.  1.
</event>
<event>
12    1  0.8563264E-002  0.3841103E+03  0.7818608E-02  0.1049486E+00
         21   -1    0    0  501  502  0.00000000000E+00  0.00000000000E+00  0.43909408525E+03  0.43909408525E+03  0.00000000000E+00 0.  1.
         21   -1    0    0  502  503 -0.00000000000E+00 -0.00000000000E+00 -0.33545710887E+03  0.33545710887E+03  0.00000000000E+00 0. -1.
         -6    2    1    2    0  503 -0.39718804502E+02  0.34061430000E+03  0.55293796269E+02  0.38806973455E+03  0.17304632377E+03 0.  0.
        -24    2    3    3    0    0 -0.27627457890E+02  0.33341232682E+03  0.14545973566E+02  0.34470449345E+03  0.81746843082E+02 0.  0.
          6    2    1    2  501    0  0.39718804502E+02 -0.34061430000E+03  0.48343180117E+02  0.38648145957E+03  0.17156681127E+03 0.  0.
         24    2    5    5    0    0 -0.30193628695E+02 -0.12116438682E+03 -0.46558747675E+01  0.15009829068E+03  0.83158618619E+02 0.  0.
          5    1    5    5  501    0  0.69912433197E+02 -0.21944991319E+03  0.52999054885E+02  0.23638316888E+03  0.47000000000E+01 0. -1.
        -13    1    6    6    0    0 -0.34605700830E+02 -0.84975490821E+02 -0.39292374306E+02  0.99811218051E+02  0.00000000000E+00 0.  1.
         14    1    6    6    0    0  0.44120721352E+01 -0.36188895994E+02  0.34636499538E+02  0.50287072634E+02  0.00000000000E+00 0. -1.
         -5    1    3    3    0  503 -0.12091346612E+02  0.72019731812E+01  0.40747822702E+02  0.43365241099E+02  0.47000000000E+01 0.  1.
         11    1    4    4    0    0 -0.19563543271E+02  0.35425811434E+02  0.22886813556E+02  0.46492220595E+02  0.00000000000E+00 0. -1.
        -12    1    4    4    0    0 -0.80639146195E+01  0.29798651538E+03 -0.83408399901E+01  0.29821227286E+03  0.00000000000E+00 0.  1.
</event>
<event>
12    1  0.8563264E-002  0.1837921E+03  0.7818608E-02  0.1164216E+00
         21   -1    0    0  503  502  0.00000000000E+00  0.00000000000E+00  0.12561208577E+03  0.12561208577E+03  0.00000000000E+00 0.  1.
         21   -1    0    0  501  503 -0.00000000000E+00 -0.00000000000E+00 -0.32783681058E+03  0.32783681058E+03  0.00000000000E+00 0.  1.
          6    2    1    2  501    0  0.11383078979E+01  0.66153118095E+02 -0.19736253262E+03  0.26959251441E+03  0.17132023746E+03 0.  0.
         24    2    3    3    0    0  0.61469466094E+02  0.23443067198E+02 -0.15114084018E+03  0.18228540158E+03  0.77822499317E+02 0.  0.
         -6    2    1    2    0  502 -0.11383078979E+01 -0.66153118095E+02 -0.48621921861E+01  0.18385638194E+03  0.17147010669E+03 0.  0.
        -24    2    5    5    0    0  0.57572844830E+02 -0.27383700822E+02  0.22327986100E+02  0.10828216037E+03  0.84628528045E+02 0.  0.
          5    1    3    3  501    0 -0.60331158196E+02  0.42710050897E+02 -0.46221692448E+02  0.87307112824E+02  0.47000000000E+01 0. -1.
        -11    1    4    4    0    0  0.44892282616E+02  0.44617122057E+01 -0.21062020222E+02  0.49787876136E+02  0.00000000000E+00 0.  1.
         12    1    4    4    0    0  0.16577183478E+02  0.18981354992E+02 -0.13007881995E+03  0.13249752545E+03  0.00000000000E+00 0. -1.
         -5    1    5    5    0  502 -0.58711152728E+02 -0.38769417273E+02 -0.27190178286E+02  0.75574221567E+02  0.47000000000E+01 0.  1.
         13    1    6    6    0    0  0.44625807097E+02  0.13509303501E+02 -0.17448836727E+02  0.49783790969E+02  0.00000000000E+00 0. -1.
        -14    1    6    6    0    0  0.12947037733E+02 -0.40893004323E+02  0.39776822827E+02  0.58498369403E+02  0.00000000000E+00 0.  1.
</event>
<event>
12    1  0.8563264E-002  0.2002249E+03  0.7818608E-02  0.1150113E+00
         21   -1    0    0  501  502  0.00000000000E+00  0.00000000000E+00  0.17725355606E+03  0.17725355606E+03  0.00000000000E+00 0.  1.
         21   -1    0    0  502  503 -0.00000000000E+00 -0.00000000000E+00 -0.40068356736E+03  0.40068356736E+03  0.00000000000E+00 0.  1.
         -6    2    1    2    0  503  0.83947432457E+02  0.54796637402E+02 -0.30445883076E+03  0.36439700182E+03  0.17332095205E+03 0.  0.
        -24    2    3    3    0    0 -0.15052136367E+02  0.41755553375E+02 -0.86506535381E+02  0.12461318760E+03  0.77942111940E+02 0.  0.
          6    2    1    2  501    0 -0.83947432457E+02 -0.54796637402E+02  0.81028819455E+02  0.21354012160E+03  0.17024650088E+03 0.  0.
         24    2    5    5    0    0 -0.12393215905E+03 -0.37183110195E+02  0.48812491320E+02  0.15905162281E+03  0.78568414014E+02 0.  0.
          5    1    5    5  501    0  0.39984726590E+02 -0.17613527207E+02  0.32216328135E+02  0.54488498783E+02  0.47000000000E+01 0. -1.
        -13    1    6    6    0    0 -0.19140956063E+02 -0.45748744469E+01 -0.21158538745E+02  0.28896183780E+02  0.00000000000E+00 0.  1.
         14    1    6    6    0    0 -0.10479120298E+03 -0.32608235748E+02  0.69971030066E+02  0.13015543903E+03  0.00000000000E+00 0. -1.
         -5    1    3    3    0  503  0.98999568824E+02  0.13041084026E+02 -0.21795229538E+03  0.23978381422E+03  0.47000000000E+01 0.  1.
         11    1    4    4    0    0 -0.95636067932E+01  0.41795453944E+02 -0.10067175548E+03  0.10942177524E+03  0.00000000000E+00 0. -1.
        -12    1    4    4    0    0 -0.54885295733E+01 -0.39900568814E-01  0.14165220102E+02  0.15191412359E+02  0.00000000000E+00 0.  1.
</event>
<event>
12    1  0.8563264E-002  0.1729759E+03  0.7818608E-02  0.1174928E+00
         21   -1    0    0  503  502  0.00000000000E+00  0.00000000000E+00  0.34889692249E+03  0.34889692249E+03  0.00000000000E+00 0.  1.
         21   -1    0    0  501  503 -0.00000000000E+00 -0.00000000000E+00 -0.14045984336E+03  0.14045984336E+03  0.00000000000E+00 0.  1.
          6    2    1    2  501    0 -0.35096915321E+01  0.16586050058E+02  0.25720679554E+03  0.30963711894E+03  0.17155872105E+03 0.  0.
         24    2    3    3    0    0 -0.16078404707E+02 -0.54737301952E+02  0.14361299584E+03  0.17483862332E+03  0.81787311413E+02 0.  0.
         -6    2    1    2    0  502  0.35096915321E+01 -0.16586050058E+02 -0.48769716410E+02  0.17971964690E+03  0.17214311271E+03 0.  0.
        -24    2    5    5    0    0  0.43197512272E+02 -0.35725864537E+02  0.18224692070E+02  0.99396571880E+02  0.80032347442E+02 0.  0.
          5    1    3    3  501    0  0.12568713175E+02  0.71323352010E+02  0.11359379970E+03  0.13479849562E+03  0.47000000000E+01 0. -1.
        -13    1    4    4    0    0  0.12658227920E+02 -0.17752926606E+02  0.12078158589E+03  0.12273381208E+03  0.00000000000E+00 0.  1.
         14    1    4    4    0    0 -0.28736632627E+02 -0.36984375346E+02  0.22831409949E+02  0.52104811244E+02  0.00000000000E+00 0. -1.
         -5    1    5    5    0  502 -0.39687820740E+02  0.19139814479E+02 -0.66994408480E+02  0.80323075022E+02  0.47000000000E+01 0.  1.
         11    1    6    6    0    0  0.20321007902E+02 -0.57634337675E+02 -0.31354285784E+01  0.61192247497E+02  0.00000000000E+00 0. -1.
        -12    1    6    6    0    0  0.22876504371E+02  0.21908473138E+02  0.21360120649E+02  0.38204324383E+02  0.00000000000E+00 0.  1.
</event>
<event>
12    1  0.8563264E-002  0.2177771E+03  0.7818608E-02  0.1135796E+00
         21   -1    0    0  501  502  0.00000000000E+00  0.00000000000E+00  0.45775609298E+03  0.45775609298E+03  0.00000000000E+00 0. -1.
         21   -1    0    0  502  503 -0.00000000000E+00 -0.00000000000E+00 -0.18848166291E+03  0.18848166291E+03  0.00000000000E+00 0. -1.
         -6    2    1    2    0  503  0.13191935386E+03  0.36166339863E+01 -0.82753190635E+02  0.23296990083E+03  0.17323708659E+03 0.  0.
        -24    2    3    3    0    0  0.12501626257E+03  0.59575835688E+02 -0.52129171100E+02  0.16863479769E+03  0.80882002977E+02 0.  0.
          6    2    1    2  501    0 -0.13191935386E+03 -0.36166339863E+01  0.35202762071E+03  0.41326785505E+03  0.17161316474E+03 0.  0.
         24    2    5    5    0    0 -0.35533596312E+02 -0.61895343382E+02  0.15546013643E+03  0.18666801370E+03  0.74722308042E+02 0.  0.
          5    1    5    5  501    0 -0.96385757551E+02  0.58278709395E+02  0.19656748428E+03  0.22659984136E+03  0.47000000000E+01 0. -1.
        -11    1    6    6    0    0  0.17885112674E+02 -0.28510910645E+02  0.25431098289E+02  0.42184002197E+02  0.00000000000E+00 0.  1.
         12    1    6    6    0    0 -0.53418708986E+02 -0.33384432736E+02  0.13002903814E+03  0.14448401150E+03  0.00000000000E+00 0. -1.
         -5    1    3    3    0  503  0.69030912876E+01 -0.55959201701E+02 -0.30624019534E+02  0.64335103146E+02  0.47000000000E+01 0.  1.
         11    1    4    4    0    0  0.71690983474E+02  0.45577987282E+02 -0.70632908364E+02  0.11048057648E+03  0.00000000000E+00 0. -1.
        -12    1    4    4    0    0  0.53325279100E+02  0.13997848405E+02  0.18503737264E+02  0.58154221204E+02  0.00000000000E+00 0.  1.
</event>
<event>
12    1  0.8563264E-002  0.1798068E+03  0.7818608E-02  0.1169023E+00
         21   -1    0    0  501  502  0.00000000000E+00  0.00000000000E+00  0.69074659914E+02  0.69074659914E+02  0.00000000000E+00 0. -1.
         21   -1    0    0  502  503 -0.00000000000E+00 -0.00000000000E+00 -0.59760997427E+03  0.59760997427E+03  0.00000000000E+00 0. -1.
         -6    2    1    2    0  503  0.24559955044E+02  0.30092724152E+02 -0.42825525507E+03  0.46447070722E+03  0.17556113161E+03 0.  0.
        -24    2    3    3    0    0  0.31529002347E+02  0.50579873758E+02 -0.12414281366E+03  0.15955308238E+03  0.80581302386E+02 0.  0.
          6    2    1    2  501    0 -0.24559955044E+02 -0.30092724152E+02 -0.10028005929E+03  0.20221392697E+03  0.17124724386E+03 0.  0.
         24    2    5    5    0    0  0.53117299262E+00  0.28167057607E+02 -0.56242672851E+01  0.88171935418E+02  0.83360617403E+02 0.  0.
          5    1    5    5  501    0 -0.25091128037E+02 -0.58259781759E+02 -0.94655792004E+02  0.11404199155E+03  0.47000000000E+01 0. -1.
        -13    1    6    6    0    0  0.23957769536E+00  0.45030481135E+02 -0.33131208284E+02  0.55905979922E+02  0.00000000000E+00 0.  1.
         14    1    6    6    0    0  0.29159529727E+00 -0.16863423528E+02  0.27506940999E+02  0.32265955495E+02  0.00000000000E+00 0. -1.
         -5    1    3    3    0  503 -0.69690473024E+01 -0.20487149606E+02 -0.30411244140E+03  0.30491762484E+03  0.47000000000E+01 0.  1.
         11    1    4    4    0    0  0.58590307704E+02  0.36205005742E+02 -0.94355525294E+02  0.11681862759E+03  0.00000000000E+00 0. -1.
        -12    1    4    4    0    0 -0.27061305357E+02  0.14374868016E+02 -0.29787288369E+02  0.42734454793E+02  0.00000000000E+00 0.  1.
</event>
<event>
12    1  0.8563264E-002  0.2565008E+03  0.7818608E-02  0.1109269E+00
         21   -1    0    0  503  502  0.00000000000E+00  0.00000000000E+00  0.99851272502E+02  0.99851272502E+02  0.00000000000E+00 0. -1.
         21   -1    0    0  501  503 -0.00000000000E+00 -0.00000000000E+00 -0.80269896696E+03  0.80269896696E+03  0.00000000000E+00 0.  1.
          6    2    1    2  501    0 -0.15054195157E+03 -0.11613090622E+03 -0.54245891239E+03  0.60003207824E+03  0.17212657182E+03 0.  0.
         24    2    3    3    0    0 -0.12644899484E+03 -0.78713323425E+02 -0.22845943999E+03  0.28285972016E+03  0.75038456711E+02 0.  0.
         -6    2    1    2    0  502  0.15054195157E+03  0.11613090622E+03 -0.16038878207E+03  0.30251816122E+03  0.17217261657E+03 0.  0.
        -24    2    5    5    0    0  0.38187613582E+02  0.11077357012E+03 -0.68519394199E+02  0.15721065026E+03  0.79317107269E+02 0.  0.
          5    1    3    3  501    0 -0.24092956726E+02 -0.37417582793E+02 -0.31399947240E+03  0.31717235809E+03  0.47000000000E+01 0. -1.
        -11    1    4    4    0    0 -0.28731490873E+02 -0.48382074007E+02 -0.12632584187E+03  0.13829151087E+03  0.00000000000E+00 0.  1.
         12    1    4    4    0    0 -0.97717503967E+02 -0.30331249418E+02 -0.10213359812E+03  0.14456820929E+03  0.00000000000E+00 0. -1.
         -5    1    5    5    0  502  0.11235433798E+03  0.53573360954E+01 -0.91869387869E+02  0.14530751096E+03  0.47000000000E+01 0.  1.
         11    1    6    6    0    0  0.22964587042E+02  0.45116286117E+02  0.12178613994E+02  0.52068898297E+02  0.00000000000E+00 0. -1.
        -12    1    6    6    0    0  0.15223026540E+02  0.65657284005E+02 -0.80698008193E+02  0.10514175197E+03  0.00000000000E+00 0.  1.
</event>
<event>
12    1  0.8563264E-002  0.1801386E+03  0.7818608E-02  0.1167788E+00
         21   -1    0    0  501  502  0.00000000000E+00  0.00000000000E+00  0.39132304073E+02  0.39132304073E+02  0.00000000000E+00 0. -1.
         21   -1    0    0  502  503 -0.00000000000E+00 -0.00000000000E+00 -0.82950791342E+03  0.82950791342E+03  0.00000000000E+00 0. -1.
         -6    2    1    2    0  503  0.47984860449E+02 -0.19088484269E+02 -0.41971660099E+03  0.45674056168E+03  0.17257751441E+03 0.  0.
        -24    2    3    3    0    0  0.27494866732E+02  0.56419087514E+02 -0.21097378857E+03  0.23376772707E+03  0.78729471130E+02 0.  0.
          6    2    1    2  501    0 -0.47984860449E+02  0.19088484269E+02 -0.37065900836E+03  0.41189965580E+03  0.17206483927E+03 0.  0.
         24    2    5    5    0    0 -0.39668820779E+00 -0.51290694421E+02 -0.22028457107E+03  0.23912111455E+03  0.77606201263E+02 0.  0.
          5    1    5    5  501    0 -0.47588172241E+02  0.70379178690E+02 -0.15037443728E+03  0.17277854126E+03  0.47000000000E+01 0. -1.
        -11    1    6    6    0    0  0.22319198277E+02  0.12195802199E+02 -0.54198780023E+02  0.59869791707E+02  0.00000000000E+00 0.  1.
         12    1    6    6    0    0 -0.22715886485E+02 -0.63486496620E+02 -0.16608579105E+03  0.17925132284E+03  0.00000000000E+00 0. -1.
         -5    1    3    3    0  503  0.20489993717E+02 -0.75507571784E+02 -0.20874281242E+03  0.22297283461E+03  0.47000000000E+01 0.  1.
         13    1    4    4    0    0  0.52083936287E+02  0.18613607330E+02 -0.12476209334E+03  0.13647264463E+03  0.00000000000E+00 0. -1.
        -14    1    4    4    0    0 -0.24589069555E+02  0.37805480184E+02 -0.86211695228E+02  0.97295082443E+02  0.00000000000E+00 0.  1.
</event>
<event>
12    1  0.8563264E-002  0.1775157E+03  0.7818608E-02  0.1170743E+00
         21   -1    0    0  503  502  0.00000000000E+00  0.00000000000E+00  0.24683088264E+04  0.24683088264E+04  0.00000000000E+00 0.  1.
         21   -1    0    0  501  503 -0.00000000000E+00 -0.00000000000E+00 -0.21765905652E+02  0.21765905652E+02  0.00000000000E+00 0.  1.
          6    2    1    2  501    0 -0.33615661308E+02 -0.74892514837E+01  0.41196844990E+03  0.44777086199E+03  0.17203092618E+03 0.  0.
         24    2    3    3    0    0 -0.52043816455E+02 -0.41607955918E+02  0.38878200989E+03  0.40234637636E+03  0.79318185362E+02 0.  0.
         -6    2    1    2    0  502  0.33615661308E+02  0.74892514837E+01  0.20345744708E+04  0.20423038701E+04  0.17414281114E+03 0.  0.
        -24    2    5    5    0    0 -0.20878158794E+01  0.65188494536E+02  0.12625299883E+04  0.12672692166E+04  0.87951107767E+02 0.  0.
          5    1    3    3  501    0  0.18428155146E+02  0.34118704434E+02  0.23186440010E+02  0.45424485630E+02  0.47000000000E+01 0. -1.
        -11    1    4    4    0    0 -0.44196915563E+02 -0.56725835974E+02  0.19534077100E+03  0.20815668288E+03  0.00000000000E+00 0.  1.
         12    1    4    4    0    0 -0.78469008918E+01  0.15117880056E+02  0.19344123889E+03  0.19418969348E+03  0.00000000000E+00 0. -1.
         -5    1    5    5    0  502  0.35703477188E+02 -0.57699243052E+02  0.77204448259E+03  0.77503465344E+03  0.47000000000E+01 0.  1.
         13    1    6    6    0    0  0.42516373560E+01  0.18193028177E+02  0.43816487872E+02  0.47633468317E+02  0.00000000000E+00 0. -1.
        -14    1    6    6    0    0 -0.63394532354E+01  0.46995466359E+02  0.12187135004E+04  0.12196357483E+04  0.00000000000E+00 0.  1.
</event>
<event>
12    1  0.8563264E-002  0.1925460E+03  0.7818608E-02  0.1159117E+00
         21   -1    0    0  503  502  0.00000000000E+00  0.00000000000E+00  0.27627795109E+02  0.27627795109E+02  0.00000000000E+00 0. -1.
         21   -1    0    0  501  503 -0.00000000000E+00 -0.00000000000E+00 -0.13759512502E+04  0.13759512502E+04  0.00000000000E+00 0.  1.
          6    2    1    2  501    0  0.48389650569E+02  0.70765922308E+02 -0.86150768480E+03  0.88006824615E+03  0.15803560633E+03 0.  0.
         24    2    3    3    0    0  0.30196214537E+02  0.51183479826E+02 -0.24317800053E+03  0.26114324131E+03  0.74355178433E+02 0.  0.
         -6    2    1    2    0  502 -0.48389650569E+02 -0.70765922308E+02 -0.48681577025E+03  0.52351079912E+03  0.17240820337E+03 0.  0.
        -24    2    5    5    0    0 -0.44803651140E+02 -0.33425044397E+01 -0.10821069243E+03  0.13890363379E+03  0.74606474474E+02 0.  0.
          5    1    3    3  501    0  0.18193436032E+02  0.19582442482E+02 -0.61832968427E+03  0.61892500484E+03  0.47000000000E+01 0. -1.
        -11    1    4    4    0    0  0.22381614525E+01  0.67384247869E+01 -0.17473568105E+03  0.17487988440E+03  0.00000000000E+00 0.  1.
         12    1    4    4    0    0  0.27958053084E+02  0.44445055039E+02 -0.68442319486E+02  0.86263356915E+02  0.00000000000E+00 0. -1.
         -5    1    5    5    0  502 -0.35859994289E+01 -0.67423417868E+02 -0.37860507782E+03  0.38460716532E+03  0.47000000000E+01 0.  1.
         13    1    6    6    0    0 -0.53235608455E+02 -0.14292203451E+02 -0.37054681444E+02  0.66417968231E+02  0.00000000000E+00 0. -1.
        -14    1    6    6    0    0  0.84319573151E+01  0.10949699011E+02 -0.71156010984E+02  0.72485665560E+02  0.00000000000E+00 0.  1.
</event>
<event>
12    1  0.8563264E-002  0.1764831E+03  0.7818608E-02  0.1172863E+00
         21   -1    0    0  501  502  0.00000000000E+00  0.00000000000E+00  0.40293315654E+03  0.40293315654E+03  0.00000000000E+00 0.  1.
         21   -1    0    0  502  503 -0.00000000000E+00 -0.00000000000E+00 -0.81858773582E+02  0.81858773582E+02  0.00000000000E+00 0. -1.
         -6    2    1    2    0  503  0.36836525261E+02 -0.31878174462E+01  0.23034264326E+03  0.28635168020E+03  0.16604956994E+03 0.  0.
        -24    2    3    3    0    0  0.48635687108E+02 -0.46496851669E+02  0.87163445184E+02  0.13622751351E+03  0.80206495896E+02 0.  0.
          6    2    1    2  501    0 -0.36836525261E+02  0.31878174462E+01  0.90731739704E+02  0.19844024992E+03  0.17256648697E+03 0.  0.
         24    2    5    5    0    0  0.44726046121E+02  0.15044490513E+02  0.45852419847E+02  0.10447601685E+03  0.81154407114E+02 0.  0.
          5    1    5    5  501    0 -0.81562571381E+02 -0.11856673067E+02  0.44879319857E+02  0.93964233075E+02  0.47000000000E+01 0. -1.
        -11    1    6    6    0    0  0.50130246878E+02  0.12356591253E+02 -0.62657761317E+01  0.52009489038E+02  0.00000000000E+00 0.  1.
         12    1    6    6    0    0 -0.54042007576E+01  0.26878992599E+01  0.52118195979E+02  0.52466527809E+02  0.00000000000E+00 0. -1.
         -5    1    3    3    0  503 -0.11799161847E+02  0.43309034222E+02  0.14317919807E+03  0.15012416670E+03  0.47000000000E+01 0.  1.
         13    1    4    4    0    0 -0.21054485525E+02 -0.19591057472E+01  0.11193388556E+02  0.23925329745E+02  0.00000000000E+00 0. -1.
        -14    1    4    4    0    0  0.69690172632E+02 -0.44537745921E+02  0.75970056628E+02  0.11230218376E+03  0.00000000000E+00 0.  1.
</event>
<event>
12    1  0.8563264E-002  0.1735702E+03  0.7818608E-02  0.1175155E+00
         21   -1    0    0  503  502  0.00000000000E+00  0.00000000000E+00  0.11376704436E+04  0.11376704436E+04  0.00000000000E+00 0.  1.
         21   -1    0    0  501  503 -0.00000000000E+00 -0.00000000000E+00 -0.26751922660E+02  0.26751922660E+02  0.00000000000E+00 0.  1.
          6    2    1    2  501    0  0.41372913515E+02 -0.11178050166E+02  0.45765271757E+03  0.48946157559E+03  0.16819618695E+03 0.  0.
         24    2    3    3    0    0  0.62784821803E+02 -0.55143209936E+02  0.38590329361E+03  0.40250483388E+03  0.78141421973E+02 0.  0.
         -6    2    1    2    0  502 -0.41372913515E+02  0.11178050166E+02  0.65326580338E+03  0.67496079068E+03  0.16425343926E+03 0.  0.
        -24    2    5    5    0    0 -0.16719688906E+02  0.64781090523E+02  0.32025211305E+03  0.33672821483E+03  0.79676452370E+02 0.  0.
          5    1    3    3  501    0 -0.21411908287E+02  0.43965159771E+02  0.71749423958E+02  0.86956741708E+02  0.47000000000E+01 0. -1.
        -11    1    4    4    0    0  0.49390868275E+02  0.55442378446E+01  0.13036645906E+03  0.13951921047E+03  0.00000000000E+00 0.  1.
         12    1    4    4    0    0  0.13393953527E+02 -0.60687447781E+02  0.25553683455E+03  0.26298562341E+03  0.00000000000E+00 0. -1.
         -5    1    5    5    0  502 -0.24653224609E+02 -0.53603040357E+02  0.33301369033E+03  0.33823257585E+03  0.47000000000E+01 0.  1.
         11    1    6    6    0    0  0.19471432228E+02 -0.79649321832E+01  0.43922931154E+02  0.48701136526E+02  0.00000000000E+00 0. -1.
        -12    1    6    6    0    0 -0.36191121135E+02  0.72746022706E+02  0.27632918190E+03  0.28802707831E+03  0.00000000000E+00 0.  1.
</event>
<event>
12    1  0.8563264E-002  0.2172923E+03  0.7818608E-02  0.1136407E+00
         21   -1    0    0  503  502  0.00000000000E+00  0.00000000000E+00  0.13144846366E+04  0.13144846366E+04  0.00000000000E+00 0.  1.
         21   -1    0    0  501  503 -0.00000000000E+00 -0.00000000000E+00 -0.65744076733E+02  0.65744076733E+02  0.00000000000E+00 0.  1.
          6    2    1    2  501    0  0.12923789109E+03 -0.34032033843E+02  0.15828123758E+03  0.26882877838E+03  0.17133403077E+03 0.  0.
         24    2    3    3    0    0  0.12037792012E+02 -0.44791385767E+02  0.39456830845E+02  0.10151782085E+03  0.81227149241E+02 0.  0.
         -6    2    1    2    0  502 -0.12923789109E+03  0.34032033843E+02  0.10904593223E+04  0.11113999350E+04  0.16807043171E+03 0.  0.
        -24    2    5    5    0    0 -0.99124604797E+02 -0.40701179446E+02  0.72352073468E+03  0.73569009977E+03  0.79217397646E+02 0.  0.
          5    1    3    3  501    0  0.11720009907E+03  0.10759351924E+02  0.11882440673E+03  0.16731095754E+03  0.47000000000E+01 0. -1.
        -13    1    4    4    0    0  0.57601032068E+01 -0.48672970237E+02 -0.11241320452E+02  0.50285227514E+02  0.00000000000E+00 0.  1.
         14    1    4    4    0    0  0.62776888052E+01  0.38815844700E+01  0.50698151297E+02  0.51232593333E+02  0.00000000000E+00 0. -1.
         -5    1    5    5    0  502 -0.30113286290E+02  0.74733213289E+02  0.36693858763E+03  0.37570983521E+03  0.47000000000E+01 0.  1.
         11    1    6    6    0    0 -0.12013375699E+02 -0.13602871441E+02  0.23213384044E+02  0.29465581717E+02  0.00000000000E+00 0. -1.
        -12    1    6    6    0    0 -0.87111229097E+02 -0.27098308005E+02  0.70030735064E+03  0.70622451805E+03  0.00000000000E+00 0.  1.
</event>
<event>
12    1  0.8563264E-002  0.1779018E+03  0.7818608E-02  0.1170125E+00
         21   -1    0    0  501  502  0.00000000000E+00  0.00000000000E+00  0.49238869321E+03  0.49238869321E+03  0.00000000000E+00 0. -1.
         21   -1    0    0  502  503 -0.00000000000E+00 -0.00000000000E+00 -0.84350099913E+02  0.84350099913E+02  0.00000000000E+00 0. -1.
         -6    2    1    2    0  503 -0.39079778026E+02 -0.14987651081E+02  0.62424087423E+02  0.18853594574E+03  0.17290800274E+03 0.  0.
        -24    2    3    3    0    0 -0.18864526693E+02  0.58070776441E+02  0.25846233996E+02  0.10423754967E+03  0.80432291439E+02 0.  0.
          6    2    1    2  501    0  0.39079778026E+02  0.14987651081E+02  0.34561450587E+03  0.38820284738E+03  0.17175623805E+03 0.  0.
         24    2    5    5    0    0  0.70008444822E+02  0.21275426701E+02  0.13515155617E+03  0.17533466810E+03  0.84394766279E+02 0.  0.
          5    1    5    5  501    0 -0.30928666797E+02 -0.62877756209E+01  0.21046294970E+03  0.21286817928E+03  0.47000000000E+01 0. -1.
        -13    1    6    6    0    0  0.11379999619E+02  0.17095780029E+02 -0.68499569109E+01  0.21649295503E+02  0.00000000000E+00 0.  1.
         14    1    6    6    0    0  0.58628445203E+02  0.41796466729E+01  0.14200151308E+03  0.15368537260E+03  0.00000000000E+00 0. -1.
         -5    1    3    3    0  503 -0.20215251333E+02 -0.73058427522E+02  0.36577853427E+02  0.84298396069E+02  0.47000000000E+01 0.  1.
         13    1    4    4    0    0 -0.45179370010E+02  0.21988401904E+02  0.31375814757E+02  0.59237716401E+02  0.00000000000E+00 0. -1.
        -14    1    4    4    0    0  0.26314843317E+02  0.36082374538E+02 -0.55295807607E+01  0.44999833272E+02  0.00000000000E+00 0.  1.
</event>
<event>
12    1  0.8563264E-002  0.1783443E+03  0.7818608E-02  0.1169567E+00
         21   -1    0    0  503  502  0.00000000000E+00  0.00000000000E+00  0.36002290062E+03  0.36002290062E+03  0.00000000000E+00 0.  1.
         21   -1    0    0  501  503 -0.00000000000E+00 -0.00000000000E+00 -0.14193178550E+03  0.14193178550E+03  0.00000000000E+00 0. -1.
          6    2    1    2  501    0 -0.40268088826E+02  0.21707598548E+02 -0.45725003405E+02  0.18351214645E+03  0.17173582371E+03 0.  0.
         24    2    3    3    0    0  0.33268903682E+02 -0.63947870468E+01  0.10760224165E+02  0.86506454467E+02  0.78866158691E+02 0.  0.
         -6    2    1    2    0  502  0.40268088826E+02 -0.21707598548E+02  0.26381611852E+03  0.31844253967E+03  0.17237739951E+03 0.  0.
        -24    2    5    5    0    0  0.81628064484E+02 -0.15250150999E+02  0.24659635685E+03  0.27293477761E+03  0.82388843904E+02 0.  0.
          5    1    3    3  501    0 -0.73536992509E+02  0.28102385594E+02 -0.56485227570E+02  0.97005691982E+02  0.47000000000E+01 0. -1.
        -13    1    4    4    0    0  0.48942718604E+02  0.17392997158E+02  0.21290105237E+02  0.56135324311E+02  0.00000000000E+00 0.  1.
         14    1    4    4    0    0 -0.15673814922E+02 -0.23787784205E+02 -0.10529881072E+02  0.30371130156E+02  0.00000000000E+00 0. -1.
         -5    1    5    5    0  502 -0.41359975657E+02 -0.64574475488E+01  0.17219761673E+02  0.45507762055E+02  0.47000000000E+01 0.  1.
         13    1    6    6    0    0  0.52714543923E+02  0.27933403093E+02  0.90323044461E+02  0.10824671131E+03  0.00000000000E+00 0. -1.
        -14    1    6    6    0    0  0.28913520561E+02 -0.43183554092E+02  0.15627331239E+03  0.16468806630E+03  0.00000000000E+00 0.  1.
</event>
<event>
12    1  0.8563264E-002  0.1850062E+03  0.7818608E-02  0.1163350E+00
         21   -1    0    0  501  502  0.00000000000E+00  0.00000000000E+00  0.17482871497E+03  0.17482871497E+03  0.00000000000E+00 0.  1.
         21   -1    0    0  502  503 -0.00000000000E+00 -0.00000000000E+00 -0.20484163951E+03  0.20484163951E+03  0.00000000000E+00 0.  1.
         -6    2    1    2    0  503  0.12760414383E+02  0.63690115124E+02  0.27907649829E+02  0.18580937466E+03  0.17183430348E+03 0.  0.
        -24    2    3    3    0    0 -0.37270150451E+02  0.51596601453E+02 -0.31060074755E+02  0.10739640996E+03  0.80734052498E+02 0.  0.
          6    2    1    2  501    0 -0.12760414383E+02 -0.63690115124E+02 -0.57920574369E+02  0.19386097983E+03  0.17322825296E+03 0.  0.
         24    2    5    5    0    0 -0.12997559497E+02 -0.10784823029E+03 -0.67854976291E+02  0.14835518113E+03  0.74865109571E+02 0.  0.
          5    1    5    5  501    0  0.23714511377E+00  0.44158115170E+02  0.99344019218E+01  0.45505798693E+02  0.47000000000E+01 0. -1.
        -11    1    6    6    0    0 -0.39830974874E+02 -0.42036119173E+02 -0.46128163828E+02  0.74036135587E+02  0.00000000000E+00 0.  1.
         12    1    6    6    0    0  0.26833415377E+02 -0.65812111121E+02 -0.21726812463E+02  0.74319045546E+02  0.00000000000E+00 0. -1.
         -5    1    3    3    0  503  0.50030564834E+02  0.12093513671E+02  0.58967724584E+02  0.78412964701E+02  0.47000000000E+01 0.  1.
         13    1    4    4    0    0 -0.53756952804E+02  0.37966179714E+02  0.44265653100E+01  0.65960861556E+02  0.00000000000E+00 0. -1.
        -14    1    4    4    0    0  0.16486802352E+02  0.13630421739E+02 -0.35486640065E+02  0.41435548406E+02  0.00000000000E+00 0.  1.
</event>
<event>
12    1  0.8563264E-002  0.2093034E+03  0.7818608E-02  0.1142121E+00
         21   -1    0    0  501  502  0.00000000000E+00  0.00000000000E+00  0.31990428735E+03  0.31990428735E+03  0.00000000000E+00 0. -1.
         21   -1    0    0  502  503 -0.00000000000E+00 -0.00000000000E+00 -0.33776896233E+03  0.33776896233E+03  0.00000000000E+00 0.  1.
         -6    2    1    2    0  503 -0.18858358463E+02  0.11840246363E+03 -0.26249858801E+03  0.33572819339E+03  0.17156086398E+03 0.  0.
        -24    2    3    3    0    0 -0.69443957113E+02  0.10936905794E+03 -0.22501653768E+03  0.27195124374E+03  0.80876342201E+02 0.  0.
          6    2    1    2  501    0  0.18858358463E+02 -0.11840246363E+03  0.24463391303E+03  0.32194505630E+03  0.17154616519E+03 0.  0.
         24    2    5    5    0    0  0.32349033393E+02 -0.22076288894E+02  0.47727933205E+02  0.10227533799E+03  0.81538130098E+02 0.  0.
          5    1    5    5  501    0 -0.13490674930E+02 -0.96326174736E+02  0.19690597983E+03  0.21966971831E+03  0.47000000000E+01 0. -1.
        -11    1    6    6    0    0  0.35391423528E+02 -0.50387832163E+02  0.37063525008E+02  0.71869265862E+02  0.00000000000E+00 0.  1.
         12    1    6    6    0    0 -0.30423901357E+01  0.28311543269E+02  0.10664408198E+02  0.30406072128E+02  0.00000000000E+00 0. -1.
         -5    1    3    3    0  503  0.50585598650E+02  0.90334056909E+01 -0.37482050330E+02  0.63776949646E+02  0.47000000000E+01 0.  1.
         11    1    4    4    0    0 -0.59702004414E+02  0.88396151194E+02 -0.10482155630E+03  0.14955188913E+03  0.00000000000E+00 0. -1.
        -12    1    4    4    0    0 -0.97419526993E+01  0.20972906745E+02 -0.12019498139E+03  0.12239935461E+03  0.00000000000E+00 0.  1.
</event>
<event>
12    1  0.8563264E-002  0.1896900E+03  0.7818608E-02  0.1159494E+00
         21   -1    0    0  501  502  0.00000000000E+00  0.00000000000E+00  0.32327616201E+03  0.32327616201E+03  0.00000000000E+00 0. -1.
         21   -1    0    0  502  503 -0.00000000000E+00 -0.00000000000E+00 -0.11605830706E+03  0.11605830706E+03  0.00000000000E+00 0. -1.
         -6    2    1    2    0  503 -0.58169774353E+02 -0.57223615148E+02  0.51765905109E+02  0.19662653951E+03  0.17124258328E+03 0.  0.
        -24    2    3    3    0    0  0.29249410293E+02 -0.41652819567E+02  0.17144714869E+01  0.94588313695E+02  0.79708997578E+02 0.  0.
          6    2    1    2  501    0  0.58169774353E+02  0.57223615148E+02  0.15545194984E+03  0.24270792956E+03  0.16758151923E+03 0.  0.
         24    2    5    5    0    0  0.73832127443E+02 -0.76725802273E+01  0.52956671464E+02  0.12029797259E+03  0.78467455838E+02 0.  0.
          5    1    5    5  501    0 -0.15662353090E+02  0.64896195375E+02  0.10249527837E+03  0.12240995698E+03  0.47000000000E+01 0. -1.
        -11    1    6    6    0    0 -0.12723045728E+02 -0.13002787443E+02  0.21227938606E+02  0.27956640559E+02  0.00000000000E+00 0.  1.
         12    1    6    6    0    0  0.86555173172E+02  0.53302072161E+01  0.31728732858E+02  0.92341332027E+02  0.00000000000E+00 0. -1.
         -5    1    3    3    0  503 -0.87419184646E+02 -0.15570795581E+02  0.50051433622E+02  0.10203822581E+03  0.47000000000E+01 0.  1.
         11    1    4    4    0    0  0.32776058081E+02 -0.52295435820E+02  0.26667116642E+02  0.67232564290E+02  0.00000000000E+00 0. -1.
        -12    1    4    4    0    0 -0.35266477883E+01  0.10642616254E+02 -0.24952645155E+02  0.27355749406E+02  0.00000000000E+00 0.  1.
</event>
<event>
12    1  0.8563264E-002  0.1949424E+03  0.7818608E-02  0.1154599E+00
         21   -1    0    0  503  502  0.00000000000E+00  0.00000000000E+00  0.65037049808E+02  0.65037049808E+02  0.00000000000E+00 0. -1.
         21   -1    0    0  501  503 -0.00000000000E+00 -0.00000000000E+00 -0.83057203325E+03  0.83057203325E+03  0.00000000000E+00 0. -1.
          6    2    1    2  501    0  0.93330077115E+02 -0.14549561762E+02 -0.63171932358E+03  0.66111410606E+03  0.17052965841E+03 0.  0.
         24    2    3    3    0    0  0.77187809525E+02  0.30982025215E+01 -0.20072822387E+03  0.22943432378E+03  0.79879485952E+02 0.  0.
         -6    2    1    2    0  502 -0.93330077115E+02  0.14549561762E+02 -0.13381565986E+03  0.23449497700E+03  0.16780664580E+03 0.  0.
        -24    2    5    5    0    0 -0.49930827301E+02  0.60017056239E+02 -0.35410664691E+02  0.11763428638E+03  0.80552936654E+02 0.  0.
          5    1    3    3  501    0  0.16142267590E+02 -0.17647764284E+02 -0.43099109972E+03  0.43167978227E+03  0.47000000000E+01 0. -1.
        -13    1    4    4    0    0  0.84837603411E+02  0.20670381554E+02 -0.18525508057E+03  0.20480265746E+03  0.00000000000E+00 0.  1.
         14    1    4    4    0    0 -0.76497938863E+01 -0.17572179032E+02 -0.15473143298E+02  0.24631666325E+02  0.00000000000E+00 0. -1.
         -5    1    5    5    0  502 -0.43399249815E+02 -0.45467494477E+02 -0.98404995172E+02  0.11686069062E+03  0.47000000000E+01 0.  1.
         11    1    6    6    0    0 -0.72101372340E+02  0.49358526292E+02 -0.24681287829E+02  0.90796684851E+02  0.00000000000E+00 0. -1.
        -12    1    6    6    0    0  0.22170545039E+02  0.10658529947E+02 -0.10729376862E+02  0.26837601528E+02  0.00000000000E+00 0.  1.
</event>
<event>
12    1  0.8563264E-002  0.2831531E+03  0.7818608E-02  0.1094097E+00
         21   -1    0    0  501  502  0.00000000000E+00  0.00000000000E+00  0.45700950457E+03  0.45700950457E+03  0.00000000000E+00 0. -1.
         21   -1    0    0  502  503 -0.00000000000E+00 -0.00000000000E+00 -0.26511810504E+03  0.26511810504E+03  0.00000000000E+00 0.  1.
         -6    2    1    2    0  503 -0.22514323076E+03  0.11834225711E+02 -0.11458806522E+03  0.30546050371E+03  0.17130724265E+03 0.  0.
        -24    2    3    3    0    0 -0.89321169917E+02  0.63388419570E+02 -0.35058152303E+02  0.13977235035E+03  0.79441001686E+02 0.  0.
          6    2    1    2  501    0  0.22514323076E+03 -0.11834225711E+02  0.30647946474E+03  0.41666710590E+03  0.16985962315E+03 0.  0.
         24    2    5    5    0    0  0.21852892270E+03 -0.64674043742E+01  0.19124309566E+03  0.30102082364E+03  0.79012006997E+02 0.  0.
          5    1    5    5  501    0  0.66143080604E+01 -0.53668213366E+01  0.11523636908E+03  0.11564628226E+03  0.47000000000E+01 0. -1.
        -13    1    6    6    0    0  0.10689507355E+03  0.34352030537E+02  0.10895318668E+03  0.15645259870E+03  0.00000000000E+00 0.  1.
         14    1    6    6    0    0  0.11163384915E+03 -0.40819434911E+02  0.82289908981E+02  0.14456822494E+03  0.00000000000E+00 0. -1.
         -5    1    3    3    0  503 -0.13582206084E+03 -0.51554193859E+02 -0.79529912915E+02  0.16568815336E+03  0.47000000000E+01 0.  1.
         13    1    4    4    0    0 -0.35753936095E+02  0.36726710593E+02 -0.56431021143E+02  0.76234213871E+02  0.00000000000E+00 0. -1.
        -14    1    4    4    0    0 -0.53567233822E+02  0.26661708977E+02  0.21372868840E+02  0.63538136481E+02  0.00000000000E+00 0.  1.
</event>
<event>
12    1  0.8563264E-002  0.2084795E+03  0.7818608E-02  0.1143253E+00
         21   -1    0    0  501  502  0.00000000000E+00  0.00000000000E+00  0.34280810500E+03  0.34280810500E+03  0.00000000000E+00 0.  1.
         21   -1    0    0  502  503 -0.00000000000E+00 -0.00000000000E+00 -0.65034519273E+03  0.65034519273E+03  0.00000000000E+00 0.  1.
         -6    2    1    2    0  503  0.10915077935E+03  0.27898185988E+02 -0.59975977085E+03  0.63418559148E+03  0.17259020918E+03 0.  0.
        -24    2    3    3    0    0  0.91628365932E+01 -0.32641625976E+02 -0.28268599857E+03  0.29622032020E+03  0.81765952506E+02 0.  0.
          6    2    1    2  501    0 -0.10915077935E+03 -0.27898185988E+02  0.29222268312E+03  0.35896770624E+03  0.17541811816E+03 0.  0.
         24    2    5    5    0    0 -0.67969417767E+02 -0.77840812327E+02  0.25008973083E+03  0.28158911659E+03  0.77900727216E+02 0.  0.
          5    1    5    5  501    0 -0.41181361588E+02  0.49942626339E+02  0.42132952293E+02  0.77378589654E+02  0.47000000000E+01 0. -1.
        -13    1    6    6    0    0 -0.56120297895E+02 -0.71926323431E+02  0.11956894332E+03  0.15039819162E+03  0.00000000000E+00 0.  1.
         14    1    6    6    0    0 -0.11849119873E+02 -0.59144888966E+01  0.13052078751E+03  0.13119092496E+03  0.00000000000E+00 0. -1.
         -5    1    3    3    0  503  0.99987942762E+02  0.60539811964E+02 -0.31707377228E+03  0.33796527129E+03  0.47000000000E+01 0.  1.
         11    1    4    4    0    0 -0.35490798599E+02 -0.52288078353E+01 -0.10420167563E+03  0.11020402180E+03  0.00000000000E+00 0. -1.
        -12    1    4    4    0    0  0.44653635192E+02 -0.27412818141E+02 -0.17848432294E+03  0.18601629840E+03  0.00000000000E+00 0.  1.
</event>
<event>
12    1  0.8563264E-002  0.1993494E+03  0.7818608E-02  0.1150644E+00
         21   -1    0    0  503  502  0.00000000000E+00  0.00000000000E+00  0.24884560523E+03  0.24884560523E+03  0.00000000000E+00 0.  1.
         21   -1    0    0  501  503 -0.00000000000E+00 -0.00000000000E+00 -0.32844011213E+03  0.32844011213E+03  0.00000000000E+00 0.  1.
          6    2    1    2  501    0  0.15792072383E+02 -0.96634553511E+02 -0.24758524028E+03  0.31786577383E+03  0.17364496103E+03 0.  0.
         24    2    3    3    0    0 -0.30985655142E+02  0.88187480350E+01 -0.82876978991E+02  0.11672041362E+03  0.75612037188E+02 0.  0.
         -6    2    1    2    0  502 -0.15792072383E+02  0.96634553511E+02  0.16799073337E+03  0.25941994352E+03  0.17172709197E+03 0.  0.
        -24    2    5    5    0    0 -0.50145804307E+02  0.80075696397E+02  0.45687799902E+02  0.13122293817E+03  0.78774142960E+02 0.  0.
          5    1    3    3  501    0  0.46777727525E+02 -0.10545330155E+03 -0.16470826129E+03  0.20114536021E+03  0.47000000000E+01 0. -1.
        -11    1    4    4    0    0  0.44596574525E-01 -0.22974257926E+01 -0.83716905997E+02  0.83748435829E+02  0.00000000000E+00 0.  1.
         12    1    4    4    0    0 -0.31030251716E+02  0.11116173828E+02  0.83992700554E+00  0.32971977792E+02  0.00000000000E+00 0. -1.
         -5    1    5    5    0  502  0.34353731924E+02  0.16558857114E+02  0.12230293347E+03  0.12819700535E+03  0.47000000000E+01 0.  1.
         11    1    6    6    0    0 -0.17399080479E+02 -0.11842509363E+02 -0.44591864587E+01  0.21514120326E+02  0.00000000000E+00 0. -1.
        -12    1    6    6    0    0 -0.32746723828E+02  0.91918205760E+02  0.50146986361E+02  0.10970881784E+03  0.00000000000E+00 0.  1.
</event>
<event>
12    1  0.8563264E-002  0.2261598E+03  0.7818608E-02  0.1129416E+00
         21   -1    0    0  503  502  0.00000000000E+00  0.00000000000E+00  0.49940120781E+03  0.49940120781E+03  0.00000000000E+00 0.  1.
         21   -1    0    0  501  503 -0.00000000000E+00 -0.00000000000E+00 -0.19661245317E+03  0.19661245317E+03  0.00000000000E+00 0. -1.
          6    2    1    2  501    0  0.14065954461E+03  0.40101143250E+02 -0.89664460031E+02  0.24305914717E+03  0.17217672447E+03 0.  0.
         24    2    3    3    0    0  0.99298707944E+02  0.80032595694E+02 -0.18463307572E+02  0.15142436220E+03  0.79517255797E+02 0.  0.
         -6    2    1    2    0  502 -0.14065954461E+03 -0.40101143250E+02  0.39245321467E+03  0.45295451382E+03  0.17249654113E+03 0.  0.
        -24    2    5    5    0    0 -0.85330824476E+02  0.40063649331E+02  0.26136648611E+03  0.28957311449E+03  0.81570233362E+02 0.  0.
          5    1    3    3  501    0  0.41360836668E+02 -0.39931452444E+02 -0.71201152459E+02  0.91634784966E+02  0.47000000000E+01 0. -1.
        -11    1    4    4    0    0 -0.19312909384E+01  0.32605768861E+02 -0.22333359164E+02  0.39568231945E+02  0.00000000000E+00 0.  1.
         12    1    4    4    0    0  0.10122999888E+03  0.47426826833E+02  0.38700515926E+01  0.11185613026E+03  0.00000000000E+00 0. -1.
         -5    1    5    5    0  502 -0.55328720136E+02 -0.80164792581E+02  0.13108672856E+03  0.16338139932E+03  0.47000000000E+01 0.  1.
         13    1    6    6    0    0  0.12959891851E+01  0.20824787122E+02  0.10265433072E+02  0.23253611823E+02  0.00000000000E+00 0. -1.
        -14    1    6    6    0    0 -0.86626813661E+02  0.19238862209E+02  0.25110105304E+03  0.26631950267E+03  0.00000000000E+00 0.  1.
</event>
<event>
12    1  0.8563264E-002  0.2392338E+03  0.7818608E-02  0.1120410E+00
         21   -1    0    0  501  502  0.00000000000E+00  0.00000000000E+00  0.89083872575E+03  0.89083872575E+03  0.00000000000E+00 0.  1.
         21   -1    0    0  502  503 -0.00000000000E+00 -0.00000000000E+00 -0.66823462946E+02  0.66823462946E+02  0.00000000000E+00 0.  1.
         -6    2    1    2    0  503 -0.98318064019E+02 -0.13370287075E+03  0.31439625746E+03  0.39468407338E+03  0.17142815321E+03 0.  0.
        -24    2    3    3    0    0 -0.10609354724E+03 -0.31287844501E+02  0.15196359123E+03  0.20244527189E+03  0.75208942749E+02 0.  0.
          6    2    1    2  501    0  0.98318064019E+02  0.13370287075E+03  0.50961900534E+03  0.56297811532E+03  0.17230765614E+03 0.  0.
         24    2    5    5    0    0  0.81956424920E+02  0.74165402358E+02  0.17186109659E+03  0.21959071267E+03  0.80414439472E+02 0.  0.
          5    1    5    5  501    0  0.16361639099E+02  0.59537468389E+02  0.33775790875E+03  0.34338740265E+03  0.47000000000E+01 0. -1.
        -13    1    6    6    0    0  0.38345488981E+02  0.18702515623E+02  0.11183593409E+02  0.44104799935E+02  0.00000000000E+00 0.  1.
         14    1    6    6    0    0  0.43610935939E+02  0.55462886735E+02  0.16067750318E+03  0.17548591273E+03  0.00000000000E+00 0. -1.
         -5    1    3    3    0  503  0.77754832226E+01 -0.10241502625E+03  0.16243266623E+03  0.19223880149E+03  0.47000000000E+01 0.  1.
         11    1    4    4    0    0 -0.54544842345E+02  0.14367977470E+02  0.34017670422E+02  0.65869420097E+02  0.00000000000E+00 0. -1.
        -12    1    4    4    0    0 -0.51548704897E+02 -0.45655821971E+02  0.11794592081E+03  0.13657585179E+03  0.00000000000E+00 0.  1.
</event>
<event>
12    1  0.8563264E-002  0.1947310E+03  0.7818608E-02  0.1155744E+00
         21   -1    0    0  501  502  0.00000000000E+00  0.00000000000E+00  0.68472041369E+03  0.68472041369E+03  0.00000000000E+00 0. -1.
         21   -1    0    0  502  503 -0.00000000000E+00 -0.00000000000E+00 -0.55123400225E+02  0.55123400225E+02  0.00000000000E+00 0. -1.
         -6    2    1    2    0  503 -0.16542525403E+01  0.74724403492E+02  0.24606989909E+03  0.30971219916E+03  0.17258267016E+03 0.  0.
        -24    2    3    3    0    0 -0.35383858280E+02  0.92997753305E+02  0.24111886712E+03  0.27074805751E+03  0.72564474896E+02 0.  0.
          6    2    1    2  501    0  0.16542525403E+01 -0.74724403492E+02  0.38352711437E+03  0.43013161476E+03  0.17981569877E+03 0.  0.
         24    2    5    5    0    0 -0.56951851222E+02  0.32105610581E+01  0.20441245424E+03  0.22613973852E+03  0.78108314716E+02 0.  0.
          5    1    5    5  501    0  0.58606103762E+02 -0.77934964550E+02  0.17911466013E+03  0.20399187624E+03  0.47000000000E+01 0. -1.
        -11    1    6    6    0    0 -0.22537463980E+02 -0.15164433204E+02  0.11800727579E+02  0.29616794027E+02  0.00000000000E+00 0.  1.
         12    1    6    6    0    0 -0.34414387242E+02  0.18374994262E+02  0.19261172666E+03  0.19652294449E+03  0.00000000000E+00 0. -1.
         -5    1    3    3    0  503  0.33729605739E+02 -0.18273349813E+02  0.49510319685E+01  0.38964141647E+02  0.47000000000E+01 0.  1.
         11    1    4    4    0    0  0.94221452212E+01  0.31067988093E+02  0.23452547377E+02  0.40050202037E+02  0.00000000000E+00 0. -1.
        -12    1    4    4    0    0 -0.44806003501E+02  0.61929765213E+02  0.21766631974E+03  0.23069785547E+03  0.00000000000E+00 0.  1.
</event>
<event>
12    1  0.8563264E-002  0.1927029E+03  0.7818608E-02  0.1156054E+00
         21   -1    0    0  501  502  0.00000000000E+00  0.00000000000E+00  0.26704840934E+03  0.26704840934E+03  0.00000000000E+00 0.  1.
         21   -1    0    0  502  503 -0.00000000000E+00 -0.00000000000E+00 -0.14616391941E+03  0.14616391941E+03  0.00000000000E+00 0.  1.
         -6    2    1    2    0  503 -0.77597757999E+02  0.39046998554E+02  0.10609348728E+03  0.21997784802E+03  0.17201263161E+03 0.  0.
        -24    2    3    3    0    0 -0.91115861168E+02  0.90653156784E+01  0.12197070567E+02  0.12037730840E+03  0.77185800132E+02 0.  0.
          6    2    1    2  501    0  0.77597757999E+02 -0.39046998554E+02  0.14791002647E+02  0.19323448072E+03  0.17197299392E+03 0.  0.
         24    2    5    5    0    0  0.10389826434E+03 -0.72463460939E+02  0.16405998412E+02  0.15042005788E+03  0.79443278656E+02 0.  0.
          5    1    5    5  501    0 -0.26300506344E+02  0.33416462385E+02 -0.16149957648E+01  0.42814422845E+02  0.47000000000E+01 0. -1.
        -13    1    6    6    0    0  0.25334106805E+02  0.15480072286E+02 -0.62452299591E+01  0.30338960148E+02  0.00000000000E+00 0.  1.
         14    1    6    6    0    0  0.78564157538E+02 -0.87943533224E+02  0.22651228371E+02  0.12008109773E+03  0.00000000000E+00 0. -1.
         -5    1    3    3    0  503  0.13518103169E+02  0.29981682875E+02  0.93896416713E+02  0.99600539621E+02  0.47000000000E+01 0.  1.
         11    1    4    4    0    0 -0.54847823883E+02  0.18464669130E+02 -0.28965861393E+02  0.64716681907E+02  0.00000000000E+00 0. -1.
        -12    1    4    4    0    0 -0.36268037285E+02 -0.93993534513E+01  0.41162931960E+02  0.55660626491E+02  0.00000000000E+00 0.  1.
</event>
<event>
12    1  0.8563264E-002  0.2375501E+03  0.7818608E-02  0.1121577E+00
         21   -1    0    0  503  502  0.00000000000E+00  0.00000000000E+00  0.54518689726E+03  0.54518689726E+03  0.00000000000E+00 0.  1.
         21   -1    0    0  501  503 -0.00000000000E+00 -0.00000000000E+00 -0.12125753907E+03  0.12125753907E+03  0.00000000000E+00 0.  1.
          6    2    1    2  501    0 -0.84554247951E+02  0.13876298540E+03  0.82849122228E+02  0.25079342191E+03  0.17213011490E+03 0.  0.
         24    2    3    3    0    0 -0.93502479515E+02  0.16549660747E+03  0.82587484398E+02  0.22221168209E+03  0.80159206072E+02 0.  0.
         -6    2    1    2    0  502  0.84554247951E+02 -0.13876298540E+03  0.34108023596E+03  0.41565101442E+03  0.17327853723E+03 0.  0.
        -24    2    5    5    0    0 -0.31366286417E+01 -0.70535271271E+02  0.25056065289E+03  0.27226135046E+03  0.79752988937E+02 0.  0.
          5    1    3    3  501    0  0.89482315648E+01 -0.26733622069E+02  0.26163783003E+00  0.28581739825E+02  0.47000000000E+01 0. -1.
        -11    1    4    4    0    0 -0.59834758782E+02  0.13801912310E+03  0.28970901226E+02  0.15319526696E+03  0.00000000000E+00 0.  1.
         12    1    4    4    0    0 -0.33667720733E+02  0.27477484368E+02  0.53616583172E+02  0.69016415131E+02  0.00000000000E+00 0. -1.
         -5    1    5    5    0  502  0.87690876592E+02 -0.68227714130E+02  0.90519583069E+02  0.14338966396E+03  0.47000000000E+01 0.  1.
         11    1    6    6    0    0  0.68421167638E+01 -0.78368911742E+00 -0.41118931796E+01  0.80209971925E+01  0.00000000000E+00 0. -1.
        -12    1    6    6    0    0 -0.99787454055E+01 -0.69751582153E+02  0.25467254607E+03  0.26424035326E+03  0.00000000000E+00 0.  1.
</event>
<event>
12    1  0.8563264E-002  0.1969428E+03  0.7818608E-02  0.1153851E+00
         21   -1    0    0  503  502  0.00000000000E+00  0.00000000000E+00  0.43750930873E+03  0.43750930873E+03  0.00000000000E+00 0. -1.
         21   -1    0    0  501  503 -0.00000000000E+00 -0.00000000000E+00 -0.10567315833E+03  0.10567315833E+03  0.00000000000E+00 0. -1.
          6    2    1    2  501    0  0.29919365220E+02 -0.88542082258E+02  0.49910651041E+02  0.20316870381E+03  0.17335391653E+03 0.  0.
         24    2    3    3    0    0  0.56003149016E+02 -0.10584307562E+03  0.21353981899E+00  0.14424857981E+03  0.80426971986E+02 0.  0.
         -6    2    1    2    0  502 -0.29919365220E+02  0.88542082258E+02  0.28192549936E+03  0.34001376326E+03  0.16550680732E+03 0.  0.
        -24    2    5    5    0    0  0.43107705651E+02  0.67420851155E+02  0.17265032481E+03  0.20681386365E+03  0.80993790391E+02 0.  0.
          5    1    3    3  501    0 -0.26083783795E+02  0.17300993357E+02  0.49697111222E+02  0.58920123999E+02  0.47000000000E+01 0. -1.
        -13    1    4    4    0    0  0.13457421819E+02 -0.87767194813E+02  0.24389961546E+02  0.92081772961E+02  0.00000000000E+00 0.  1.
         14    1    4    4    0    0  0.42545727196E+02 -0.18075880802E+02 -0.24176421727E+02  0.52166806850E+02  0.00000000000E+00 0. -1.
         -5    1    5    5    0  502 -0.73027070872E+02  0.21121231104E+02  0.10927517455E+03  0.13319989961E+03  0.47000000000E+01 0.  1.
         11    1    6    6    0    0 -0.16082303634E+02  0.33823166157E+02  0.10225015052E+03  0.10889325205E+03  0.00000000000E+00 0. -1.
        -12    1    6    6    0    0  0.59190009285E+02  0.33597684998E+02  0.70400174287E+02  0.97920611600E+02  0.00000000000E+00 0.  1.
</event>
<event>
12    1  0.8563264E-002  0.1782025E+03  0.7818608E-02  0.1170371E+00
         21   -1    0    0  501  502  0.00000000000E+00  0.00000000000E+00  0.24143485648E+03  0.24143485648E+03  0.00000000000E+00 0. -1.
         21   -1    0    0  502  503 -0.00000000000E+00 -0.00000000000E+00 -0.12920656085E+03  0.12920656085E+03  0.00000000000E+00 0. -1.
         -6    2    1    2    0  503  0.50018611863E+01 -0.45659661106E+02  0.51501247508E+02  0.18549531277E+03  0.17218103640E+03 0.  0.
        -24    2    3    3    0    0 -0.40699661218E+02 -0.80498020630E+02  0.35882808736E+02  0.12575951049E+03  0.79946762080E+02 0.  0.
          6    2    1    2  501    0 -0.50018611863E+01  0.45659661106E+02  0.60727048114E+02  0.18514610456E+03  0.16876457683E+03 0.  0.
         24    2    5    5    0    0  0.59787093037E+02  0.27007532852E+02  0.97695291914E+01  0.10050409837E+03  0.75509779255E+02 0.  0.
          5    1    5    5  501    0 -0.64788954223E+02  0.18652128254E+02  0.50957518922E+02  0.84642006194E+02  0.47000000000E+01 0. -1.
        -11    1    6    6    0    0  0.47025390940E+02 -0.77021113099E+01  0.31958762140E+02  0.57376583980E+02  0.00000000000E+00 0.  1.
         12    1    6    6    0    0  0.12761702097E+02  0.34709644162E+02 -0.22189232948E+02  0.43127514386E+02  0.00000000000E+00 0. -1.
         -5    1    3    3    0  503  0.45701522404E+02  0.34838359524E+02  0.15618438772E+02  0.59735802280E+02  0.47000000000E+01 0.  1.
         11    1    4    4    0    0  0.10194228330E+02 -0.55473944183E+02  0.39613102746E+02  0.68923716409E+02  0.00000000000E+00 0. -1.
        -12    1    4    4    0    0 -0.50893889548E+02 -0.25024076447E+02 -0.37302940103E+01  0.56835794080E+02  0.00000000000E+00 0.  1.
</event>
<event>
12    1  0.8563264E-002  0.1728636E+03  0.7818608E-02  0.1175307E+00
         21   -1    0    0  503  502  0.00000000000E+00  0.00000000000E+00  0.26709078066E+02  0.26709078066E+02  0.00000000000E+00 0.  1.
         21   -1    0    0  501  503 -0.00000000000E+00 -0.00000000000E+00 -0.11438941361E+04  0.11438941361E+04  0.00000000000E+00 0.  1.
          6    2    1    2  501    0  0.49115161436E+01  0.10826296284E+02 -0.45799387057E+03  0.48953060413E+03  0.17245432790E+03 0.  0.
         24    2    3    3    0    0  0.80388404046E+01 -0.46492157447E+02 -0.38752921284E+03  0.39852212493E+03  0.80092756227E+02 0.  0.
         -6    2    1    2    0  502 -0.49115161436E+01 -0.10826296284E+02 -0.65919118745E+03  0.68107261003E+03  0.17083777930E+03 0.  0.
        -24    2    5    5    0    0  0.62778962342E+02  0.54736483894E+01 -0.40917129891E+03  0.42149656387E+03  0.79164654755E+02 0.  0.
          5    1    3    3  501    0 -0.31273242609E+01  0.57318453731E+02 -0.70464657734E+02  0.91008479191E+02  0.47000000000E+01 0. -1.
        -13    1    4    4    0    0  0.67920529635E+01  0.22593421588E+02 -0.86004763260E+02  0.89181915129E+02  0.00000000000E+00 0.  1.
         14    1    4    4    0    0  0.12467874410E+01 -0.69085579035E+02 -0.30152444958E+03  0.30934020981E+03  0.00000000000E+00 0. -1.
         -5    1    5    5    0  502 -0.67690478485E+02 -0.16299944673E+02 -0.25001988854E+03  0.25957604616E+03  0.47000000000E+01 0.  1.
         13    1    6    6    0    0  0.29461315289E+02 -0.18409550703E+01 -0.36243948590E+03  0.36363957314E+03  0.00000000000E+00 0. -1.
        -14    1    6    6    0    0  0.33317647053E+02  0.73146034596E+01 -0.46731813005E+02  0.57856990724E+02  0.00000000000E+00 0.  1.
</event>
<event>
12    1  0.8563264E-002  0.1957114E+03  0.7818608E-02  0.1153642E+00
         21   -1    0    0  501  502  0.00000000000E+00  0.00000000000E+00  0.68854094890E+02  0.68854094890E+02  0.00000000000E+00 0. -1.
         21   -1    0    0  502  503 -0.00000000000E+00 -0.00000000000E+00 -0.57229016051E+03  0.57229016051E+03  0.00000000000E+00 0.  1.
         -6    2    1    2    0  503  0.73605140054E+02 -0.51723964055E+02 -0.30953558161E+03  0.36564405803E+03  0.17259842348E+03 0.  0.
        -24    2    3    3    0    0  0.67762208759E+02 -0.57118516559E+02 -0.32592232339E+03  0.34683298818E+03  0.78825877318E+02 0.  0.
          6    2    1    2  501    0 -0.73605140054E+02  0.51723964055E+02 -0.19390048401E+03  0.27550019737E+03  0.17380988451E+03 0.  0.
         24    2    5    5    0    0 -0.91700908645E+02  0.74502886797E+02 -0.20005454055E+03  0.24539540417E+03  0.78976885257E+02 0.  0.
          5    1    5    5  501    0  0.18095768591E+02 -0.22778922741E+02  0.61540565373E+01  0.30104793206E+02  0.47000000000E+01 0. -1.
        -11    1    6    6    0    0 -0.41989439543E+02 -0.10750376322E+02 -0.57199739462E+02  0.71766940987E+02  0.00000000000E+00 0.  1.
         12    1    6    6    0    0 -0.49711469103E+02  0.85253263118E+02 -0.14285480109E+03  0.17362846318E+03  0.00000000000E+00 0. -1.
         -5    1    3    3    0  503  0.58429312956E+01  0.53945525034E+01  0.16386741779E+02  0.18811069852E+02  0.47000000000E+01 0.  1.
         11    1    4    4    0    0  0.73353209678E+02 -0.43929373179E+02 -0.17035737270E+03  0.19060985712E+03  0.00000000000E+00 0. -1.
        -12    1    4    4    0    0 -0.55910009197E+01 -0.13189143380E+02 -0.15556495069E+03  0.15622313106E+03  0.00000000000E+00 0.  1.
</event>
<event>
12    1  0.8563264E-002  0.1781003E+03  0.7818608E-02  0.1169860E+00
         21   -1    0    0  501  502  0.00000000000E+00  0.00000000000E+00  0.15300636578E+02  0.15300636578E+02  0.00000000000E+00 0. -1.
         21   -1    0    0  502  503 -0.00000000000E+00 -0.00000000000E+00 -0.21254270839E+04  0.21254270839E+04  0.00000000000E+00 0. -1.
         -6    2    1    2    0  503  0.36222515105E+02 -0.24316349739E+02 -0.86978861974E+03  0.88766840163E+03  0.17181266766E+03 0.  0.
        -24    2    3    3    0    0  0.71809429129E+02 -0.22295440250E+02 -0.81399868365E+03  0.82129732741E+03  0.79257569107E+02 0.  0.
          6    2    1    2  501    0 -0.36222515105E+02  0.24316349739E+02 -0.12403378276E+04  0.12530593189E+04  0.17267418608E+03 0.  0.
         24    2    5    5    0    0  0.12320173714E+02  0.70195679510E+02 -0.92152629703E+03  0.92729224324E+03  0.74705877542E+02 0.  0.
          5    1    5    5  501    0 -0.48542688819E+02 -0.45879329771E+02 -0.31881153057E+03  0.32576707562E+03  0.47000000000E+01 0. -1.
        -13    1    6    6    0    0  0.21244613456E+02 -0.37512433092E+01 -0.38707663569E+03  0.38767734951E+03  0.00000000000E+00 0.  1.
         14    1    6    6    0    0 -0.89244397420E+01  0.73946922819E+02 -0.53444966135E+03  0.53961489373E+03  0.00000000000E+00 0. -1.
         -5    1    3    3    0  503 -0.35586914023E+02 -0.20209094892E+01 -0.55789936087E+02  0.66371074223E+02  0.47000000000E+01 0.  1.
         11    1    4    4    0    0  0.86194130880E+02 -0.92123386928E+01 -0.57354855113E+03  0.58006226897E+03  0.00000000000E+00 0. -1.
        -12    1    4    4    0    0 -0.14384701752E+02 -0.13083101557E+02 -0.24045013252E+03  0.24123505844E+03  0.00000000000E+00 0.  1.
</event>
<event>
12    1  0.8563264E-002  0.2337714E+03  0.7818608E-02  0.1124259E+00
         21   -1    0    0  503  502  0.00000000000E+00  0.00000000000E+00  0.12067498009E+03  0.12067498009E+03  0.00000000000E+00 0.  1.
         21   -1    0    0  501  503 -0.00000000000E+00 -0.00000000000E+00 -0.51315538086E+03  0.51315538086E+03  0.00000000000E+00 0.  1.
          6    2    1    2  501    0 -0.15037546785E+03  0.45675428557E+02 -0.30679803121E+03  0.38485136625E+03  0.17113303610E+03 0.  0.
         24    2    3    3    0    0 -0.54176835106E+02  0.78606116432E+02 -0.20993374791E+03  0.24434020469E+03  0.80721162710E+02 0.  0.
         -6    2    1    2    0  502  0.15037546785E+03 -0.45675428557E+02 -0.85682369571E+02  0.24897899470E+03  0.17306081371E+03 0.  0.
        -24    2    5    5    0    0  0.11495381546E+03 -0.27620504713E+02 -0.12769653200E+03  0.19094492214E+03  0.78589357031E+02 0.  0.
          5    1    3    3  501    0 -0.96198632748E+02 -0.32930687875E+02 -0.96864283291E+02  0.14051116156E+03  0.47000000000E+01 0. -1.
        -13    1    4    4    0    0 -0.99389331884E+01  0.17721384568E+02 -0.14044359269E+03  0.14190571727E+03  0.00000000000E+00 0.  1.
         14    1    4    4    0    0 -0.44237901918E+02  0.60884731863E+02 -0.69490155220E+02  0.10243448742E+03  0.00000000000E+00 0. -1.
         -5    1    5    5    0  502  0.35421652396E+02 -0.18054923844E+02  0.42014162426E+02  0.58034072560E+02  0.47000000000E+01 0.  1.
         13    1    6    6    0    0  0.42639007980E+02 -0.44357657997E+02 -0.30572740657E+02  0.68705016526E+02  0.00000000000E+00 0. -1.
        -14    1    6    6    0    0  0.72314807479E+02  0.16737153284E+02 -0.97123791340E+02  0.12223990562E+03  0.00000000000E+00 0.  1.
</event>
<event>
12    1  0.8563264E-002  0.4102873E+03  0.7818608E-02  0.1040278E+00
         21   -1    0    0  501  502  0.00000000000E+00  0.00000000000E+00  0.12382626045E+04  0.12382626045E+04  0.00000000000E+00 0. -1.
         21   -1    0    0  502  503 -0.00000000000E+00 -0.00000000000E+00 -0.18564801184E+03  0.18564801184E+03  0.00000000000E+00 0. -1.
         -6    2    1    2    0  503  0.15913467457E+03  0.33654799840E+03  0.15786096800E+03  0.43957342239E+03  0.17238418888E+03 0.  0.
        -24    2    3    3    0    0  0.81106976778E+02  0.93028474956E+02  0.10222962040E+03  0.17783497134E+03  0.77082701759E+02 0.  0.
          6    2    1    2  501    0 -0.15913467457E+03 -0.33654799840E+03  0.89475362466E+03  0.98433719396E+03  0.17247394787E+03 0.  0.
         24    2    5    5    0    0 -0.60633847807E+02 -0.70549585270E+02  0.32883299512E+03  0.35129231593E+03  0.81372262292E+02 0.  0.
          5    1    5    5  501    0 -0.98500826760E+02 -0.26599841313E+03  0.56592062954E+03  0.63304487803E+03  0.47000000000E+01 0. -1.
        -13    1    6    6    0    0 -0.10851496907E+02 -0.35299683262E+02  0.33942017426E+02  0.50158580228E+02  0.00000000000E+00 0.  1.
         14    1    6    6    0    0 -0.49782350900E+02 -0.35249902007E+02  0.29489097770E+03  0.30113373570E+03  0.00000000000E+00 0. -1.
         -5    1    3    3    0  503  0.78027697789E+02  0.24351952344E+03  0.55631347608E+02  0.26173845105E+03  0.47000000000E+01 0.  1.
         11    1    4    4    0    0  0.82322323584E+02  0.99932301921E+02  0.74807930580E+02  0.14953145624E+03  0.00000000000E+00 0. -1.
        -12    1    4    4    0    0 -0.12153468054E+01 -0.69038269658E+01  0.27421689817E+02  0.28303515100E+02  0.00000000000E+00 0.  1.
</event>
<event>
12    1  0.8563264E-002  0.1887307E+03  0.7818608E-02  0.1159839E+00
         21   -1    0    0  503  502  0.00000000000E+00  0.00000000000E+00  0.34136537845E+03  0.34136537845E+03  0.00000000000E+00 0. -1.
         21   -1    0    0  501  503 -0.00000000000E+00 -0.00000000000E+00 -0.12346983912E+03  0.12346983912E+03  0.00000000000E+00 0. -1.
          6    2    1    2  501    0  0.10111741890E+02 -0.75070722361E+02  0.15920451389E+02  0.18840578583E+03  0.17177141405E+03 0.  0.
         24    2    3    3    0    0 -0.56888604192E+02 -0.62382642285E+02  0.35405648180E+02  0.11732979379E+03  0.73381286729E+02 0.  0.
         -6    2    1    2    0  502 -0.10111741890E+02  0.75070722361E+02  0.20197508794E+03  0.27642943174E+03  0.17286247107E+03 0.  0.
        -24    2    5    5    0    0 -0.73574304009E+02  0.64862888459E+02  0.13560676513E+03  0.18391704913E+03  0.76262138061E+02 0.  0.
          5    1    3    3  501    0  0.67000346083E+02 -0.12688080076E+02 -0.19485196791E+02  0.71075992045E+02  0.47000000000E+01 0. -1.
        -13    1    4    4    0    0  0.32534778798E+01 -0.11684855039E+02  0.36707337737E+02  0.38659405056E+02  0.00000000000E+00 0.  1.
         14    1    4    4    0    0 -0.60142082072E+02 -0.50697787246E+02 -0.13016895567E+01  0.78670388732E+02  0.00000000000E+00 0. -1.
         -5    1    5    5    0  502  0.63462562118E+02  0.10207833902E+02  0.66368322807E+02  0.92512382608E+02  0.47000000000E+01 0.  1.
         11    1    6    6    0    0  0.52004407394E+01  0.32619834153E+02  0.66596451110E+02  0.74338317606E+02  0.00000000000E+00 0. -1.
        -12    1    6    6    0    0 -0.78774744748E+02  0.32243054306E+02  0.69010314024E+02  0.10957873153E+03  0.00000000000E+00 0.  1.
</event>
<event>
12    1  0.8563264E-002  0.2827812E+03  0.7818608E-02  0.1095884E+00
         21   -1    0    0  501  502  0.00000000000E+00  0.00000000000E+00  0.59589557135E+03  0.59589557135E+03  0.00000000000E+00 0.  1.
         21   -1    0    0  502  503 -0.00000000000E+00 -0.00000000000E+00 -0.18840302542E+03  0.18840302542E+03  0.00000000000E+00 0.  1.
         -6    2    1    2    0  503 -0.11114256966E+03 -0.17565173894E+03 -0.20625019547E+02  0.27121978544E+03  0.17299877572E+03 0.  0.
        -24    2    3    3    0    0 -0.88518065351E+02 -0.81710288021E+02 -0.76176073054E+02  0.15966319020E+03  0.71954993834E+02 0.  0.
          6    2    1    2  501    0  0.11114256966E+03  0.17565173894E+03  0.42811756548E+03  0.51307881133E+03  0.19172640033E+03 0.  0.
         24    2    5    5    0    0 -0.18866654788E+02  0.54256831428E+02  0.19487720826E+03  0.21971508446E+03  0.83653078959E+02 0.  0.
          5    1    5    5  501    0  0.13000922445E+03  0.12139490751E+03  0.23324035722E+03  0.29336372687E+03  0.47000000000E+01 0. -1.
        -13    1    6    6    0    0 -0.41515393196E+01  0.26472260806E+02  0.18475077383E+03  0.18668386192E+03  0.00000000000E+00 0.  1.
         14    1    6    6    0    0 -0.14715115468E+02  0.27784570622E+02  0.10126434428E+02  0.33031222535E+02  0.00000000000E+00 0. -1.
         -5    1    3    3    0  503 -0.22624504309E+02 -0.93941450914E+02  0.55551053507E+02  0.11155659524E+03  0.47000000000E+01 0.  1.
         13    1    4    4    0    0 -0.48993334453E+02 -0.45143200198E+02 -0.29780277698E+00  0.66620897858E+02  0.00000000000E+00 0. -1.
        -14    1    4    4    0    0 -0.39524730898E+02 -0.36567087823E+02 -0.75878270277E+02  0.93042292344E+02  0.00000000000E+00 0.  1.
</event>
<event>
12    1  0.8563264E-002  0.2332392E+03  0.7818608E-02  0.1124942E+00
         21   -1    0    0  503  502  0.00000000000E+00  0.00000000000E+00  0.50688173825E+03  0.50688173825E+03  0.00000000000E+00 0. -1.
         21   -1    0    0  501  503 -0.00000000000E+00 -0.00000000000E+00 -0.16759365061E+03  0.16759365061E+03  0.00000000000E+00 0.  1.
          6    2    1    2  501    0 -0.47663893337E+02  0.15015095985E+03 -0.35798535952E+02  0.23278487276E+03  0.16760102725E+03 0.  0.
         24    2    3    3    0    0 -0.38351146747E+02  0.27670028336E+02 -0.57149692542E+02  0.10802002305E+03  0.78522589729E+02 0.  0.
         -6    2    1    2    0  502  0.47663893337E+02 -0.15015095985E+03  0.37508662359E+03  0.44169051610E+03  0.17199819577E+03 0.  0.
        -24    2    5    5    0    0  0.83606463143E+02 -0.69220130678E+02  0.16580954980E+03  0.21440072080E+03  0.81813171950E+02 0.  0.
          5    1    3    3  501    0 -0.93127465898E+01  0.12248093152E+03  0.21351156589E+02  0.12476484970E+03  0.47000000000E+01 0. -1.
        -11    1    4    4    0    0 -0.20077009259E+02  0.42063091168E+02 -0.31581387836E+00  0.46609974017E+02  0.00000000000E+00 0.  1.
         12    1    4    4    0    0 -0.18274137487E+02 -0.14393062833E+02 -0.56833878663E+02  0.61410049035E+02  0.00000000000E+00 0. -1.
         -5    1    5    5    0  502 -0.35942569806E+02 -0.80930829173E+02  0.20927707378E+03  0.22728979530E+03  0.47000000000E+01 0.  1.
         11    1    6    6    0    0  0.41118480264E+02 -0.25773212976E+02  0.14036997658E+03  0.14852177703E+03  0.00000000000E+00 0. -1.
        -12    1    6    6    0    0  0.42487982879E+02 -0.43446917702E+02  0.25439573219E+02  0.65878943771E+02  0.00000000000E+00 0.  1.
</event>
<event>
12    1  0.8563264E-002  0.1907408E+03  0.7818608E-02  0.1157935E+00
         21   -1    0    0  503  502  0.00000000000E+00  0.00000000000E+00  0.61286526833E+03  0.61286526833E+03  0.00000000000E+00 0.  1.
         21   -1    0    0  501  503 -0.00000000000E+00 -0.00000000000E+00 -0.91774679423E+02  0.91774679423E+02  0.00000000000E+00 0.  1.
          6    2    1    2  501    0  0.26836494871E+02  0.77949232241E+02  0.50274980863E+02  0.19665432236E+03  0.17131569846E+03 0.  0.
         24    2    3    3    0    0  0.59570749048E+02  0.37702866106E+02 -0.18504909076E+02  0.11037532930E+03  0.82886074842E+02 0.  0.
         -6    2    1    2    0  502 -0.26836494871E+02 -0.77949232241E+02  0.47081560804E+03  0.50798562540E+03  0.17200517018E+03 0.  0.
        -24    2    5    5    0    0  0.15408454696E+02  0.13949629210E+02  0.15891951528E+03  0.18006597185E+03  0.82075143927E+02 0.  0.
          5    1    3    3  501    0 -0.32734254177E+02  0.40246366135E+02  0.68779889939E+02  0.86278993061E+02  0.47000000000E+01 0. -1.
        -13    1    4    4    0    0  0.66103214029E+02  0.23627967579E+01  0.66928659446E+01  0.66483172067E+02  0.00000000000E+00 0.  1.
         14    1    4    4    0    0 -0.65324649816E+01  0.35340069348E+02 -0.25197775021E+02  0.43892157229E+02  0.00000000000E+00 0. -1.
         -5    1    5    5    0  502 -0.42244949567E+02 -0.91898861451E+02  0.31189609276E+03  0.32791965354E+03  0.47000000000E+01 0.  1.
         11    1    6    6    0    0  0.27524587092E+02 -0.83131050677E+01  0.15070288190E+03  0.15342121503E+03  0.00000000000E+00 0. -1.
        -12    1    6    6    0    0 -0.12116132396E+02  0.22262734277E+02  0.82166333848E+01  0.26644756819E+02  0.00000000000E+00 0.  1.
</event>
<event>
12    1  0.8563264E-002  0.1820259E+03  0.7818608E-02  0.1166164E+00
         21   -1    0    0  501  502  0.00000000000E+00  0.00000000000E+00  0.16112810090E+03  0.16112810090E+03  0.00000000000E+00 0. -1.
         21   -1    0    0  502  503 -0.00000000000E+00 -0.00000000000E+00 -0.24959205091E+03  0.24959205091E+03  0.00000000000E+00 0. -1.
         -6    2    1    2    0  503  0.59435910036E+02  0.97332782049E+01 -0.13195170475E+03  0.22482141955E+03  0.17177326391E+03 0.  0.
        -24    2    3    3    0    0  0.92493910448E+02 -0.28078918034E+02 -0.12094680570E+03  0.17319011724E+03  0.77608877011E+02 0.  0.
          6    2    1    2  501    0 -0.59435910036E+02 -0.97332782049E+01  0.43487754744E+02  0.18589873225E+03  0.17041065030E+03 0.  0.
         24    2    5    5    0    0 -0.67603956567E+02 -0.68417867896E+02  0.37483127318E+02  0.12615977008E+03  0.72525879256E+02 0.  0.
          5    1    5    5  501    0  0.81680465304E+01  0.58684589691E+02  0.60046274262E+01  0.59738962176E+02  0.47000000000E+01 0. -1.
        -13    1    6    6    0    0 -0.35617154379E+02 -0.78529709002E+02  0.20843576100E+02  0.88712747374E+02  0.00000000000E+00 0.  1.
         14    1    6    6    0    0 -0.31986802187E+02  0.10111841106E+02  0.16639551217E+02  0.37447022705E+02  0.00000000000E+00 0. -1.
         -5    1    3    3    0  503 -0.33058000412E+02  0.37812196239E+02 -0.11004899047E+02  0.51631302314E+02  0.47000000000E+01 0.  1.
         13    1    4    4    0    0  0.83274472428E+02  0.15163449557E+01 -0.11440175286E+03  0.14150865033E+03  0.00000000000E+00 0. -1.
        -14    1    4    4    0    0  0.92194380198E+01 -0.29595262989E+02 -0.65450528438E+01  0.31681466910E+02  0.00000000000E+00 0.  1.
</event>
<event>
12    1  0.8563264E-002  0.1765050E+03  0.7818608E-02  0.1171237E+00
         21   -1    0    0  501  502  0.00000000000E+00  0.00000000000E+00  0.43441869008E+03  0.43441869008E+03  0.00000000000E+00 0.  1.
         21   -1    0    0  502  503 -0.00000000000E+00 -0.00000000000E+00 -0.71933400007E+02  0.71933400007E+02  0.00000000000E+00 0.  1.
         -6    2    1    2    0  503 -0.13406413934E+02 -0.37387984745E+02  0.19563309633E+03  0.26346599969E+03  0.17194310475E+03 0.  0.
        -24    2    3    3    0    0  0.14287720080E+02 -0.86447242937E+02  0.15292018134E+03  0.19261221376E+03  0.77702112401E+02 0.  0.
          6    2    1    2  501    0  0.13406413934E+02  0.37387984745E+02  0.16685219374E+03  0.24288609040E+03  0.17197792014E+03 0.  0.
         24    2    5    5    0    0  0.97873628441E+01 -0.45903829447E+02  0.85446034545E+02  0.12626843909E+03  0.80247989763E+02 0.  0.
          5    1    5    5  501    0  0.36190510903E+01  0.83291814192E+02  0.81406159191E+02  0.11661765131E+03  0.47000000000E+01 0. -1.
        -13    1    6    6    0    0 -0.27806251825E+01  0.22159034850E+02  0.30999558757E+02  0.38206378329E+02  0.00000000000E+00 0.  1.
         14    1    6    6    0    0  0.12567988027E+02 -0.68062864298E+02  0.54446475788E+02  0.88062060759E+02  0.00000000000E+00 0. -1.
         -5    1    3    3    0  503 -0.27694134015E+02  0.49059258191E+02  0.42712914994E+02  0.70853785928E+02  0.47000000000E+01 0.  1.
         13    1    4    4    0    0 -0.15348423806E+01  0.14590251105E+02  0.15899903760E+02  0.21634188407E+02  0.00000000000E+00 0. -1.
        -14    1    4    4    0    0  0.15822562461E+02 -0.10103749404E+03  0.13702027758E+03  0.17097802535E+03  0.00000000000E+00 0.  1.
</event>
<event>
12    1  0.8563264E-002  0.2444256E+03  0.7818608E-02  0.1117481E+00
         21   -1    0    0  503  502  0.00000000000E+00  0.00000000000E+00  0.49854799076E+03  0.49854799076E+03  0.00000000000E+00 0.  1.
         21   -1    0    0  501  503 -0.00000000000E+00 -0.00000000000E+00 -0.16576704156E+03  0.16576704156E+03  0.00000000000E+00 0.  1.
          6    2    1    2  501    0  0.79104521543E+02 -0.14423360020E+03 -0.12726311802E+02  0.24109031379E+03  0.17578886095E+03 0.  0.
         24    2    3    3    0    0  0.99273134381E+02 -0.45601608784E+02 -0.32734587123E+02  0.13834079430E+03  0.78306833922E+02 0.  0.
         -6    2    1    2    0  502 -0.79104521543E+02  0.14423360020E+03  0.34550726100E+03  0.42322471853E+03  0.18078450768E+03 0.  0.
        -24    2    5    5    0    0 -0.59620186731E+02  0.12792832961E+03  0.13765310525E+03  0.21377080662E+03  0.82639918900E+02 0.  0.
          5    1    3    3  501    0 -0.20168612839E+02 -0.98631991413E+02  0.20008275320E+02  0.10274951949E+03  0.47000000000E+01 0. -1.
        -13    1    4    4    0    0  0.85171078965E+02 -0.46648263371E+02  0.58114161332E+01  0.97282813102E+02  0.00000000000E+00 0.  1.
         14    1    4    4    0    0  0.14102055416E+02  0.10466545864E+01 -0.38546003256E+02  0.41057981195E+02  0.00000000000E+00 0. -1.
         -5    1    5    5    0  502 -0.19484334812E+02  0.16305270589E+02  0.20785415576E+03  0.20945391192E+03  0.47000000000E+01 0.  1.
         11    1    6    6    0    0 -0.60004689747E+02  0.66594498973E+02  0.39337786630E+02  0.97892040239E+02  0.00000000000E+00 0. -1.
        -12    1    6    6    0    0  0.38450301656E+00  0.61333830636E+02  0.98315318615E+02  0.11587876638E+03  0.00000000000E+00 0.  1.
</event>
<event>
12    1  0.8563264E-002  0.2405496E+03  0.7818608E-02  0.1119499E+00
         21   -1    0    0  503  502  0.00000000000E+00  0.00000000000E+00  0.63659016879E+03  0.63659016879E+03  0.00000000000E+00 0. -1.
         21   -1    0    0  501  503 -0.00000000000E+00 -0.00000000000E+00 -0.90890659022E+02  0.90890659022E+02  0.00000000000E+00 0.  1.
          6    2    1    2  501    0 -0.50116014983E+02  0.15994392305E+03  0.25803756657E+03  0.35277114089E+03  0.17254106353E+03 0.  0.
         24    2    3    3    0    0  0.93134387793E+01  0.97863775157E+02  0.68814477752E+02  0.14489311878E+03  0.81206680084E+02 0.  0.
         -6    2    1    2    0  502  0.50116014983E+02 -0.15994392305E+03  0.28766194320E+03  0.37470968692E+03  0.17194267192E+03 0.  0.
        -24    2    5    5    0    0 -0.38270843832E+02 -0.95267198561E+02  0.17197493494E+03  0.21533312220E+03  0.79072616373E+02 0.  0.
          5    1    3    3  501    0 -0.59429453762E+02  0.62080147894E+02  0.18922308882E+03  0.20787802211E+03  0.47000000000E+01 0. -1.
        -13    1    4    4    0    0 -0.51732413899E+01  0.10506012314E+03  0.41357875471E+02  0.11302595173E+03  0.00000000000E+00 0.  1.
         14    1    4    4    0    0  0.14486680169E+02 -0.71963479854E+01  0.27456602281E+02  0.31867167045E+02  0.00000000000E+00 0. -1.
         -5    1    5    5    0  502  0.88386858815E+02 -0.64676724490E+02  0.11568700826E+03  0.15937656472E+03  0.47000000000E+01 0.  1.
         13    1    6    6    0    0  0.16990043128E+02 -0.63028804836E+02  0.79147607390E+02  0.10259452013E+03  0.00000000000E+00 0. -1.
        -14    1    6    6    0    0 -0.55260886960E+02 -0.32238393725E+02  0.92827327545E+02  0.11273860207E+03  0.00000000000E+00 0.  1.
</event>
<event>
12    1  0.8563264E-002  0.2197338E+03  0.7818608E-02  0.1134089E+00
         21   -1    0    0  501  502  0.00000000000E+00  0.00000000000E+00  0.27359586838E+03  0.27359586838E+03  0.00000000000E+00 0. -1.
         21   -1    0    0  502  503 -0.00000000000E+00 -0.00000000000E+00 -0.17644926566E+03  0.17644926566E+03  0.00000000000E+00 0. -1.
         -6    2    1    2    0  503 -0.10785955529E+03  0.82080940491E+02  0.49893219058E+02  0.22532700699E+03  0.17295075112E+03 0.  0.
        -24    2    3    3    0    0 -0.11383004318E+03  0.11530569708E+03  0.57945460892E+02  0.19030615928E+03  0.81277766394E+02 0.  0.
          6    2    1    2  501    0  0.10785955529E+03 -0.82080940491E+02  0.47253383660E+02  0.22471812705E+03  0.17289994187E+03 0.  0.
         24    2    5    5    0    0  0.77038692187E+02  0.78204537791E+01 -0.15446991126E+02  0.11076369189E+03  0.77677965441E+02 0.  0.
          5    1    5    5  501    0  0.30820863107E+02 -0.89901394270E+02  0.62700374787E+02  0.11395443516E+03  0.47000000000E+01 0. -1.
        -11    1    6    6    0    0  0.45596603412E+02  0.32554299065E+02  0.17759726759E+02  0.58772787282E+02  0.00000000000E+00 0.  1.
         12    1    6    6    0    0  0.31442088775E+02 -0.24733845286E+02 -0.33206717886E+02  0.51990904608E+02  0.00000000000E+00 0. -1.
         -5    1    3    3    0  503  0.59704878873E+01 -0.33224756591E+02 -0.80522418345E+01  0.35020847715E+02  0.47000000000E+01 0.  1.
         11    1    4    4    0    0 -0.26020089802E+02  0.92061325156E+01 -0.18077399586E+02  0.32993792219E+02  0.00000000000E+00 0. -1.
        -12    1    4    4    0    0 -0.87809953380E+02  0.10609956457E+03  0.76022860478E+02  0.15731236706E+03  0.00000000000E+00 0.  1.
</event>
<event>
12    1  0.8563264E-002  0.2702660E+03  0.7818608E-02  0.1101734E+00
         21   -1    0    0  503  502  0.00000000000E+00  0.00000000000E+00  0.13833333170E+03  0.13833333170E+03  0.00000000000E+00 0.  1.
         21   -1    0    0  501  503 -0.00000000000E+00 -0.00000000000E+00 -0.66174101449E+03  0.66174101449E+03  0.00000000000E+00 0.  1.
          6    2    1    2  501    0  0.16753948991E+03 -0.11444047728E+03 -0.44533593304E+03  0.51875799787E+03  0.17210364198E+03 0.  0.
         24    2    3    3    0    0  0.14524882292E+03 -0.49055417951E+02 -0.39966738212E+03  0.43581352029E+03  0.81827584287E+02 0.  0.
         -6    2    1    2    0  502 -0.16753948991E+03  0.11444047728E+03 -0.78071749755E+02  0.28131634833E+03  0.17854295339E+03 0.  0.
        -24    2    5    5    0    0 -0.15342096450E+03  0.45024382284E+02 -0.10407698786E+03  0.20571020166E+03  0.76938159053E+02 0.  0.
          5    1    3    3  501    0  0.22290666990E+02 -0.65385059329E+02 -0.45668550920E+02  0.82944477583E+02  0.47000000000E+01 0. -1.
        -13    1    4    4    0    0  0.17136861394E+02  0.21522351886E+02 -0.62566702827E+02  0.68348196404E+02  0.00000000000E+00 0.  1.
         14    1    4    4    0    0  0.12811196153E+03 -0.70577769836E+02 -0.33710067929E+03  0.36746532389E+03  0.00000000000E+00 0. -1.
         -5    1    5    5    0  502 -0.14118525412E+02  0.69416094996E+02  0.26005238104E+02  0.75606146663E+02  0.47000000000E+01 0.  1.
         13    1    6    6    0    0 -0.99998702861E+02  0.27639470962E+02 -0.21689290564E+02  0.10599106686E+03  0.00000000000E+00 0. -1.
        -14    1    6    6    0    0 -0.53422261637E+02  0.17384911322E+02 -0.82387697295E+02  0.99719134803E+02  0.00000000000E+00 0.  1.
</event>
<event>
12    1  0.8563264E-002  0.1743031E+03  0.7818608E-02  0.1173990E+00
         21   -1    0    0  501  502  0.00000000000E+00  0.00000000000E+00  0.85640267577E+03  0.85640267577E+03  0.00000000000E+00 0. -1.
         21   -1    0    0  502  503 -0.00000000000E+00 -0.00000000000E+00 -0.40793719037E+02  0.40793719037E+02  0.00000000000E+00 0. -1.
         -6    2    1    2    0  503 -0.56349841175E+01  0.15112297892E+02  0.57862500241E+03  0.60430824345E+03  0.17355525085E+03 0.  0.
        -24    2    3    3    0    0  0.24838396187E+02  0.32497022946E+02  0.55458878866E+03  0.56152173689E+03  0.77877686573E+02 0.  0.
          6    2    1    2  501    0  0.56349841175E+01 -0.15112297892E+02  0.23698395432E+03  0.29288815135E+03  0.17135326085E+03 0.  0.
         24    2    5    5    0    0  0.43597524768E+02 -0.25402093082E+02  0.23444943188E+03  0.25319497585E+03  0.81210523872E+02 0.  0.
          5    1    5    5  501    0 -0.37962540650E+02  0.10289795190E+02  0.25345224431E+01  0.39693175505E+02  0.47000000000E+01 0. -1.
        -11    1    6    6    0    0  0.15567080719E+02 -0.85734361846E+01  0.21377490728E+03  0.21451235115E+03  0.00000000000E+00 0.  1.
         12    1    6    6    0    0  0.28030444049E+02 -0.16828656898E+02  0.20674524594E+02  0.38682624701E+02  0.00000000000E+00 0. -1.
         -5    1    3    3    0  503 -0.30473380304E+02 -0.17384725053E+02  0.24036213746E+02  0.42786506560E+02  0.47000000000E+01 0.  1.
         11    1    4    4    0    0 -0.23680521140E+02 -0.54853182706E+01  0.21685217970E+03  0.21821027391E+03  0.00000000000E+00 0. -1.
        -12    1    4    4    0    0  0.48518917327E+02  0.37982341216E+02  0.33773660896E+03  0.34331146298E+03  0.00000000000E+00 0.  1.
</event>
<event>
12    1  0.8563264E-002  0.2705163E+03  0.7818608E-02  0.1101112E+00
         21   -1    0    0  503  502  0.00000000000E+00  0.00000000000E+00  0.81495379619E+02  0.81495379619E+02  0.00000000000E+00 0. -1.
         21   -1    0    0  501  503 -0.00000000000E+00 -0.00000000000E+00 -0.10023221582E+04  0.10023221582E+04  0.00000000000E+00 0. -1.
          6    2    1    2  501    0 -0.31273172950E+02  0.20629516240E+03 -0.63840766574E+03  0.69335661658E+03  0.17217242724E+03 0.  0.
         24    2    3    3    0    0  0.28881435165E+02  0.18814053617E+03 -0.45217900031E+03  0.49675709176E+03  0.77915089968E+02 0.  0.
         -6    2    1    2    0  502  0.31273172950E+02 -0.20629516240E+03 -0.28241911281E+03  0.39046092121E+03  0.17077315461E+03 0.  0.
        -24    2    5    5    0    0  0.79708648164E+02 -0.10575616811E+03 -0.13458253227E+03  0.20517241865E+03  0.80283421074E+02 0.  0.
          5    1    3    3  501    0 -0.60154608115E+02  0.18154626226E+02 -0.18622866543E+03  0.19659952482E+03  0.47000000000E+01 0. -1.
        -11    1    4    4    0    0 -0.30355738061E+01  0.40328456566E+01 -0.81402865893E+02  0.81559212404E+02  0.00000000000E+00 0.  1.
         12    1    4    4    0    0  0.31917008971E+02  0.18410769052E+03 -0.37077613441E+03  0.41519787935E+03  0.00000000000E+00 0. -1.
         -5    1    5    5    0  502 -0.48435475214E+02 -0.10053899429E+03 -0.14783658054E+03  0.18528850255E+03  0.47000000000E+01 0.  1.
         11    1    6    6    0    0  0.21231139972E+02 -0.87887897888E+02 -0.10043208371E+03  0.13513566272E+03  0.00000000000E+00 0. -1.
        -12    1    6    6    0    0  0.58477508192E+02 -0.17868270218E+02 -0.34150448552E+02  0.70036755930E+02  0.00000000000E+00 0.  1.
</event>
<event>
12    1  0.8563264E-002  0.1920726E+03  0.7818608E-02  0.1156932E+00
         21   -1    0    0  501  502  0.00000000000E+00  0.00000000000E+00  0.13089809991E+04  0.13089809991E+04  0.00000000000E+00 0. -1.
         21   -1    0    0  502  503 -0.00000000000E+00 -0.00000000000E+00 -0.64139343331E+02  0.64139343331E+02  0.00000000000E+00 0. -1.
         -6    2    1    2    0  503  0.15300603848E+02 -0.82830576628E+02  0.10580726770E+03  0.21800509439E+03  0.17098546832E+03 0.  0.
        -24    2    3    3    0    0 -0.11766019892E+02 -0.10776185475E+02 -0.80239208947E+01  0.80513033153E+02  0.78507323248E+02 0.  0.
          6    2    1    2  501    0 -0.15300603848E+02  0.82830576628E+02  0.11390343881E+04  0.11551152481E+04  0.17261774579E+03 0.  0.
         24    2    5    5    0    0  0.47609539325E+02  0.53823461157E+02  0.45239934797E+03  0.46497840136E+03  0.79850550915E+02 0.  0.
          5    1    5    5  501    0 -0.62910143173E+02  0.29007115471E+02  0.68663504012E+03  0.69013684671E+03  0.47000000000E+01 0. -1.
        -11    1    6    6    0    0  0.10668701208E+02  0.67207012512E+02  0.29557175988E+03  0.30330392176E+03  0.00000000000E+00 0.  1.
         12    1    6    6    0    0  0.36940838117E+02 -0.13383551355E+02  0.15682758809E+03  0.16167447960E+03  0.00000000000E+00 0. -1.
         -5    1    3    3    0  503  0.27066623740E+02 -0.72054391153E+02  0.11383118859E+03  0.13749206123E+03  0.47000000000E+01 0.  1.
         11    1    4    4    0    0 -0.18062635668E+01 -0.43316735652E+02  0.58805726730E+01  0.43751380670E+02  0.00000000000E+00 0. -1.
        -12    1    4    4    0    0 -0.99597563252E+01  0.32540550177E+02 -0.13904493568E+02  0.36761652483E+02  0.00000000000E+00 0.  1.
</event>
<event>
12    1  0.8563264E-002  0.2114755E+03  0.7818608E-02  0.1141224E+00
         21   -1    0    0  503  502  0.00000000000E+00  0.00000000000E+00  0.37028034461E+03  0.37028034461E+03  0.00000000000E+00 0.  1.
         21   -1    0    0  501  503 -0.00000000000E+00 -0.00000000000E+00 -0.14000968013E+03  0.14000968013E+03  0.00000000000E+00 0.  1.
          6    2    1    2  501    0 -0.10318684675E+03 -0.55572763327E+02  0.21435069766E+03  0.29821610831E+03  0.17102855990E+03 0.  0.
         24    2    3    3    0    0 -0.37468587425E+01 -0.69258543987E+02  0.12031393980E+03  0.16059120636E+03  0.80643081439E+02 0.  0.
         -6    2    1    2    0  502  0.10318684675E+03  0.55572763327E+02  0.15919966818E+02  0.21207391643E+03  0.17602852985E+03 0.  0.
        -24    2    5    5    0    0  0.76025833662E+01  0.29009116825E+02  0.60049142751E+02  0.10339340810E+03  0.78644574898E+02 0.  0.
          5    1    3    3  501    0 -0.99439988009E+02  0.13685780659E+02  0.94036757856E+02  0.13762490195E+03  0.47000000000E+01 0. -1.
        -13    1    4    4    0    0  0.20254830671E+02 -0.31450776607E+02  0.60887742278E+01  0.37900958910E+02  0.00000000000E+00 0.  1.
         14    1    4    4    0    0 -0.24001689413E+02 -0.37807767380E+02  0.11422516558E+03  0.12269024745E+03  0.00000000000E+00 0. -1.
         -5    1    5    5    0  502  0.95584263385E+02  0.26563646502E+02 -0.44129175933E+02  0.10868050833E+03  0.47000000000E+01 0.  1.
         11    1    6    6    0    0  0.87511021653E+01 -0.23585107040E+02  0.39676951542E+02  0.46979778063E+02  0.00000000000E+00 0. -1.
        -12    1    6    6    0    0 -0.11485187991E+01  0.52594223865E+02  0.20372191209E+02  0.56413630038E+02  0.00000000000E+00 0.  1.
</event>
<event>
12    1  0.8563264E-002  0.3663298E+03  0.7818608E-02  0.1056163E+00
         21   -1    0    0  503  502  0.00000000000E+00  0.00000000000E+00  0.11545356285E+04  0.11545356285E+04  0.00000000000E+00 0. -1.
         21   -1    0    0  501  503 -0.00000000000E+00 -0.00000000000E+00 -0.18946776065E+03  0.18946776065E+03  0.00000000000E+00 0. -1.
          6    2    1    2  501    0  0.30920460748E+03  0.93211452129E+02  0.64450240746E+02  0.37195614065E+03  0.17292100202E+03 0.  0.
         24    2    3    3    0    0  0.27340299719E+03  0.59191735701E+02  0.10368265071E+03  0.30870767508E+03  0.79356638962E+02 0.  0.
         -6    2    1    2    0  502 -0.30920460748E+03 -0.93211452129E+02  0.90061762711E+03  0.97204724850E+03  0.17166210697E+03 0.  0.
        -24    2    5    5    0    0 -0.76572042467E+02  0.13191736061E+02  0.26280529840E+03  0.28483097584E+03  0.77619329699E+02 0.  0.
          5    1    3    3  501    0  0.35801610289E+02  0.34019716427E+02 -0.39232409964E+02  0.63248465568E+02  0.47000000000E+01 0. -1.
        -13    1    4    4    0    0  0.11663529826E+03 -0.82634508428E+01  0.64750975160E+02  0.13365914187E+03  0.00000000000E+00 0.  1.
         14    1    4    4    0    0  0.15676769893E+03  0.67455186544E+02  0.38931675550E+02  0.17504853321E+03  0.00000000000E+00 0. -1.
         -5    1    5    5    0  502 -0.23263256501E+03 -0.10640318819E+03  0.63781232871E+03  0.68721627267E+03  0.47000000000E+01 0.  1.
         11    1    6    6    0    0 -0.79053439301E+02 -0.10490425972E+02  0.23532141844E+03  0.24846662810E+03  0.00000000000E+00 0. -1.
        -12    1    6    6    0    0  0.24813968344E+01  0.23682162033E+02  0.27483879951E+02  0.36364347732E+02  0.00000000000E+00 0.  1.
</event>
<event>
12    1  0.8563264E-002  0.2183751E+03  0.7818608E-02  0.1135287E+00
         21   -1    0    0  501  502  0.00000000000E+00  0.00000000000E+00  0.45029213736E+03  0.45029213736E+03  0.00000000000E+00 0. -1.
         21   -1    0    0  502  503 -0.00000000000E+00 -0.00000000000E+00 -0.11327926217E+03  0.11327926217E+03  0.00000000000E+00 0. -1.
         -6    2    1    2    0  503 -0.46980323197E+02  0.12703646025E+03  0.93945997558E+02  0.23681586250E+03  0.17003084800E+03 0.  0.
        -24    2    3    3    0    0 -0.51509175300E+02  0.32572526883E+02  0.96736624569E+02  0.14208559908E+03  0.84357443563E+02 0.  0.
          6    2    1    2  501    0  0.46980323197E+02 -0.12703646025E+03  0.24306687763E+03  0.32675553703E+03  0.17129582884E+03 0.  0.
         24    2    5    5    0    0 -0.16082204685E+01 -0.90230621566E+02  0.23616052911E+03  0.26523071289E+03  0.80195910773E+02 0.  0.
          5    1    5    5  501    0  0.48588543666E+02 -0.36805838683E+02  0.69063485198E+01  0.61524824149E+02  0.47000000000E+01 0. -1.
        -13    1    6    6    0    0 -0.32362881465E+02 -0.11400854721E+02  0.48872369064E+02  0.59714688670E+02  0.00000000000E+00 0.  1.
         14    1    6    6    0    0  0.30754660997E+02 -0.78829766844E+02  0.18728816005E+03  0.20551602421E+03  0.00000000000E+00 0. -1.
         -5    1    3    3    0  503  0.45288521031E+01  0.94463933365E+02 -0.27906270108E+01  0.94730263418E+02  0.47000000000E+01 0.  1.
         13    1    4    4    0    0 -0.43011470509E+02  0.22528106102E+02  0.43297341717E+01  0.48746782027E+02  0.00000000000E+00 0. -1.
        -14    1    4    4    0    0 -0.84977047909E+01  0.10044420781E+02  0.92406890397E+02  0.93338817051E+02  0.00000000000E+00 0.  1.
</event>
<event>
12    1  0.8563264E-002  0.2721075E+03  0.7818608E-02  0.1100095E+00
         21   -1    0    0  501  502  0.00000000000E+00  0.00000000000E+00  0.35651538846E+03  0.35651538846E+03  0.00000000000E+00 0. -1.
         21   -1    0    0  502  503 -0.00000000000E+00 -0.00000000000E+00 -0.68816336090E+03  0.68816336090E+03  0.00000000000E+00 0. -1.
         -6    2    1    2    0  503 -0.19616735792E+03 -0.78209847391E+02 -0.60233274389E+03  0.66094421027E+03  0.17159283837E+03 0.  0.
        -24    2    3    3    0    0 -0.12004203476E+03  0.19853077522E+02 -0.36226697673E+03  0.39063870786E+03  0.80975322494E+02 0.  0.
          6    2    1    2  501    0  0.19616735792E+03  0.78209847391E+02  0.27068477146E+03  0.38373453909E+03  0.17141627241E+03 0.  0.
         24    2    5    5    0    0  0.17225051309E+03  0.55864238167E+02  0.28607648940E+03  0.34726075810E+03  0.77196010003E+02 0.  0.
          5    1    5    5  501    0  0.23916844825E+02  0.22345609224E+02 -0.15391717945E+02  0.36473780984E+02  0.47000000000E+01 0. -1.
        -13    1    6    6    0    0  0.45863152609E+02 -0.17750039377E+02  0.54953432389E+02  0.73745321183E+02  0.00000000000E+00 0.  1.
         14    1    6    6    0    0  0.12638736049E+03  0.73614277544E+02  0.23112305701E+03  0.27351543692E+03  0.00000000000E+00 0. -1.
         -5    1    3    3    0  503 -0.76125323161E+02 -0.98062924914E+02 -0.24006576716E+03  0.27030550241E+03  0.47000000000E+01 0.  1.
         13    1    4    4    0    0 -0.12502632137E+03  0.29473747513E+01 -0.28244317589E+03  0.30889223956E+03  0.00000000000E+00 0. -1.
        -14    1    4    4    0    0  0.49842866079E+01  0.16905702771E+02 -0.79823800845E+02  0.81746468306E+02  0.00000000000E+00 0.  1.
</event>
<event>
12    1  0.8563264E-002  0.3045949E+03  0.7818608E-02  0.1083027E+00
         21   -1    0    0  501  502  0.00000000000E+00  0.00000000000E+00  0.17600025500E+03  0.17600025500E+03  0.00000000000E+00 0.  1.
         21   -1    0    0  502  503 -0.00000000000E+00 -0.00000000000E+00 -0.57259188616E+03  0.57259188616E+03  0.00000000000E+00 0. -1.
         -6    2    1    2    0  503 -0.40771061663E+01  0.25161220443E+03 -0.92004366245E+02  0.31818680387E+03  0.17161793187E+03 0.  0.
        -24    2    3    3    0    0 -0.60800264171E+02  0.10354806236E+03 -0.33285660662E+02  0.14904046721E+03  0.81769507268E+02 0.  0.
          6    2    1    2  501    0  0.40771061663E+01 -0.25161220443E+03 -0.30458726491E+03  0.43040533728E+03  0.17073379338E+03 0.  0.
         24    2    5    5    0    0  0.43149309924E+02 -0.10846450406E+03 -0.16669322935E+03  0.22778560411E+03  0.10233883496E+03 0.  0.
          5    1    5    5  501    0 -0.39072203758E+02 -0.14314770037E+03 -0.13789403556E+03  0.20261973318E+03  0.47000000000E+01 0. -1.
        -13    1    6    6    0    0  0.17934949451E+02 -0.12383921429E+03 -0.12674983220E+03  0.17811045272E+03  0.00000000000E+00 0.  1.
         14    1    6    6    0    0  0.25214360473E+02  0.15374710233E+02 -0.39943397152E+02  0.49675151382E+02  0.00000000000E+00 0. -1.
         -5    1    3    3    0  503  0.56723158005E+02  0.14806414207E+03 -0.58718705584E+02  0.16914633666E+03  0.47000000000E+01 0.  1.
         11    1    4    4    0    0 -0.40622730436E+02  0.79959258873E+02 -0.60149320132E+02  0.10798902731E+03  0.00000000000E+00 0. -1.
        -12    1    4    4    0    0 -0.20177533735E+02  0.23588803488E+02  0.26863659470E+02  0.41051439899E+02  0.00000000000E+00 0.  1.
</event>
<event>
12    1  0.8563264E-002  0.1958271E+03  0.7818608E-02  0.1155524E+00
         21   -1    0    0  503  502  0.00000000000E+00  0.00000000000E+00  0.11047217874E+03  0.11047217874E+03  0.00000000000E+00 0. -1.
         21   -1    0    0  501  503 -0.00000000000E+00 -0.00000000000E+00 -0.38759786082E+03  0.38759786082E+03  0.00000000000E+00 0. -1.
          6    2    1    2  501    0 -0.61141496449E+02 -0.30334550179E+02 -0.23782599777E+03  0.30807380443E+03  0.18354780369E+03 0.  0.
         24    2    3    3    0    0  0.17399175899E+02 -0.48239126550E+02 -0.72655424055E+02  0.12424611476E+03  0.86767169695E+02 0.  0.
         -6    2    1    2    0  502  0.61141496449E+02  0.30334550179E+02 -0.39299684311E+02  0.18999623513E+03  0.17290354726E+03 0.  0.
        -24    2    5    5    0    0  0.12168892636E+02  0.69015502652E+02  0.15617505362E+02  0.10673448082E+03  0.78975447887E+02 0.  0.
          5    1    3    3  501    0 -0.78540672347E+02  0.17904576371E+02 -0.16517057371E+03  0.18382768966E+03  0.47000000000E+01 0. -1.
        -11    1    4    4    0    0  0.23950743355E+02 -0.37846680029E+02 -0.91429091987E+02  0.10181005922E+03  0.00000000000E+00 0.  1.
         12    1    4    4    0    0 -0.65515674567E+01 -0.10392446521E+02  0.18773667931E+02  0.22436055545E+02  0.00000000000E+00 0. -1.
         -5    1    5    5    0  502  0.48972603813E+02 -0.38680952472E+02 -0.54917189674E+02  0.83261754306E+02  0.47000000000E+01 0.  1.
         11    1    6    6    0    0 -0.14557614617E+02  0.49564263123E+02  0.40269031679E+02  0.65499123923E+02  0.00000000000E+00 0. -1.
        -12    1    6    6    0    0  0.26726507253E+02  0.19451239528E+02 -0.24651526316E+02  0.41235356902E+02  0.00000000000E+00 0.  1.
</event>
<event>
12    1  0.8563264E-002  0.2402375E+03  0.7818608E-02  0.1119853E+00
         21   -1    0    0  501  502  0.00000000000E+00  0.00000000000E+00  0.24691272678E+04  0.24691272678E+04  0.00000000000E+00 0.  1.
         21   -1    0    0  502  503 -0.00000000000E+00 -0.00000000000E+00 -0.41694810555E+02  0.41694810555E+02  0.00000000000E+00 0.  1.
         -6    2    1    2    0  503 -0.98518863239E-01 -0.16586670867E+03  0.37681229538E+03  0.44617752675E+03  0.17197413956E+03 0.  0.
        -24    2    3    3    0    0 -0.66891196414E+02 -0.84118504509E+02  0.21095975793E+03  0.24952253740E+03  0.78785292075E+02 0.  0.
          6    2    1    2  501    0  0.98518863239E-01  0.16586670867E+03  0.20506201619E+04  0.20646445517E+04  0.17378809356E+03 0.  0.
         24    2    5    5    0    0 -0.50367098574E+01  0.18886969132E+03  0.15781053685E+04  0.15915189576E+04  0.82576688296E+02 0.  0.
          5    1    5    5  501    0  0.51352287206E+01 -0.23002982656E+02  0.47251479343E+03  0.47312559410E+03  0.47000000000E+01 0. -1.
        -13    1    6    6    0    0  0.56000485716E+01  0.17565634693E+03  0.15375162172E+04  0.15475279095E+04  0.00000000000E+00 0.  1.
         14    1    6    6    0    0 -0.10636758429E+02  0.13213344397E+02  0.40589151315E+02  0.43991048004E+02  0.00000000000E+00 0. -1.
         -5    1    3    3    0  503  0.66792677551E+02 -0.81748204159E+02  0.16585253745E+03  0.19665498935E+03  0.47000000000E+01 0.  1.
         11    1    4    4    0    0 -0.19870869020E+01 -0.42174821444E+02  0.13386164536E+03  0.14036240300E+03  0.00000000000E+00 0. -1.
        -12    1    4    4    0    0 -0.64904109512E+02 -0.41943683065E+02  0.77098112575E+02  0.10916013440E+03  0.00000000000E+00 0.  1.
</event>
<event>
12    1  0.8563264E-002  0.2144136E+03  0.7818608E-02  0.1138424E+00
         21   -1    0    0  501  502  0.00000000000E+00  0.00000000000E+00  0.56270962096E+02  0.56270962096E+02  0.00000000000E+00 0. -1.
         21   -1    0    0  502  503 -0.00000000000E+00 -0.00000000000E+00 -0.89698545924E+03  0.89698545924E+03  0.00000000000E+00 0. -1.
         -6    2    1    2    0  503 -0.29313678691E+02  0.12499966141E+03 -0.56936412914E+03  0.60839846979E+03  0.17172355512E+03 0.  0.
        -24    2    3    3    0    0  0.46240501345E+02  0.53800824123E+02 -0.31692925624E+03  0.33540915936E+03  0.83799988570E+02 0.  0.
          6    2    1    2  501    0  0.29313678691E+02 -0.12499966141E+03 -0.27135036800E+03  0.34485795154E+03  0.16974032348E+03 0.  0.
         24    2    5    5    0    0 -0.38235694060E+02 -0.38417495732E+02 -0.88817359783E+02  0.13178571435E+03  0.80876936326E+02 0.  0.
          5    1    5    5  501    0  0.67549372751E+02 -0.86582165674E+02 -0.18253300822E+03  0.21307223719E+03  0.47000000000E+01 0. -1.
        -11    1    6    6    0    0  0.22937979153E+02 -0.25863852407E+02 -0.37019259862E+02  0.50650916573E+02  0.00000000000E+00 0.  1.
         12    1    6    6    0    0 -0.61173673212E+02 -0.12553643325E+02 -0.51798099921E+02  0.81134797778E+02  0.00000000000E+00 0. -1.
         -5    1    3    3    0  503 -0.75554180037E+02  0.71198837283E+02 -0.25243487290E+03  0.27298931043E+03  0.47000000000E+01 0.  1.
         11    1    4    4    0    0  0.69776478174E+02  0.49490494998E+02 -0.25777120177E+03  0.27159539477E+03  0.00000000000E+00 0. -1.
        -12    1    4    4    0    0 -0.23535976828E+02  0.43103291254E+01 -0.59158054470E+02  0.63813764590E+02  0.00000000000E+00 0.  1.
</event>
<event>
12    1  0.8563264E-002  0.2003460E+03  0.7818608E-02  0.1149676E+00
         21   -1    0    0  503  502  0.00000000000E+00  0.00000000000E+00  0.60735857004E+03  0.60735857004E+03  0.00000000000E+00 0. -1.
         21   -1    0    0  501  503 -0.00000000000E+00 -0.00000000000E+00 -0.70916047627E+02  0.70916047627E+02  0.00000000000E+00 0. -1.
          6    2    1    2  501    0 -0.75923146872E+02 -0.66688944946E+02  0.17584574322E+03  0.26575971645E+03  0.17174039091E+03 0.  0.
         24    2    3    3    0    0 -0.63701139695E+02  0.23072012669E+02  0.12034181121E+03  0.15941507182E+03  0.79629521115E+02 0.  0.
         -6    2    1    2    0  502  0.75923146872E+02  0.66688944946E+02  0.36059677919E+03  0.41251490121E+03  0.17299354599E+03 0.  0.
        -24    2    5    5    0    0  0.72244402804E+02 -0.45930862926E+01  0.27751342851E+03  0.30288099088E+03  0.97379882181E+02 0.  0.
          5    1    3    3  501    0 -0.12222007177E+02 -0.89760957615E+02  0.55503932014E+02  0.10634464463E+03  0.47000000000E+01 0. -1.
        -13    1    4    4    0    0 -0.38189569630E+02 -0.26166192364E+02  0.36777992091E+02  0.59124728783E+02  0.00000000000E+00 0.  1.
         14    1    4    4    0    0 -0.25511570065E+02  0.49238205034E+02  0.83563819117E+02  0.10029034304E+03  0.00000000000E+00 0. -1.
         -5    1    5    5    0  502  0.36787440686E+01  0.71282031239E+02  0.83083350675E+02  0.10963391033E+03  0.47000000000E+01 0.  1.
         11    1    6    6    0    0  0.66297498313E+00 -0.39351122159E+02  0.65353018475E+02  0.76288710665E+02  0.00000000000E+00 0. -1.
        -12    1    6    6    0    0  0.71581427821E+02  0.34758035867E+02  0.21216041004E+03  0.22659228022E+03  0.00000000000E+00 0.  1.
</event>
<event>
12    1  0.8563264E-002  0.3534247E+03  0.7818608E-02  0.1061263E+00
         21   -1    0    0  501  502  0.00000000000E+00  0.00000000000E+00  0.26260776279E+03  0.26260776279E+03  0.00000000000E+00 0. -1.
         21   -1    0    0  502  503 -0.00000000000E+00 -0.00000000000E+00 -0.53473046383E+03  0.53473046383E+03  0.00000000000E+00 0.  1.
         -6    2    1    2    0  503 -0.25821387788E+03  0.16833292038E+03 -0.26917232655E+03  0.44390121102E+03  0.17200047949E+03 0.  0.
        -24    2    3    3    0    0 -0.97762626410E+02  0.64447566987E+02 -0.38600580862E+02  0.14436458444E+03  0.75100655024E+02 0.  0.
          6    2    1    2  501    0  0.25821387788E+03 -0.16833292038E+03 -0.29503744818E+01  0.35343701561E+03  0.17291223346E+03 0.  0.
         24    2    5    5    0    0  0.15262486025E+03 -0.13218869866E+03 -0.63891193976E+02  0.22619190220E+03  0.79451192130E+02 0.  0.
          5    1    5    5  501    0  0.10558901763E+03 -0.36144221720E+02  0.60940819495E+02  0.12724511341E+03  0.47000000000E+01 0. -1.
        -11    1    6    6    0    0  0.98232521601E+02 -0.32590703596E+02 -0.30735597878E+02  0.10796508342E+03  0.00000000000E+00 0.  1.
         12    1    6    6    0    0  0.54392338647E+02 -0.99597995068E+02 -0.33155596098E+02  0.11822681878E+03  0.00000000000E+00 0. -1.
         -5    1    3    3    0  503 -0.16045125147E+03  0.10388535340E+03 -0.23057174569E+03  0.29953662657E+03  0.47000000000E+01 0.  1.
         11    1    4    4    0    0 -0.10948975117E+03  0.65020909807E+02 -0.34556296681E+02  0.13194643596E+03  0.00000000000E+00 0. -1.
        -12    1    4    4    0    0  0.11727124759E+02 -0.57334282035E+00 -0.40442841815E+01  0.12418148478E+02  0.00000000000E+00 0.  1.
</event>
<event>
12    1  0.8563264E-002  0.2234834E+03  0.7818608E-02  0.1131556E+00
         21   -1    0    0  501  502  0.00000000000E+00  0.00000000000E+00  0.11272974465E+03  0.11272974465E+03  0.00000000000E+00 0.  1.
         21   -1    0    0  502  503 -0.00000000000E+00 -0.00000000000E+00 -0.54381382191E+03  0.54381382191E+03  0.00000000000E+00 0.  1.
         -6    2    1    2    0  503 -0.20213479977E+01  0.14078446655E+03 -0.35919928906E+03  0.42304725050E+03  0.17355257136E+03 0.  0.
        -24    2    3    3    0    0  0.65422904982E+02  0.69666933254E+02 -0.17088815768E+03  0.21070412487E+03  0.77844895246E+02 0.  0.
          6    2    1    2  501    0  0.20213479977E+01 -0.14078446655E+03 -0.71884788201E+02  0.23349631606E+03  0.17183932893E+03 0.  0.
         24    2    5    5    0    0 -0.45903671576E+02 -0.36115171358E+02 -0.25603960014E+01  0.99032825804E+02  0.79934299852E+02 0.  0.
          5    1    5    5  501    0  0.47925019574E+02 -0.10466929519E+03 -0.69324392200E+02  0.13446349025E+03  0.47000000000E+01 0. -1.
        -11    1    6    6    0    0 -0.24571583007E+02 -0.57943197163E+02  0.13757071894E+02  0.64423860611E+02  0.00000000000E+00 0.  1.
         12    1    6    6    0    0 -0.21332088569E+02  0.21828025805E+02 -0.16317467895E+02  0.34608965194E+02  0.00000000000E+00 0. -1.
         -5    1    3    3    0  503 -0.67444252980E+02  0.71117533297E+02 -0.18831113138E+03  0.21234312563E+03  0.47000000000E+01 0.  1.
         13    1    4    4    0    0  0.54356730049E+02  0.14978274469E+02 -0.12947134118E+03  0.14121554799E+03  0.00000000000E+00 0. -1.
        -14    1    4    4    0    0  0.11066174933E+02  0.54688658785E+02 -0.41416816499E+02  0.69488576876E+02  0.00000000000E+00 0.  1.
</event>
